17
 energy: -346.949805300660 gnorm: 0.002608759292 xtb: 6.7.1 (edcfbbe)
C            2.14627855848055        1.01377412287649       -0.58726609190000
C            1.18750887652102       -0.10498285506842       -0.24117839037604
C            1.69108920352838       -1.01060444640948        0.86531383315908
O           -0.05217469605307        0.55354694168847        0.22283814049877
C           -1.21170020332823       -0.10852253350915        0.05452186029595
O           -1.29494772337224       -1.21134793503059       -0.46495183361030
C           -2.38268454110898        0.68537617042607        0.54153271387219
H            1.74097020919683        1.64525069361673       -1.38270051238267
H            2.35458654547195        1.63354503325514        0.28981010533009
H            3.08748351288503        0.58020721081337       -0.93645844722139
H            0.93564925437746       -0.68423235089131       -1.13345310271784
H            1.90608576527336       -0.42722944478154        1.76558495106080
H            2.61254182856883       -1.50252467838487        0.54132327100999
H            0.95544171622174       -1.78173119716146        1.10780927782639
H           -2.80720065825115        1.21686132747741       -0.31784194177657
H           -2.08934446813359        1.41946706126322        1.29176356254341
H           -3.14546248534300        0.01206107803516        0.93387822062565
17
 energy: -346.949823546501 gnorm: 0.001252232377 xtb: 6.7.1 (edcfbbe)
C            2.14559610864792        1.01370691803439       -0.58609416885946
C            1.18763038072592       -0.10564670118939       -0.24210981134239
C            1.69086818758923       -1.01131573187164        0.86394065224104
O           -0.05200638009893        0.55411658270871        0.21830683620688
C           -1.21151126313066       -0.10796456073021        0.05474367476488
O           -1.29531975281879       -1.21416713700056       -0.45698888908079
C           -2.38245380803447        0.68665669641338        0.54005353296529
H            1.74014797141388        1.64722197137827       -1.37984216641501
H            2.35442751685707        1.63176558277254        0.29259638897725
H            3.08775787211708        0.58277318141894       -0.93675417492949
H            0.93713682138705       -0.68518360398555       -1.13470316703365
H            1.90766788775430       -0.42770019078161        1.76418851845021
H            2.61252773994857       -1.50373517829307        0.54001516769141
H            0.95583967258903       -1.78301043228326        1.10799685685421
H           -2.80875083668548        1.21685786811869       -0.31927426462231
H           -2.09111283749854        1.42201549993284        1.29042142073477
H           -3.14432477064177        0.01252315526065        0.93402924866023
17
 energy: -346.949838718345 gnorm: 0.002525259314 xtb: 6.7.1 (edcfbbe)
C            2.14501943641752        1.01399624692308       -0.58294090652824
C            1.18739481231598       -0.10619502930448       -0.24620955303504
C            1.68899537923323       -1.01233986736736        0.85913071192805
O           -0.05196350468357        0.55560330392893        0.20724993434391
C           -1.20996134262986       -0.11079727121818        0.06349127654430
O           -1.29471614854232       -1.22580785126045       -0.42884586639074
C           -2.38199406410912        0.68970613443638        0.53556430766155
H            1.73835180182644        1.65513583763735       -1.36997737486954
H            2.35507772596570        1.62479060015990        0.30151346634194
H            3.08882301721829        0.58977514078610       -0.93878810570418
H            0.94088676557324       -0.68576303922739       -1.14040638402959
H            1.91155060490115       -0.42928688648208        1.75933756298861
H            2.61000707666397       -1.50639540314015        0.53357412025616
H            0.95539035349067       -1.78474400143135        1.10704678460764
H           -2.80836732957494        1.21560705784980       -0.32637379476050
H           -2.09644211659666        1.42952977043561        1.28491491426505
H           -3.14393272681252        0.01609816602135        0.93224487834821
17
 energy: -346.949847036119 gnorm: 0.001574035400 xtb: 6.7.1 (edcfbbe)
C            2.14565423481119        1.01458307845345       -0.58245249405893
C            1.18716230770835       -0.10552270365213       -0.24666735398453
C            1.68829632208844       -1.01246520236175        0.85847473996250
O           -0.05246225510692        0.55672409471303        0.20587149695442
C           -1.20983361880970       -0.11097480896053        0.06353599093246
O           -1.29317263992412       -1.22917729513813       -0.42229815264902
C           -2.38214261911449        0.68922648098793        0.53559938880029
H            1.73888825511806        1.65712480379323       -1.36829614384593
H            2.35609257147875        1.62374660055152        0.30274445058303
H            3.08853104057127        0.58957540898213       -0.93921281981257
H            0.94099167150224       -0.68430350212405       -1.14151276486745
H            1.91102870498794       -0.42974964606477        1.75853091420623
H            2.60866790491223       -1.50687765657721        0.53216306198490
H            0.95406324550336       -1.78408362098366        1.10588172527241
H           -2.80687506314049        1.21389243758008       -0.32783729634461
H           -2.09605087091033        1.43022675469507        1.28332237762034
H           -3.14471977245708        0.01696749946028        0.93267887402352
17
 energy: -346.949856163708 gnorm: 0.001227353976 xtb: 6.7.1 (edcfbbe)
C            2.14733723481962        1.01672383976180       -0.58170905096167
C            1.18634409572722       -0.10323928914491       -0.24789937785591
C            1.68659463030203       -1.01268556476740        0.85651508017845
O           -0.05396641059247        0.55924031475466        0.20482196123996
C           -1.20900862615311       -0.11441897475517        0.06948902124738
O           -1.28836448349247       -1.23728207083886       -0.40630169070136
C           -2.38273721759737        0.68745041502665        0.53579615163721
H            1.74076985966848        1.66247234416303       -1.36495167471750
H            2.35981615737557        1.62201951326636        0.30485870234321
H            3.08710946195123        0.58815787920193       -0.94084375227085
H            0.93987922146780       -0.67966525023495       -1.14415100218567
H            1.90911550373820       -0.43077093491614        1.75626733536774
H            2.60530242063595       -1.50798960134963        0.52845419800455
H            0.95028911698780       -1.78208468850925        1.10210970456336
H           -2.79939880954987        1.20997949804910       -0.33291417482476
H           -2.09557635264836        1.43100372094591        1.27978092793647
H           -3.14938709046299        0.02000110694190        0.93120386089196
17
 energy: -346.949858997265 gnorm: 0.000574312431 xtb: 6.7.1 (edcfbbe)
C            2.14755515011837        1.01720210303505       -0.58112409463610
C            1.18606879440308       -0.10267235190969       -0.24907961601198
C            1.68584375752510       -1.01277538800468        0.85491694146723
O           -0.05430655187000        0.56002293276650        0.20304767046284
C           -1.20861771293897       -0.11631711596962        0.07346172124871
O           -1.28700518232562       -1.24160919281220       -0.39651756807835
C           -2.38285796898814        0.68761446482023        0.53488924154227
H            1.74115334022562        1.66490355251561       -1.36284732967160
H            2.36138344007966        1.62061856822637        0.30663716390460
H            3.08712127876466        0.58909214201126       -0.94186270092386
H            0.93995484677272       -0.67828361494715       -1.14595578086474
H            1.90929287162780       -0.43142052924208        1.75505559120304
H            2.60438313661206       -1.50845299147722        0.52663138616493
H            0.94959082545780       -1.78229252078558        1.10077925910209
H           -2.79666140697451        1.20978697589112       -0.33548622626844
H           -2.09746530463037        1.43212088958474        1.27886406660025
H           -3.15131483398361        0.02137405533856        0.92911666643413
17
 energy: -346.949858997265 gnorm: 0.000574312431 xtb: 6.7.1 (edcfbbe)
C            2.14755515011837        1.01720210303505       -0.58112409463610
C            1.18606879440308       -0.10267235190969       -0.24907961601198
C            1.68584375752510       -1.01277538800468        0.85491694146723
O           -0.05430655187000        0.56002293276650        0.20304767046284
C           -1.20861771293897       -0.11631711596962        0.07346172124871
O           -1.28700518232562       -1.24160919281220       -0.39651756807835
C           -2.38285796898814        0.68761446482023        0.53488924154227
H            1.74115334022562        1.66490355251561       -1.36284732967160
H            2.36138344007966        1.62061856822637        0.30663716390460
H            3.08712127876466        0.58909214201126       -0.94186270092386
H            0.93995484677272       -0.67828361494715       -1.14595578086474
H            1.90929287162780       -0.43142052924208        1.75505559120304
H            2.60438313661206       -1.50845299147722        0.52663138616493
H            0.94959082545780       -1.78229252078558        1.10077925910209
H           -2.79666140697451        1.20978697589112       -0.33548622626844
H           -2.09746530463037        1.43212088958474        1.27886406660025
H           -3.15131483398361        0.02137405533856        0.92911666643413
