      -----------------------------------------------------------      
     |                   =====================                   |     
     |                           x T B                           |     
     |                   =====================                   |     
     |                         S. Grimme                         |     
     |          Mulliken Center for Theoretical Chemistry        |     
     |                    University of Bonn                     |     
      -----------------------------------------------------------      

   * xtb version 6.7.1 (edcfbbe) compiled by 'albert@albert-system' on 2024-07-22

   xtb is free software: you can redistribute it and/or modify it under
   the terms of the GNU Lesser General Public License as published by
   the Free Software Foundation, either version 3 of the License, or
   (at your option) any later version.
   
   xtb is distributed in the hope that it will be useful,
   but WITHOUT ANY WARRANTY; without even the implied warranty of
   MERCHANTABILITY or FITNESS FOR A PARTICULAR PURPOSE.  See the
   GNU Lesser General Public License for more details.
   
   Cite this work as:
   * C. Bannwarth, E. Caldeweyher, S. Ehlert, A. Hansen, P. Pracht,
     J. Seibert, S. Spicher, S. Grimme, WIREs Comput. Mol. Sci., 2020, 11,
     e01493. DOI: 10.1002/wcms.1493
   
   for GFN2-xTB:
   * C. Bannwarth, S. Ehlert and S. Grimme., J. Chem. Theory Comput., 2019,
     15, 1652-1671. DOI: 10.1021/acs.jctc.8b01176
   for GFN1-xTB:
   * S. Grimme, C. Bannwarth, P. Shushkov, J. Chem. Theory Comput., 2017,
     13, 1989-2009. DOI: 10.1021/acs.jctc.7b00118
   for GFN0-xTB:
   * P. Pracht, E. Caldeweyher, S. Ehlert, S. Grimme, ChemRxiv, 2019, preprint.
     DOI: 10.26434/chemrxiv.8326202.v1
   for GFN-FF:
   * S. Spicher and S. Grimme, Angew. Chem. Int. Ed., 2020, 59, 15665-15673.
     DOI: 10.1002/anie.202004239
   
   for ALPB and GBSA implicit solvation:
   * S. Ehlert, M. Stahn, S. Spicher, S. Grimme, J. Chem. Theory Comput.,
     2021, 17, 4250-4261. DOI: 10.1021/acs.jctc.1c00471
   
   for ddCOSMO and CPCM-X implicit solvation:
   * M. Stahn, S. Ehlert, S. Grimme, J. Phys. Chem. A,
     2023, XX, XXXX-XXXX. DOI: 10.1021/acs.jpca.3c04382
   
   for DFT-D4:
   * E. Caldeweyher, C. Bannwarth and S. Grimme, J. Chem. Phys., 2017,
     147, 034112. DOI: 10.1063/1.4993215
   * E. Caldeweyher, S. Ehlert, A. Hansen, H. Neugebauer, S. Spicher,
     C. Bannwarth and S. Grimme, J. Chem. Phys., 2019, 150, 154122.
     DOI: 10.1063/1.5090222
   * E. Caldeweyher, J.-M. Mewes, S. Ehlert and S. Grimme, Phys. Chem. Chem. Phys.
     2020, 22, 8499-8512. DOI: 10.1039/D0CP00502A
   
   for sTDA-xTB:
   * S. Grimme and C. Bannwarth, J. Chem. Phys., 2016, 145, 054103.
     DOI: 10.1063/1.4959605
   
   in the mass-spec context:
   * V. Asgeirsson, C. Bauer and S. Grimme, Chem. Sci., 2017, 8, 4879.
     DOI: 10.1039/c7sc00601b
   * J. Koopman and S. Grimme, ACS Omega 2019, 4, 12, 15120-15133.
     DOI: 10.1021/acsomega.9b02011
   
   for metadynamics refer to:
   * S. Grimme, J. Chem. Theory Comput., 2019, 155, 2847-2862
     DOI: 10.1021/acs.jctc.9b00143
   
   for SPH calculations refer to:
   * S. Spicher and S. Grimme, J. Chem. Theory Comput., 2021, 17, 1701-1714
     DOI: 10.1021/acs.jctc.0c01306
   
   for ONIOM refer to:
   * C. Plett, A. Katbashev, S. Ehlert, S. Grimme, M. Bursch,
     Phys. Chem. Chem. Phys., 2023, 25, 17860-17868. DOI: 10.1039/D3CP02178E
   
   for DIPRO refer to:
   * J. Kohn, N. Gildemeister, S. Grimme, D. Fazzi, A. Hansen,
     J. Chem. Phys., 2023, just accepted.
   
   for PTB refer to:
   * S. Grimme, M. Mueller, A. Hansen, J. Chem. Phys., 2023, 158, 124111.
     DOI: 10.1063/5.0137838
   
   with help from (in alphabetical order)
   P. Atkinson, C. Bannwarth, F. Bohle, G. Brandenburg, E. Caldeweyher
   M. Checinski, S. Dohm, S. Ehlert, S. Ehrlich, I. Gerasimov, C. Hölzer
   A. Katbashev, J. Kohn, J. Koopman, C. Lavigne, S. Lehtola, F. März, M. Müller,
   F. Musil, H. Neugebauer, J. Pisarek, C. Plett, P. Pracht, F. Pultar,
   J. Seibert, P. Shushkov, S. Spicher, M. Stahn, M. Steiner, T. Strunk,
   J. Stückrath, T. Rose, and J. Unsleber
   
 * started run on 2025/04/06 at 18:00:40.122     
   ID    Z sym.   atoms
    1    6 C      1, 2, 4, 6, 8, 10
    2    1 H      3, 5, 7, 9, 11, 18-24
    3    8 O      12-17

           -------------------------------------------------
          |                Calculation Setup                |
           -------------------------------------------------

          program call               : /srv/scratch/z5358697/.xtb/bin/xtb solv.coord --gfn2 --sp --chrg 0 --norestart --parallel 1 --alpb water reference -I xtb_sp-xcontrol-inp
          hostname                   : k155
          coordinate file            : solv.coord
          omp threads                :                     1


           -------------------------------------------------
          |                 G F N 2 - x T B                 |
           -------------------------------------------------

        Reference                      10.1021/acs.jctc.8b01176
      * Hamiltonian:
        H0-scaling (s, p, d)           1.850000    2.230000    2.230000
        zeta-weighting                 0.500000
      * Dispersion:
        s8                             2.700000
        a1                             0.520000
        a2                             5.000000
        s9                             5.000000
      * Repulsion:
        kExp                           1.500000    1.000000
        rExp                           1.000000
      * Coulomb:
        alpha                          2.000000
        third order                    shell-resolved
        anisotropic                    true
        a3                             3.000000
        a5                             4.000000
        cn-shift                       1.200000
        cn-exp                         4.000000
        max-rad                        5.000000

      * Solvation model:               ALPB
        Solvent                        water
        Parameter file                 internal GFN2-xTB/ALPB
        Dielectric constant                8.0200E+01
        Reference state                gsolv=reference [X=1]
        Free energy shift                  2.8945E-03 Eh       1.8164E+00 kcal/mol
        Temperature                        2.9815E+02 K
        Density                            1.0000E+00 kg/L
        Solvent mass                       1.8000E+01 g/mol
        Interaction kernel             P16
        Born radius scaling (c1)           1.4744E+00
        Born radii integrator          GBOBC
        Born offset                        0.0000E+00 a0       0.0000E+00 AA
        H-bond correction              true
        Ion screening                  false
        Surface tension                    1.0000E-05 Eh       1.5569E+01 dyn/cm
        Grid points                               974 per atom

          ...................................................
          :                      SETUP                      :
          :.................................................:
          :  # basis functions                  60          :
          :  # atomic orbitals                  60          :
          :  # shells                           36          :
          :  # electrons                        72          :
          :  max. iterations                   250          :
          :  Hamiltonian                  GFN2-xTB          :
          :  restarted?                      false          :
          :  GBSA solvation                   true          :
          :  PC potential                    false          :
          :  electronic temp.          300.0000000     K    :
          :  accuracy                    1.0000000          :
          :  -> integral cutoff          0.2500000E+02      :
          :  -> integral neglect         0.1000000E-07      :
          :  -> SCF convergence          0.1000000E-05 Eh   :
          :  -> wf. convergence          0.1000000E-03 e    :
          :  Broyden damping             0.4000000          :
          :  net charge                          0          :
          :  unpaired electrons                  0          :
          ...................................................

 iter      E             dE          RMSdq      gap      omega  full diag
   1    -43.6524300 -0.436524E+02  0.483E+00   10.27       0.0  T
   2    -43.6871868 -0.347568E-01  0.261E+00   10.11       1.0  T
   3    -43.6890644 -0.187764E-02  0.624E-01   10.14       1.0  T
   4    -43.6895600 -0.495575E-03  0.176E-01   10.13       1.0  T
   5    -43.6896255 -0.654825E-04  0.746E-02   10.15       1.0  T
   6    -43.6896410 -0.154994E-04  0.208E-02   10.15       1.0  T
   7    -43.6896417 -0.733292E-06  0.718E-03   10.15       2.8  T
   8    -43.6896419 -0.226135E-06  0.220E-03   10.15       9.3  T
   9    -43.6896420 -0.123794E-07  0.916E-04   10.15      22.3  T
  10    -43.6896420 -0.330621E-08  0.350E-04   10.15      58.4  T

   *** convergence criteria satisfied after 10 iterations ***

         #    Occupation            Energy/Eh            Energy/eV
      -------------------------------------------------------------
         1        2.0000           -0.7308593             -19.8877
       ...           ...                  ...                  ...
        30        2.0000           -0.4597403             -12.5102
        31        2.0000           -0.4562187             -12.4143
        32        2.0000           -0.4501850             -12.2502
        33        2.0000           -0.4410083             -12.0004
        34        2.0000           -0.4191611             -11.4060
        35        2.0000           -0.4117108             -11.2032
        36        2.0000           -0.4050542             -11.0221 (HOMO)
        37                         -0.0321120              -0.8738 (LUMO)
        38                          0.0024478               0.0666
        39                          0.0160155               0.4358
        40                          0.0202288               0.5505
        41                          0.0382953               1.0421
       ...                                ...                  ...
        60                          0.2926054               7.9622
      -------------------------------------------------------------
                  HL-Gap            0.3729421 Eh           10.1483 eV
             Fermi-level           -0.2185831 Eh           -5.9479 eV

 SCC (total)                   0 d,  0 h,  0 min,  0.027 sec
 SCC setup                      ...        0 min,  0.001 sec (  5.493%)
 Dispersion                     ...        0 min,  0.000 sec (  0.521%)
 classical contributions        ...        0 min,  0.000 sec (  0.099%)
 integral evaluation            ...        0 min,  0.003 sec (  9.992%)
 iterations                     ...        0 min,  0.015 sec ( 55.984%)
 molecular gradient             ...        0 min,  0.007 sec ( 27.367%)
 printout                       ...        0 min,  0.000 sec (  0.496%)

         :::::::::::::::::::::::::::::::::::::::::::::::::::::
         ::                     SUMMARY                     ::
         :::::::::::::::::::::::::::::::::::::::::::::::::::::
         :: total energy             -43.386584046146 Eh    ::
         :: total w/o Gsasa/hb       -43.371014290084 Eh    ::
         :: gradient norm              0.000098529613 Eh/a0 ::
         :: HOMO-LUMO gap             10.148272291024 eV    ::
         ::.................................................::
         :: SCC energy               -43.689476855155 Eh    ::
         :: -> isotropic ES            0.168511936449 Eh    ::
         :: -> anisotropic ES         -0.005966539463 Eh    ::
         :: -> anisotropic XC         -0.008796225734 Eh    ::
         :: -> dispersion             -0.019421896953 Eh    ::
         :: -> Gsolv                  -0.032898897417 Eh    ::
         ::    -> Gelec               -0.017329141355 Eh    ::
         ::    -> Gsasa                0.005449230608 Eh    ::
         ::    -> Ghb                 -0.023913535830 Eh    ::
         ::    -> Gshift               0.002894549160 Eh    ::
         :: repulsion energy           0.302892809009 Eh    ::
         :: add. restraining           0.000000000000 Eh    ::
         :: total charge               0.000000000000 e     ::
         :::::::::::::::::::::::::::::::::::::::::::::::::::::

           -------------------------------------------------
          |                Property Printout                |
           -------------------------------------------------

    * Orbital Energies and Occupations

         #    Occupation            Energy/Eh            Energy/eV
      -------------------------------------------------------------
         1        2.0000           -0.7308593             -19.8877
       ...           ...                  ...                  ...
        24        2.0000           -0.5189903             -14.1224
        25        2.0000           -0.5129637             -13.9585
        26        2.0000           -0.4987115             -13.5706
        27        2.0000           -0.4899253             -13.3315
        28        2.0000           -0.4791798             -13.0391
        29        2.0000           -0.4748472             -12.9212
        30        2.0000           -0.4597403             -12.5102
        31        2.0000           -0.4562187             -12.4143
        32        2.0000           -0.4501850             -12.2502
        33        2.0000           -0.4410083             -12.0004
        34        2.0000           -0.4191611             -11.4060
        35        2.0000           -0.4117108             -11.2032
        36        2.0000           -0.4050542             -11.0221 (HOMO)
        37                         -0.0321120              -0.8738 (LUMO)
        38                          0.0024478               0.0666
        39                          0.0160155               0.4358
        40                          0.0202288               0.5505
        41                          0.0382953               1.0421
        42                          0.0704565               1.9172
        43                          0.0756086               2.0574
        44                          0.0861447               2.3441
        45                          0.1011621               2.7528
        46                          0.1069669               2.9107
        47                          0.1272016               3.4613
       ...                                ...                  ...
        60                          0.2926054               7.9622
      -------------------------------------------------------------
                  HL-Gap            0.3729421 Eh           10.1483 eV
             Fermi-level           -0.2185831 Eh           -5.9479 eV

     #   Z          covCN         q      C6AA      α(0)
     1   6 C        3.674     0.066    19.692     6.359
     2   6 C        3.741     0.084    19.264     6.262
     3   1 H        0.924     0.065     2.144     2.290
     4   6 C        3.729     0.090    19.179     6.252
     5   1 H        0.924     0.053     2.281     2.362
     6   6 C        3.730     0.095    19.108     6.240
     7   1 H        0.923     0.051     2.304     2.374
     8   6 C        3.727     0.081    19.325     6.276
     9   1 H        0.924     0.069     2.093     2.262
    10   6 C        3.616     0.226    17.486     6.033
    11   1 H        0.923     0.053     2.278     2.360
    12   8 O        1.699    -0.370    20.263     6.078
    13   8 O        1.656    -0.510    23.102     6.488
    14   8 O        1.656    -0.493    22.744     6.438
    15   8 O        1.656    -0.490    22.672     6.428
    16   8 O        1.655    -0.491    22.704     6.432
    17   8 O        1.655    -0.499    22.868     6.456
    18   1 H        0.924     0.063     2.162     2.300
    19   1 H        0.923     0.039     2.461     2.453
    20   1 H        0.804     0.382     0.519     1.132
    21   1 H        0.804     0.361     0.563     1.179
    22   1 H        0.805     0.359     0.569     1.185
    23   1 H        0.804     0.362     0.560     1.176
    24   1 H        0.804     0.353     0.582     1.198

 Mol. C6AA /au·bohr⁶  :       4704.384517
 Mol. C8AA /au·bohr⁸  :     100453.865130
 Mol. α(0) /au        :         98.012429


Wiberg/Mayer (AO) data.
largest (>0.10) Wiberg bond orders for each atom

 ---------------------------------------------------------------------------
     #   Z sym  total        # sym  WBO       # sym  WBO       # sym  WBO
 ---------------------------------------------------------------------------
     1   6 C    3.956 --    17 O    1.007     2 C    0.974    18 H    0.970
                            19 H    0.966
     2   6 C    3.939 --     1 C    0.974     4 C    0.964     3 H    0.957
                            12 O    0.956
     3   1 H    0.996 --     2 C    0.957
     4   6 C    3.958 --    16 O    1.002     2 C    0.964     6 C    0.961
                             5 H    0.956
     5   1 H    0.997 --     4 C    0.956
     6   6 C    3.960 --    15 O    1.007     8 C    0.963     4 C    0.961
                             7 H    0.956
     7   1 H    0.997 --     6 C    0.956
     8   6 C    3.957 --    14 O    1.008     6 C    0.963     9 H    0.955
                            10 C    0.945
     9   1 H    0.995 --     8 C    0.955
    10   6 C    3.925 --    13 O    1.004    12 O    0.965    11 H    0.950
                             8 C    0.945
    11   1 H    0.997 --    10 C    0.950
    12   8 O    2.066 --    10 C    0.965     2 C    0.956
    13   8 O    1.935 --    10 C    1.004    20 H    0.838
    14   8 O    1.938 --     8 C    1.008    21 H    0.852
    15   8 O    1.943 --     6 C    1.007    22 H    0.854
    16   8 O    1.944 --     4 C    1.002    23 H    0.851
    17   8 O    1.922 --     1 C    1.007    24 H    0.852
    18   1 H    0.996 --     1 C    0.970
    19   1 H    0.998 --     1 C    0.966
    20   1 H    0.854 --    13 O    0.838
    21   1 H    0.870 --    14 O    0.852
    22   1 H    0.871 --    15 O    0.854
    23   1 H    0.869 --    16 O    0.851
    24   1 H    0.876 --    17 O    0.852
 ---------------------------------------------------------------------------

Topologies differ in total number of bonds
Writing topology from bond orders to xtbtopo.mol

molecular dipole:
                 x           y           z       tot (Debye)
 q only:        0.307      -0.082       0.066
   full:        0.448      -0.196       0.151       1.301
molecular quadrupole (traceless):
                xx          xy          yy          xz          yz          zz
 q only:      -11.970      -7.245       6.390       0.952       2.159       5.580
  q+dip:      -18.317      -8.465       7.863       0.303       2.649      10.454
   full:      -17.560      -8.906       8.047       0.708       2.558       9.513


           -------------------------------------------------
          | TOTAL ENERGY              -43.386584046146 Eh   |
          | GRADIENT NORM               0.000098529613 Eh/α |
          | HOMO-LUMO GAP              10.148272291024 eV   |
           -------------------------------------------------

------------------------------------------------------------------------
 * finished run on 2025/04/06 at 18:00:40.181     
------------------------------------------------------------------------
 total:
 * wall-time:     0 d,  0 h,  0 min,  0.059 sec
 *  cpu-time:     0 d,  0 h,  0 min,  0.029 sec
 * ratio c/w:     0.497 speedup
 SCF:
 * wall-time:     0 d,  0 h,  0 min,  0.027 sec
 *  cpu-time:     0 d,  0 h,  0 min,  0.020 sec
 * ratio c/w:     0.745 speedup

