
                                 *****************
                                 * O   R   C   A *
                                 *****************

                                            #,                                       
                                            ###                                      
                                            ####                                     
                                            #####                                    
                                            ######                                   
                                           ########,                                 
                                     ,,################,,,,,                         
                               ,,#################################,,                 
                          ,,##########################################,,             
                       ,#########################################, ''#####,          
                    ,#############################################,,   '####,        
                  ,##################################################,,,,####,       
                ,###########''''           ''''###############################       
              ,#####''   ,,,,##########,,,,          '''####'''          '####       
            ,##' ,,,,###########################,,,                        '##       
           ' ,,###''''                  '''############,,,                           
         ,,##''                                '''############,,,,        ,,,,,,###''
      ,#''                                            '''#######################'''  
     '                                                          ''''####''''         
             ,#######,   #######,   ,#######,      ##                                
            ,#'     '#,  ##    ##  ,#'     '#,    #''#        ,####,   ,####,        
            ##       ##  ##   ,#'  ##            #'  '#       #'       #'  '#        
            ##       ##  #######   ##           ,######,      #####,   #    #        
            '#,     ,#'  ##    ##  '#,     ,#' ,#      #,     #,   #   #,  ,#        
             '#######'   ##     ##  '#######'  #'      '#     '####' # '####'        



                #########################################################
                #                        -***-                          #
                #          Department of theory and spectroscopy        #
                #                                                       #
                #                      Frank Neese                      #
                #                                                       #
                #     Directorship, Architecture, Infrastructure        #
                #                    SHARK, DRIVERS                     #
                #        Core code/Algorithms in most modules           #
                #                                                       #
                #        Max Planck Institute fuer Kohlenforschung      #
                #                Kaiser Wilhelm Platz 1                 #
                #                 D-45470 Muelheim/Ruhr                 #
                #                      Germany                          #
                #                                                       #
                #                  All rights reserved                  #
                #                        -***-                          #
                #########################################################


                         Program Version 6.0.0  -   RELEASE  -


 With contributions from (in alphabetic order):
   Daniel Aravena         : Magnetic Suceptibility
   Michael Atanasov       : Ab Initio Ligand Field Theory (pilot matlab implementation)
   Alexander A. Auer      : GIAO ZORA, VPT2 properties, NMR spectrum
   Ute Becker             : All parallelization in ORCA, NUMFREQ, NUMCALC
   Giovanni Bistoni       : ED, misc. LED, open-shell LED, HFLD
   Martin Brehm           : Molecular dynamics
   Dmytro Bykov           : pre 5.0 version of the SCF Hessian
   Marcos Casanova-Páez   : Triplet and SCS-CIS(D). UHF-(DLPNO)-IP/EA/STEOM-CCSD. UHF-CVS-IP/STEOM-CCSD
   Vijay G. Chilkuri      : MRCI spin determinant printing, contributions to CSF-ICE
   Pauline Colinet        : FMM embedding
   Dipayan Datta          : RHF DLPNO-CCSD density
   Achintya Kumar Dutta   : EOM-CC, STEOM-CC
   Nicolas Foglia         : Exact transition moments, OPA infrastructure, MCD improvements
   Dmitry Ganyushin       : Spin-Orbit,Spin-Spin,Magnetic field MRCI
   Miquel Garcia          : C-PCM and meta-GGA Hessian, CCSD/C-PCM, Gaussian charge scheme
   Tiago L. C. Gouveia    : GS-ROHF, GS-ROCIS
   Yang Guo               : DLPNO-NEVPT2, F12-NEVPT2, CIM, IAO-localization
   Andreas Hansen         : Spin unrestricted coupled pair/coupled cluster methods
   Ingolf Harden          : AUTO-CI MPn and infrastructure 
   Benjamin Helmich-Paris : MC-RPA, TRAH-(SCF,CASSCF), AVAS, COSX integrals, SCF dyn. polar.
   Lee Huntington         : MR-EOM, pCC
   Robert Izsak           : Overlap fitted RIJCOSX, COSX-SCS-MP3, EOM
   Riya Kayal             : Wick's Theorem for AUTO-CI, AUTO-CI UHF-CCSDT
   Emily Kempfer          : AUTO-CI, RHF CISDT and CCSDT
   Christian Kollmar      : KDIIS, OOCD, Brueckner-CCSD(T), CCSD density, CASPT2, CASPT2-K, improved NEVPT2
   Axel Koslowski         : Symmetry handling
   Simone Kossmann        : Meta GGA functionals, TD-DFT gradient, OOMP2, (MP2 Hessian; deprecated post 5.0)
   Lucas Lang             : DCDCAS
   Marvin Lechner         : AUTO-CI (C++ implementation), FIC-MRCC
   Spencer Leger          : CASSCF response
   Dagmar Lenk            : GEPOL surface, SMD, ORCA-2-JSON
   Dimitrios Liakos       : Extrapolation schemes; Compound Job, initial MDCI parallelization
   Dimitrios Manganas     : Further ROCIS development; embedding schemes. LFT, Crystal Embedding
   Dimitrios Pantazis     : SARC Basis sets
   Anastasios Papadopoulos: AUTO-CI, single reference methods and gradients
   Taras Petrenko         : pre 6.0 DFT Hessian and TD-DFT gradient, (ASA, deprecated), ECA, 1-Electron XAS/XES, NRVS
   Peter Pinski           : DLPNO-MP2, DLPNO-MP2 Gradient
   Christoph Reimann      : Effective Core Potentials
   Marius Retegan         : Local ZFS, SOC
   Christoph Riplinger    : Optimizer, TS searches, QM/MM, DLPNO-CCSD(T), (RO)-DLPNO pert. Triples
   Michael Roemelt        : Original ROCIS implementation
   Masaaki Saitow         : Open-shell DLPNO-CCSD energy and density
   Barbara Sandhoefer     : DKH picture change effects
   Kantharuban Sivalingam : CASSCF convergence/infrastructure, NEVPT2 and variants, FIC-MRCI
   Bernardo de Souza      : ESD, SOC TD-DFT
   Georgi Stoychev        : AutoAux, RI-MP2 NMR, DLPNO-MP2 response, X2C
   Van Anh Tran           : RI-MP2 g-tensors
   Willem Van den Heuvel  : Paramagnetic NMR
   Zikuan Wang            : NOTCH, Electric field optimization 
   Frank Wennmohs         : Technical directorship and infrastructure
   Hang Xu                : AUTO-CI-Response properties 


 We gratefully acknowledge several colleagues who have allowed us to
 interface, adapt or use parts of their codes:
   Stefan Grimme, W. Hujo, H. Kruse, P. Pracht,  : VdW corrections, initial TS optimization,
                  C. Bannwarth, S. Ehlert,         DFT functionals, gCP, sTDA/sTD-DF
                  L. Wittmann, M. Mueller
   Ed Valeev, F. Pavosevic, A. Kumar             : LibInt (2-el integral package), F12 methods
   Garnet Chan, S. Sharma, J. Yang, R. Olivares  : DMRG
   Ulf Ekstrom                                   : XCFun DFT Library
   Mihaly Kallay                                 : mrcc  (arbitrary order and MRCC methods)
   Frank Weinhold                                : gennbo (NPA and NBO analysis)
   Simon Mueller                                 : openCOSMO-RS
   Christopher J. Cramer and Donald G. Truhlar   : smd solvation model
   Lars Goerigk                                  : TD-DFT with DH, B97 family of functionals
   V. Asgeirsson, H. Jonsson                     : NEB implementation
   FAccTs GmbH                                   : IRC, NEB, NEB-TS, DLPNO-Multilevel, CI-OPT
                                                   MM, QMMM, 2- and 3-layer-ONIOM, Crystal-QMMM,
                                                   LR-CPCM, SF, NACMEs, symmetry and pop. for TD-DFT,
                                                   nearIR, NL-DFT gradient (VV10), updates on ESD,
                                                   ML-optimized integration grids, MBIS, APM,
                                                   GOAT, DOCKER, SOLVATOR, interface openCOSMO-RS
   S Lehtola, MJT Oliveira, MAL Marques          : LibXC Library
   Liviu Ungur et al                             : ANISO software


 Your calculation uses the libint2 library for the computation of 2-el integrals
 For citations please refer to: http://libint.valeyev.net

 Your ORCA version has been built with support for libXC version: 6.2.2
 For citations please refer to: https://libxc.gitlab.io

 This ORCA versions uses:
   CBLAS   interface :  Fast vector & matrix operations
   LAPACKE interface :  Fast linear algebra routines
   SCALAPACK package :  Parallel linear algebra routines
   Shared memory     :  Shared parallel matrices
   BLAS/LAPACK       :  OpenBLAS 0.3.27  USE64BITINT DYNAMIC_ARCH NO_AFFINITY SkylakeX SINGLE_THREADED
        Core in use  :  SkylakeX
   Copyright (c) 2011-2014, The OpenBLAS Project


Your calculation utilizes the geometrical counterpoise correction gCP
Please cite in your paper:
H.Kruse, S. Grimme J.Chem.Phys., 136, (2012), 154101 
   

Your calculation utilizes the DFT-NL dispersion correction.
Cite in your paper:
Vydrov, O. A.; Van Voorhis, T. J. Chem. Phys. 2010, 133, 244103
Hujo, W.; Grimme, S. J. Chem. Theory Comput. 2011, 7, 3866 
   

Your calculation utilizes the SMD solvation module
Please cite in your paper:
A.V. Marenich, C.J. Cramer, D.G. Truhlar J. Phys. Chem. B, 113, (2009), 6378 

================================================================================

----- Orbital basis set information -----
Your calculation utilizes the basis: def2-TZVP
   F. Weigend and R. Ahlrichs, Phys. Chem. Chem. Phys. 7, 3297 (2005).

----- AuxJ basis set information -----
Your calculation utilizes the auxiliary basis: def2/J
   F. Weigend, Phys. Chem. Chem. Phys. 8, 1057 (2006).

================================================================================
                                        WARNINGS
                       Please study these warnings very carefully!
================================================================================


================================================================================
                                       INPUT FILE
================================================================================
NAME = sp_solv.inp
|  1> ! wb97x-v def2-tzvp def2/J RIJCOSX DEFGRID2 scfconv7 GCP(DFT/TZ) printgap
|  2> %output
|  3>     printlevel normal
|  4> end
|  5> %cpcm
|  6>     smd true
|  7>     smdsolvent "water"
|  8> end
|  9> * xyz 0 1
| 10> C -2.6383293504490917 1.497618821704562 0.2389731453220087
| 11> C -1.9630203094107799 0.1554488105134606 -0.016698319052749
| 12> C -0.45508241957717577 0.16802707822472024 0.036312241158715654
| 13> C 0.29832820664766807 1.3130241965779885 0.29673283658832167
| 14> C 1.6933600588955091 1.2829899648155423 0.33377618581509416
| 15> C 2.3628429564100744 0.08534441996919365 0.10684123075278174
| 16> C 1.63893390749704 -1.0754785062696246 -0.15469639760190945
| 17> C 0.24787166179200035 -1.027881703623427 -0.18824695932579397
| 18> O -0.5051132393633204 -2.15365684665715 -0.44550183802689225
| 19> H -2.3426746236455127 2.2470815874485477 -0.5028243485079738
| 20> H -2.3955477255716517 1.8894556690907653 1.232392492986631
| 21> H -3.7245015872523792 1.3831779068816348 0.18265674749789182
| 22> H -2.2726381058313634 -0.22864308390429897 -0.9984734430180304
| 23> H -2.3311611299252366 -0.5835686744316327 0.7080004804249915
| 24> H -0.2127317405559948 2.2532202987080163 0.4752854329981023
| 25> H 2.248709396283743 2.1925058262518804 0.5385760918191755
| 26> H 3.447357009984234 0.04607845061400841 0.1309631446349938
| 27> H 2.1469409647827193 -2.0196636878259175 -0.33451278441846205
| 28> H 0.09054256599916408 -2.903464145506107 -0.5831802095252366
| 29> *
| 30> 
| 31>                          ****END OF INPUT****
================================================================================

                       ****************************
                       * Single Point Calculation *
                       ****************************

---------------------------------
CARTESIAN COORDINATES (ANGSTROEM)
---------------------------------
  C     -2.638329    1.497619    0.238973
  C     -1.963020    0.155449   -0.016698
  C     -0.455082    0.168027    0.036312
  C      0.298328    1.313024    0.296733
  C      1.693360    1.282990    0.333776
  C      2.362843    0.085344    0.106841
  C      1.638934   -1.075479   -0.154696
  C      0.247872   -1.027882   -0.188247
  O     -0.505113   -2.153657   -0.445502
  H     -2.342675    2.247082   -0.502824
  H     -2.395548    1.889456    1.232392
  H     -3.724502    1.383178    0.182657
  H     -2.272638   -0.228643   -0.998473
  H     -2.331161   -0.583569    0.708000
  H     -0.212732    2.253220    0.475285
  H      2.248709    2.192506    0.538576
  H      3.447357    0.046078    0.130963
  H      2.146941   -2.019664   -0.334513
  H      0.090543   -2.903464   -0.583180

----------------------------
CARTESIAN COORDINATES (A.U.)
----------------------------
  NO LB      ZA    FRAG     MASS         X           Y           Z
   0 C     6.0000    0    12.011   -4.985720    2.830089    0.451594
   1 C     6.0000    0    12.011   -3.709571    0.293756   -0.031555
   2 C     6.0000    0    12.011   -0.859981    0.317525    0.068620
   3 C     6.0000    0    12.011    0.563759    2.481256    0.560744
   4 C     6.0000    0    12.011    3.199987    2.424500    0.630746
   5 C     6.0000    0    12.011    4.465126    0.161278    0.201901
   6 C     6.0000    0    12.011    3.097136   -2.032360   -0.292334
   7 C     6.0000    0    12.011    0.468410   -1.942415   -0.355735
   8 O     8.0000    0    15.999   -0.954526   -4.069822   -0.841876
   9 H     1.0000    0     1.008   -4.427013    4.246369   -0.950200
  10 H     1.0000    0     1.008   -4.526929    3.570554    2.328884
  11 H     1.0000    0     1.008   -7.038288    2.613827    0.345171
  12 H     1.0000    0     1.008   -4.294664   -0.432073   -1.886841
  13 H     1.0000    0     1.008   -4.405256   -1.102785    1.337927
  14 H     1.0000    0     1.008   -0.402005    4.257969    0.898159
  15 H     1.0000    0     1.008    4.249445    4.143236    1.017761
  16 H     1.0000    0     1.008    6.514561    0.087076    0.247484
  17 H     1.0000    0     1.008    4.057130   -3.816611   -0.632138
  18 H     1.0000    0     1.008    0.171101   -5.486752   -1.102051

--------------------------------
INTERNAL COORDINATES (ANGSTROEM)
--------------------------------
 C      0   0   0     0.000000000000     0.00000000     0.00000000
 C      1   0   0     1.524083507405     0.00000000     0.00000000
 C      2   1   0     1.508921804438   115.44018305     0.00000000
 C      3   2   1     1.395157646745   123.57754246   359.89723410
 C      4   3   2     1.395846744305   121.80283904   180.16253455
 C      5   4   3     1.390705459464   119.69061338     0.00000000
 C      6   5   4     1.392823071400   119.87910780   359.95421792
 C      7   6   5     1.392280599319   119.69088807     0.05761477
 O      8   7   6     1.378599291548   121.48650159   179.90331091
 H      1   2   3     1.095157375253   111.67943026    60.72215504
 H      1   2   3     1.095153428823   111.65573705   299.62770553
 H      1   2   3     1.093635399780   109.83283816   180.20241151
 H      2   1   3     1.098759371862   109.44365934   237.39017139
 H      2   1   3     1.098573100321   109.46714693   122.74132421
 H      4   3   2     1.084911060770   119.18038015     0.14749767
 H      5   4   3     1.085161273840   119.89699422   179.95676277
 H      6   5   4     1.085492706322   120.56327489   179.91695085
 H      7   6   5     1.087147993739   120.79876141   179.98145750
 H      9   8   7     0.967456540547   108.85428404   359.96360974

---------------------------
INTERNAL COORDINATES (A.U.)
---------------------------
 C      0   0   0     0.000000000000     0.00000000     0.00000000
 C      1   0   0     2.880100434222     0.00000000     0.00000000
 C      2   1   0     2.851448967890   115.44018305     0.00000000
 C      3   2   1     2.636465865993   123.57754246   359.89723410
 C      4   3   2     2.637768071661   121.80283904   180.16253455
 C      5   4   3     2.628052451337   119.69061338     0.00000000
 C      6   5   4     2.632054157954   119.87910780   359.95421792
 C      7   6   5     2.631029034285   119.69088807     0.05761477
 O      8   7   6     2.605175109443   121.48650159   179.90331091
 H      1   2   3     2.069547512772   111.67943026    60.72215504
 H      1   2   3     2.069540055100   111.65573705   299.62770553
 H      1   2   3     2.066671395945   109.83283816   180.20241151
 H      2   1   3     2.076354299899   109.44365934   237.39017139
 H      2   1   3     2.076002297699   109.46714693   122.74132421
 H      4   3   2     2.050184784517   119.18038015     0.14749767
 H      5   4   3     2.050657618694   119.89699422   179.95676277
 H      6   5   4     2.051283935318   120.56327489   179.91695085
 H      7   6   5     2.054411975208   120.79876141   179.98145750
 H      9   8   7     1.828227908105   108.85428404   359.96360974

---------------------
BASIS SET INFORMATION
---------------------
There are 3 groups of distinct atoms

 Group   1 Type C   : 11s6p2d1f contracted to 5s3p2d1f pattern {62111/411/11/1}
 Group   2 Type O   : 11s6p2d1f contracted to 5s3p2d1f pattern {62111/411/11/1}
 Group   3 Type H   : 5s1p contracted to 3s1p pattern {311/1}

Atom   0C    basis set group =>   1
Atom   1C    basis set group =>   1
Atom   2C    basis set group =>   1
Atom   3C    basis set group =>   1
Atom   4C    basis set group =>   1
Atom   5C    basis set group =>   1
Atom   6C    basis set group =>   1
Atom   7C    basis set group =>   1
Atom   8O    basis set group =>   2
Atom   9H    basis set group =>   3
Atom  10H    basis set group =>   3
Atom  11H    basis set group =>   3
Atom  12H    basis set group =>   3
Atom  13H    basis set group =>   3
Atom  14H    basis set group =>   3
Atom  15H    basis set group =>   3
Atom  16H    basis set group =>   3
Atom  17H    basis set group =>   3
Atom  18H    basis set group =>   3
---------------------------------
AUXILIARY/J BASIS SET INFORMATION
---------------------------------
There are 3 groups of distinct atoms

 Group   1 Type C   : 12s5p4d2f1g contracted to 6s4p3d1f1g pattern {711111/2111/211/2/1}
 Group   2 Type O   : 12s5p4d2f1g contracted to 6s4p3d1f1g pattern {711111/2111/211/2/1}
 Group   3 Type H   : 5s2p1d contracted to 3s1p1d pattern {311/2/1}

Atom   0C    basis set group =>   1
Atom   1C    basis set group =>   1
Atom   2C    basis set group =>   1
Atom   3C    basis set group =>   1
Atom   4C    basis set group =>   1
Atom   5C    basis set group =>   1
Atom   6C    basis set group =>   1
Atom   7C    basis set group =>   1
Atom   8O    basis set group =>   2
Atom   9H    basis set group =>   3
Atom  10H    basis set group =>   3
Atom  11H    basis set group =>   3
Atom  12H    basis set group =>   3
Atom  13H    basis set group =>   3
Atom  14H    basis set group =>   3
Atom  15H    basis set group =>   3
Atom  16H    basis set group =>   3
Atom  17H    basis set group =>   3
Atom  18H    basis set group =>   3

Checking for AutoStart:
The File: sp_solv.gbw exists
Trying to determine its content:
     ... Fine, the file contains calculation information
     ... Fine, the calculation information was read
     ... Fine, the file contains a basis set
     ... Fine, the basis set was read
     ... Fine, the file contains a geometry
     ... Fine, the geometry was read
     ... Fine, the file contains a set of orbitals
     ... Fine, the orbitals can be read
     => possible old guess file was deleted
     => GBW file was renamed to GES file
     => GES file is set as startup file
     => Guess is set to MORead
     ... now leaving AutoStart

------------------------------------------------------------------------------
                             ORCA STARTUP CALCULATIONS
                           -- RI-GTO INTEGRALS CHOSEN --
------------------------------------------------------------------------------
------------------------------------------------------------------------------
                   ___                                                        
                  /   \      - P O W E R E D   B Y -                         
                 /     \                                                     
                 |  |  |   _    _      __       _____    __    __             
                 |  |  |  | |  | |    /  \     |  _  \  |  |  /  |          
                  \  \/   | |  | |   /    \    | | | |  |  | /  /          
                 / \  \   | |__| |  /  /\  \   | |_| |  |  |/  /          
                |  |  |   |  __  | /  /__\  \  |    /   |      \           
                |  |  |   | |  | | |   __   |  |    \   |  |\   \          
                \     /   | |  | | |  |  |  |  | |\  \  |  | \   \       
                 \___/    |_|  |_| |__|  |__|  |_| \__\ |__|  \__/        
                                                                              
                      - O R C A' S   B I G   F R I E N D -                    
                                      &                                       
                       - I N T E G R A L  F E E D E R -                       
                                                                              
 v1 FN, 2020, v2 2021, v3 2022-2024                                           
------------------------------------------------------------------------------


----------------------
SHARK INTEGRAL PACKAGE
----------------------

Number of atoms                             ...     19
Number of basis functions                   ...    339
Number of shells                            ...    139
Maximum angular momentum                    ...      3
Integral batch strategy                     ... SHARK/LIBINT Hybrid
RI-J (if used) integral strategy            ... SPLIT-RIJ (Revised 2003 algorithm where possible)
Printlevel                                  ...      1
Contraction scheme used                     ... SEGMENTED contraction
Prescreening option                         ... SCHWARTZ
   Thresh                                   ... 3.000e-11
   Tcut                                     ... 1.000e-12
   Tpresel                                  ... 1.000e-12 
Coulomb Range Separation                    ... NOT USED
Exchange Range Separation                   ... Long Range
   Mu parameter                             ... 3.000e-01
   Scaling (regular/separated)              ... 1.670e-01 8.330e-01
Multipole approximations                    ... NOT USED
Finite Nucleus Model                        ... NOT USED
CABS basis                                  ... NOT available
Auxiliary Coulomb fitting basis             ... AVAILABLE
   # of basis functions in Aux-J            ...    551
   # of shells in Aux-J                     ...    185
   Maximum angular momentum in Aux-J        ...      4
Auxiliary J/K fitting basis                 ... NOT available
Auxiliary Correlation fitting basis         ... NOT available
Auxiliary 'external' fitting basis          ... NOT available

Checking pre-screening integrals            ... done (  0.0 sec) Dimension = 139
Check shell pair data                       ... done (  0.0 sec)
Shell pair information
Shell pair cut-off parameter TPreSel        ...   1.0e-12
Total number of shell pairs                 ...      9730
Shell pairs after pre-screening             ...      8790
Total number of primitive shell pairs       ...     29148
Primitive shell pairs kept                  ...     19653
          la=0 lb=0:   2470 shell pairs
          la=1 lb=0:   2508 shell pairs
          la=1 lb=1:    657 shell pairs
          la=2 lb=0:   1241 shell pairs
          la=2 lb=1:    632 shell pairs
          la=2 lb=2:    163 shell pairs
          la=3 lb=0:    609 shell pairs
          la=3 lb=1:    311 shell pairs
          la=3 lb=2:    155 shell pairs
          la=3 lb=3:     44 shell pairs

Calculating one electron integrals          ... done (  0.0 sec)
Calculating RI/J V-Matrix + Cholesky decomp.... done (  0.1 sec)
Calculating Nuclear repulsion               ... done (  0.0 sec) ENN=    426.105226883881 Eh

Diagonalization of the overlap matrix:
Smallest eigenvalue                        ... 8.524e-06
Time for diagonalization                   ...    0.012 sec
Threshold for overlap eigenvalues          ... 1.000e-07
Number of eigenvalues below threshold      ... 0
Time for construction of square roots      ...    0.019 sec
Total time needed                          ...    0.039 sec

-------------------
DFT GRID GENERATION
-------------------

General Integration Accuracy     IntAcc      ... 4.388
Radial Grid Type                 RadialGrid  ... OptM3 with GC (2021)
Angular Grid (max. ang.)         AngularGrid ... 4 (Lebedev-302)
Angular grid pruning method      GridPruning ... 4 (adaptive)
Weight generation scheme         WeightScheme... mBecke (2022)
Basis function cutoff            BFCut       ... 1.0000e-11
Integration weight cutoff        WCut        ... 1.0000e-14
Partially contracted basis set               ... off
Rotationally invariant grid construction     ... off
Angular grids for H and He will be reduced by one unit

Total number of grid points                  ...    86126
Total number of batches                      ...     1356
Average number of points per batch           ...       63
Average number of grid points per atom       ...     4533

--------------------
COSX GRID GENERATION
--------------------

GRIDX 1
-------
General Integration Accuracy     IntAcc      ... 3.816
Radial Grid Type                 RadialGrid  ... OptM3 with GC (2021)
Angular Grid (max. ang.)         AngularGrid ... 1 (Lebedev-50)
Angular grid pruning method      GridPruning ... 4 (adaptive)
Weight generation scheme         WeightScheme... mBecke (2022)
Basis function cutoff            BFCut       ... 1.0000e-11
Integration weight cutoff        WCut        ... 1.0000e-14
Partially contracted basis set               ... on
Rotationally invariant grid construction     ... off
Angular grids for H and He will be reduced by one unit

Total number of grid points                  ...    11036
Total number of batches                      ...       97
Average number of points per batch           ...      113
Average number of grid points per atom       ...      581
UseSFitting                                  ... on

GRIDX 2
-------
General Integration Accuracy     IntAcc      ... 4.020
Radial Grid Type                 RadialGrid  ... OptM3 with GC (2021)
Angular Grid (max. ang.)         AngularGrid ... 2 (Lebedev-110)
Angular grid pruning method      GridPruning ... 4 (adaptive)
Weight generation scheme         WeightScheme... mBecke (2022)
Basis function cutoff            BFCut       ... 1.0000e-11
Integration weight cutoff        WCut        ... 1.0000e-14
Partially contracted basis set               ... on
Rotationally invariant grid construction     ... off
Angular grids for H and He will be reduced by one unit

Total number of grid points                  ...    23679
Total number of batches                      ...      194
Average number of points per batch           ...      122
Average number of grid points per atom       ...     1246
UseSFitting                                  ... on

GRIDX 3
-------
General Integration Accuracy     IntAcc      ... 4.338
Radial Grid Type                 RadialGrid  ... OptM3 with GC (2021)
Angular Grid (max. ang.)         AngularGrid ... 3 (Lebedev-194)
Angular grid pruning method      GridPruning ... 4 (adaptive)
Weight generation scheme         WeightScheme... mBecke (2022)
Basis function cutoff            BFCut       ... 1.0000e-11
Integration weight cutoff        WCut        ... 1.0000e-14
Partially contracted basis set               ... on
Rotationally invariant grid construction     ... off
Angular grids for H and He will be reduced by one unit

Total number of grid points                  ...    51844
Total number of batches                      ...      416
Average number of points per batch           ...      124
Average number of grid points per atom       ...     2729
UseSFitting                                  ... on
Initializing property integral containers    ... done (  0.0 sec)

SHARK setup successfully completed in   2.5 seconds

Maximum memory used throughout the entire STARTUP-calculation: 52.0 MB
-------------------------------------------------------------------------------
                                 ORCA GUESS
                   Start orbitals & Density for SCF / CASSCF
-------------------------------------------------------------------------------

------------
SCF SETTINGS
------------
Hamiltonian:
 Density Functional     Method          .... DFT(GTOs)
 Exchange Functional    Exchange        .... WB97X-V
 Correlation Functional Correlation     .... WB97X-V
 Gradients option       PostSCFGGA      .... off
 Hybrid DFT is turned on
   Fraction HF Exchange ScalHFX         ....  0.167000
   Scaling of DF-GGA-X  ScalDFX         ....  0.000000
   Scaling of DF-GGA-C  ScalDFC         ....  1.000000
   Scaling of DF-LDA-C  ScalLDAC        ....  1.000000
   Perturbative correction              ....  0.000000
 Long-range corrected/Screened/Range-Separated Hybrid DFT is turned on
   Amount of maximum screened exact exchange              ....  0.833000
   Range separation parameter mu (erf(mu*r12)/r12)        ....  0.300000
   NL short-range parameter             ....  6.000000
   NL long-range parameter              ....  0.010000
 RI-approximation to the Coulomb term is turned on
   Number of AuxJ basis functions       .... 551
   RIJ-COSX (HFX calculated with COS-X)).... on


General Settings:
 Integral files         IntName         .... sp_solv
 Hartree-Fock type      HFTyp           .... RHF
 Total Charge           Charge          ....    0
 Multiplicity           Mult            ....    1
 Number of Electrons    NEL             ....   66
 Basis Dimension        Dim             ....  339
 Nuclear Repulsion      ENuc            ....    426.1052268839 Eh

Convergence Acceleration:
 AO-DIIS                CNVDIIS         .... on
   Start iteration      DIISMaxIt       ....    12
   Startup error        DIISStart       ....  0.200000
   # of expansion vecs  DIISMaxEq       ....     5
   Bias factor          DIISBfac        ....   1.050
   Max. coefficient     DIISMaxC        ....  10.000
 MO-DIIS                CNVKDIIS        .... off
 Trust-Rad. Augm. Hess. CNVTRAH         .... auto
   Auto Start mean grad. ratio tolernc. ....  1.125000
   Auto Start start iteration           ....     1
   Auto Start num. interpolation iter.  ....    10
   Max. Number of Micro iterations      ....    24
   Max. Number of Macro iterations      .... Maxiter - #DIIS iter
   Number of Davidson start vectors     ....     2
   Converg. threshold    (grad. norm)   ....   1.000e-04
   Grad. Scal. Fac. for Micro threshold ....   0.100
   Minimum threshold for Micro iter.    ....   1.000e-02
   NR start threshold (gradient norm)   ....   1.000e-04
   Initial trust radius                 ....   0.400
   Minimum AH scaling param. (alpha)    ....   1.000
   Maximum AH scaling param. (alpha)    .... 1000.000
   Quad. conv. algorithm                .... NR
   White noise on init. David. guess    .... on
   Maximum white noise                  ....   0.010
   Pseudo random numbers                .... off
   Inactive MOs                         .... canonical
   Orbital update algorithm             .... Taylor
   Preconditioner                       .... Diag
   Full preconditioner red. dimension   ....   250
 SOSCF                  CNVSOSCF        .... on
   Start iteration      SOSCFMaxIt      ....   150
   Startup grad/error   SOSCFStart      ....  0.003300
   Hessian update       SOSCFHessUp     .... L-BFGS
 Level Shifting         CNVShift        .... on
   Level shift para.    LevelShift      ....    0.2500
   Turn off err/grad.   ShiftErr        ....    0.0010
 Zerner damping         CNVZerner       .... off
 Static damping         CNVDamp         .... on
   Fraction old density DampFac         ....    0.7000
   Max. Damping (<1)    DampMax         ....    0.9800
   Min. Damping (>=0)   DampMin         ....    0.0000
   Turn off err/grad.   DampErr         ....    0.1000

SCF Procedure:
 Maximum # iterations   MaxIter         ....   125
 SCF integral mode      SCFMode         .... Direct
   Integral package                     .... SHARK and LIBINT hybrid scheme
 Reset frequency        DirectResetFreq ....    20
 Integral Threshold     Thresh          ....  3.000e-11 Eh
 Primitive CutOff       TCut            ....  1.000e-12 Eh

Convergence Tolerance:
 Convergence Check Mode ConvCheckMode   .... Total+1el-Energy
 Convergence forced     ConvForced      .... 0
 Energy Change          TolE            ....  1.000e-07 Eh
 1-El. energy change                    ....  1.000e-04 Eh
 Orbital Gradient       TolG            ....  1.000e-04
 Orbital Rotation angle TolX            ....  1.000e-04
 DIIS Error             TolErr          ....  1.000e-07

---------------------
INITIAL GUESS: MOREAD
---------------------
Guess MOs are being read from file: sp_solv.ges
Input Geometry matches current geometry (good)
Atom 0: N(Shells)= 11 and 9 - projection required
Input basis set needs projection
NBasis(read)= 226
NBasis(calc)= 339
Basis set overlap was calculated
Using GuessMode=FMatrix for the initial guess
C*T matrix was formed
Effective Fockian was calculated
Effective Fockian was diagonalized
Initial density was built
                      ------------------
                      INITIAL GUESS DONE (   0.1 sec)
                      ------------------
             **** ENERGY FILE WAS UPDATED (sp_solv.en.tmp) ****
Finished Guess after   0.3 sec
Maximum memory used throughout the entire GUESS-calculation: 32.9 MB

-------------------------------------------------------------------------------------------
                                      ORCA LEAN-SCF
                              memory conserving SCF solver
-------------------------------------------------------------------------------------------

--------------------
CPCM SOLVATION MODEL
--------------------
CPCM parameters:
  Epsilon                                         ...      78.3550
  Refrac                                          ...       1.3328
  Rsolv                                           ...       1.3000
  Surface type                                    ... GAUSSIAN VDW
  Discretization scheme                           ... Constant charge density
    Threshold for H atoms                         ...       5.0000 (charges/Ang^2)
    Threshold for non-H atoms                     ...       5.0000 (charges/Ang^2)
  Epsilon function type                           ...         CPCM
Solvent:                                          ... WATER
SMD-CDS solvent descriptors:
  Soln                                            ...       1.3328
  Soln25                                          ...       1.3323
  Sola                                            ...       0.0000
  Solb                                            ...       0.0000
  Solg                                            ...       0.0000
  Solc                                            ...       0.0000
  Solh                                            ...       0.0000
Radii:
  Scheme                                          ... Element-dependent radii
  Radius for C  used is    3.4960 Bohr (=   1.8500 Ang.)
  Radius for O  used is    2.8724 Bohr (=   1.5200 Ang.)
  Radius for H  used is    2.2677 Bohr (=   1.2000 Ang.)
Calculating surface                               ...        done! (  0.0s)
Cavity surface points                             ...         1459
Cavity Volume                                     ...     915.3685
Cavity Surface-area                               ...     569.4505
Calculating surface distance matrix               ...        done! (  0.0s)
Performing Cholesky decomposition & store         ...        done! (  0.1s)
Overall time for CPCM initialization              ...                 0.1s

----------------------------------------D-I-I-S--------------------------------------------
Iteration    Energy (Eh)           Delta-E    RMSDP     MaxDP     DIISErr   Damp  Time(sec)
-------------------------------------------------------------------------------------------
               ***  Starting incremental Fock matrix formation  ***
    1    -386.3741893062244799     0.00e+00  1.61e-03  9.63e-02  5.53e-02  0.700  24.1
    2    -386.3795975532766533    -5.41e-03  1.30e-03  7.51e-02  4.01e-02  0.700  12.1
                               ***Turning on AO-DIIS***
    3    -386.3836779156467856    -4.08e-03  1.02e-03  5.64e-02  2.86e-02  0.700  11.8
    4    -386.3866813065636734    -3.00e-03  2.46e-03  1.34e-01  2.01e-02  0.000  11.6
                              *** Initializing SOSCF ***
---------------------------------------S-O-S-C-F--------------------------------------
Iteration    Energy (Eh)           Delta-E    RMSDP     MaxDP     MaxGrad    Time(sec)
--------------------------------------------------------------------------------------
    5    -386.3943118939359920    -7.63e-03  7.76e-05  3.69e-03  1.45e-03    12.1
               *** Restarting incremental Fock matrix formation ***
    6    -386.3943302772196375    -1.84e-05  3.82e-05  1.21e-03  5.03e-04    23.8
    7    -386.3943361219481858    -5.84e-06  2.72e-05  1.08e-03  1.52e-04    18.0
    8    -386.3943369179341971    -7.96e-07  5.72e-06  2.19e-04  8.05e-05    17.3
    9    -386.3943371504159359    -2.32e-07  1.82e-06  5.56e-05  2.83e-05    15.6
   10    -386.3943371665519635    -1.61e-08  1.59e-06  5.80e-05  5.92e-06    14.2
                 **** Energy Check signals convergence ****

               *****************************************************
               *                     SUCCESS                       *
               *           SCF CONVERGED AFTER  10 CYCLES          *
               *****************************************************


------------------
NL GRID GENERATION
------------------

General Integration Accuracy     IntAcc      ... 4.004
Radial Grid Type                 RadialGrid  ... OptM3 with GC (2021)
Angular Grid (max. ang.)         AngularGrid ... 2 (Lebedev-110)
Angular grid pruning method      GridPruning ... 4 (adaptive)
Weight generation scheme         WeightScheme... mBecke (2022)
Basis function cutoff            BFCut       ... 1.0000e-10
Integration weight cutoff        WCut        ... 1.0000e-14
Partially contracted basis set               ... off
Rotationally invariant grid construction     ... off
Angular grids for H and He will be reduced by one unit

Total number of grid points                  ...    26827
Total number of batches                      ...      428
Average number of points per batch           ...       62
Average number of grid points per atom       ...     1412
Final grid set up in    0.2 sec

-------------------------------------------------------------------------------
                    post-SCF DFT-NL dispersion correction                      
-------------------------------------------------------------------------------

SCF Energy:     -386.394337167 
NL    Energy:      0.250096895 
SC+NL Energy:   -386.144240271 
NL done in  :              2.8 sec
-------------------------------------------------------------------------------
Recomputing exchange energy using gridx3       ... done (   41.497 sec)
Old exchange energy                            :    -17.491726205 Eh
New exchange energy                            :    -17.491726053 Eh
Exchange energy change after final integration :      0.000000152 Eh
Total energy after final integration           :   -386.144240119 Eh

SMD CDS free energy correction energy :                 3.83957     Kcal/mol
Total Energy after SMD CDS correction =              -386.138121374 Eh
             **** ENERGY FILE WAS UPDATED (sp_solv.en.tmp) ****

----------------
TOTAL SCF ENERGY
----------------

Total Energy       :       -386.13812137375083 Eh          -10507.35247 eV

Components:
Nuclear Repulsion  :        426.10522688388073 Eh           11594.91270 eV
Electronic Energy  :       -812.48255756997526 Eh          -22108.77438 eV
One Electron Energy:      -1366.68036501305301 Eh          -37189.26340 eV
Two Electron Energy:        554.19780744307775 Eh           15080.48902 eV
CPCM Dielectric    :         -0.01700648045749 Eh              -0.46277 eV
SMD CDS (Gcds)     :          0.00611874544598 Eh               0.16650 eV

Virial components:
Potential Energy   :       -770.69202413643734 Eh          -20971.59615 eV
Kinetic Energy     :        384.55390276268650 Eh           10464.24369 eV
Virial Ratio       :          2.00411962692274

DFT components:
N(Alpha)           :       32.999989796975 electrons
N(Beta)            :       32.999989796975 electrons
N(Total)           :       65.999979593949 electrons
E(X)               :      -35.765571900242 Eh       
E(C)               :       -2.717880377653 Eh       
NL Energy, E(C,NL) :        0.250096895197 Eh       
E(XC)              :      -38.233355382699 Eh       

CPCM Solvation Model Properties:
Surface-charge          :         -0.05040191787980
Corrected charge        :          0.00000000000000
Outlying charge corr.   :          0.00019334428499 Eh               0.00526 eV
Free-energy (cav+disp)  :          0.00611874544598 Eh               0.16650 eV

---------------
SCF CONVERGENCE
---------------

  Last Energy change         ...    1.6136e-08  Tolerance :   1.0000e-07
  Last MAX-Density change    ...    5.7966e-05  Tolerance :   1.0000e-05
  Last RMS-Density change    ...    1.5871e-06  Tolerance :   1.0000e-06
  Last DIIS Error            ...    1.4468e-03  Tolerance :   1.0000e-07
  Last Orbital Gradient      ...    5.9229e-06  Tolerance :   1.0000e-04
  Last Orbital Rotation      ...    1.5517e-05  Tolerance :   1.0000e-04


----------------
ORBITAL ENERGIES
----------------

  NO   OCC          E(Eh)            E(eV) 
   0   2.0000     -21.700203      -590.4925 
   1   2.0000     -12.109017      -329.5031 
   2   2.0000     -12.054188      -328.0111 
   3   2.0000     -12.049141      -327.8738 
   4   2.0000     -12.046810      -327.8104 
   5   2.0000     -12.045634      -327.7784 
   6   2.0000     -12.042463      -327.6921 
   7   2.0000     -12.040831      -327.6477 
   8   2.0000     -12.027937      -327.2968 
   9   2.0000      -1.713387       -46.6236 
  10   2.0000      -1.384744       -37.6808 
  11   2.0000      -1.303124       -35.4598 
  12   2.0000      -1.273782       -34.6614 
  13   2.0000      -1.237512       -33.6744 
  14   2.0000      -1.151865       -31.3438 
  15   2.0000      -1.134427       -30.8693 
  16   2.0000      -1.071032       -29.1443 
  17   2.0000      -1.054943       -28.7065 
  18   2.0000      -1.003883       -27.3170 
  19   2.0000      -0.947059       -25.7708 
  20   2.0000      -0.938450       -25.5365 
  21   2.0000      -0.936040       -25.4709 
  22   2.0000      -0.890885       -24.2422 
  23   2.0000      -0.878446       -23.9037 
  24   2.0000      -0.863656       -23.5013 
  25   2.0000      -0.832845       -22.6629 
  26   2.0000      -0.824164       -22.4266 
  27   2.0000      -0.802301       -21.8317 
  28   2.0000      -0.779618       -21.2145 
  29   2.0000      -0.779449       -21.2099 
  30   2.0000      -0.752333       -20.4720 
  31   2.0000      -0.638134       -17.3645 
  32   2.0000      -0.630583       -17.1590 
  33   0.0000      -0.244156        -6.6438 
  34   0.0000      -0.237546        -6.4639 
  35   0.0000      -0.143583        -3.9071 
  36   0.0000      -0.069850        -1.9007 
  37   0.0000      -0.037655        -1.0246 
  38   0.0000      -0.025896        -0.7047 
  39   0.0000      -0.012594        -0.3427 
  40   0.0000       0.002204         0.0600 
  41   0.0000       0.015329         0.4171 
  42   0.0000       0.025172         0.6850 
  43   0.0000       0.042912         1.1677 
*Only the first 10 virtual orbitals were printed.

                    ********************************
                    * MULLIKEN POPULATION ANALYSIS *
                    ********************************

-----------------------
MULLIKEN ATOMIC CHARGES
-----------------------
   0 C :   -0.401074
   1 C :   -0.149315
   2 C :   -0.014212
   3 C :   -0.205700
   4 C :   -0.219931
   5 C :   -0.154292
   6 C :   -0.270096
   7 C :    0.226320
   8 O :   -0.468725
   9 H :    0.129165
  10 H :    0.128999
  11 H :    0.138154
  12 H :    0.118212
  13 H :    0.118446
  14 H :    0.168062
  15 H :    0.157098
  16 H :    0.162229
  17 H :    0.162428
  18 H :    0.374234
Sum of atomic charges:    0.0000000

--------------------------------
MULLIKEN REDUCED ORBITAL CHARGES
--------------------------------
  0 C s       :     3.252067  s :     3.252067
      pz      :     1.057619  p :     3.083161
      px      :     1.064542
      py      :     0.961000
      dz2     :     0.009296  d :     0.062322
      dxz     :     0.002326
      dyz     :     0.022786
      dx2y2   :     0.019113
      dxy     :     0.008801
      f0      :     0.000449  f :     0.003524
      f+1     :     0.000255
      f-1     :     0.000734
      f+2     :     0.000222
      f-2     :     0.000320
      f+3     :     0.000768
      f-3     :     0.000775

  1 C s       :     3.157285  s :     3.157285
      pz      :     1.028239  p :     2.887664
      px      :     0.865529
      py      :     0.993896
      dz2     :     0.009669  d :     0.098873
      dxz     :     0.017757
      dyz     :     0.023360
      dx2y2   :     0.024723
      dxy     :     0.023364
      f0      :     0.000698  f :     0.005493
      f+1     :     0.000392
      f-1     :     0.000708
      f+2     :     0.000757
      f-2     :     0.000329
      f+3     :     0.001029
      f-3     :     0.001580

  2 C s       :     3.267854  s :     3.267854
      pz      :     0.964302  p :     2.607553
      px      :     0.841543
      py      :     0.801707
      dz2     :     0.006973  d :     0.128925
      dxz     :     0.026384
      dyz     :     0.019648
      dx2y2   :     0.032674
      dxy     :     0.043246
      f0      :     0.001435  f :     0.009880
      f+1     :     0.000914
      f-1     :     0.000968
      f+2     :     0.001028
      f-2     :     0.001065
      f+3     :     0.001372
      f-3     :     0.003099

  3 C s       :     3.201291  s :     3.201291
      pz      :     0.972524  p :     2.903123
      px      :     0.963207
      py      :     0.967392
      dz2     :     0.005423  d :     0.093766
      dxz     :     0.021358
      dyz     :     0.009708
      dx2y2   :     0.025501
      dxy     :     0.031776
      f0      :     0.001331  f :     0.007520
      f+1     :     0.000642
      f-1     :     0.000797
      f+2     :     0.000972
      f-2     :     0.000548
      f+3     :     0.001121
      f-3     :     0.002110

  4 C s       :     3.213090  s :     3.213090
      pz      :     1.008882  p :     2.910384
      px      :     0.928558
      py      :     0.972943
      dz2     :     0.004571  d :     0.089110
      dxz     :     0.018763
      dyz     :     0.009763
      dx2y2   :     0.023486
      dxy     :     0.032527
      f0      :     0.001389  f :     0.007347
      f+1     :     0.000589
      f-1     :     0.000789
      f+2     :     0.000984
      f-2     :     0.000476
      f+3     :     0.001008
      f-3     :     0.002113

  5 C s       :     3.179579  s :     3.179579
      pz      :     0.963153  p :     2.876608
      px      :     0.992778
      py      :     0.920677
      dz2     :     0.006520  d :     0.090673
      dxz     :     0.006214
      dyz     :     0.023450
      dx2y2   :     0.034181
      dxy     :     0.020309
      f0      :     0.001233  f :     0.007432
      f+1     :     0.000755
      f-1     :     0.000914
      f+2     :     0.000309
      f-2     :     0.001141
      f+3     :     0.001048
      f-3     :     0.002031

  6 C s       :     3.261805  s :     3.261805
      pz      :     1.032446  p :     2.920051
      px      :     0.912612
      py      :     0.974993
      dz2     :     0.006495  d :     0.080930
      dxz     :     0.018121
      dyz     :     0.008964
      dx2y2   :     0.025680
      dxy     :     0.021670
      f0      :     0.001390  f :     0.007310
      f+1     :     0.000646
      f-1     :     0.000843
      f+2     :     0.000902
      f-2     :     0.000538
      f+3     :     0.001075
      f-3     :     0.001915

  7 C s       :     3.026905  s :     3.026905
      pz      :     0.920916  p :     2.559360
      px      :     0.868383
      py      :     0.770062
      dz2     :     0.008991  d :     0.171945
      dxz     :     0.030386
      dyz     :     0.034503
      dx2y2   :     0.049264
      dxy     :     0.048800
      f0      :     0.002079  f :     0.015470
      f+1     :     0.001014
      f-1     :     0.001483
      f+2     :     0.001464
      f-2     :     0.002244
      f+3     :     0.001948
      f-3     :     0.005238

  8 O s       :     3.752076  s :     3.752076
      pz      :     1.819383  p :     4.684242
      px      :     1.580906
      py      :     1.283953
      dz2     :     0.004181  d :     0.030747
      dxz     :     0.003800
      dyz     :     0.003043
      dx2y2   :     0.004222
      dxy     :     0.015501
      f0      :     0.000247  f :     0.001660
      f+1     :     0.000196
      f-1     :     0.000380
      f+2     :     0.000071
      f-2     :     0.000169
      f+3     :     0.000398
      f-3     :     0.000198

  9 H s       :     0.850240  s :     0.850240
      pz      :     0.007733  p :     0.020595
      px      :     0.004668
      py      :     0.008194

 10 H s       :     0.850406  s :     0.850406
      pz      :     0.010856  p :     0.020595
      px      :     0.004480
      py      :     0.005260

 11 H s       :     0.840797  s :     0.840797
      pz      :     0.004246  p :     0.021050
      px      :     0.012620
      py      :     0.004184

 12 H s       :     0.860577  s :     0.860577
      pz      :     0.011006  p :     0.021211
      px      :     0.004764
      py      :     0.005441

 13 H s       :     0.860330  s :     0.860330
      pz      :     0.007722  p :     0.021224
      px      :     0.005055
      py      :     0.008447

 14 H s       :     0.809469  s :     0.809469
      pz      :     0.004690  p :     0.022469
      px      :     0.006221
      py      :     0.011559

 15 H s       :     0.820964  s :     0.820964
      pz      :     0.005029  p :     0.021938
      px      :     0.006143
      py      :     0.010766

 16 H s       :     0.815949  s :     0.815949
      pz      :     0.004354  p :     0.021822
      px      :     0.013969
      py      :     0.003499

 17 H s       :     0.815604  s :     0.815604
      pz      :     0.004937  p :     0.021968
      px      :     0.005679
      py      :     0.011351

 18 H s       :     0.581771  s :     0.581771
      pz      :     0.014086  p :     0.043995
      px      :     0.013125
      py      :     0.016784


------------------------
MULLIKEN OVERLAP CHARGES
------------------------
B(  0-C ,  1-C ) :   0.6420 B(  0-C ,  2-C ) :  -0.1089 B(  0-C ,  9-H ) :   0.8353 
B(  0-C , 10-H ) :   0.8356 B(  0-C , 11-H ) :   0.8343 B(  0-C , 12-H ) :  -0.0575 
B(  0-C , 13-H ) :  -0.0579 B(  1-C ,  2-C ) :   0.6419 B(  1-C ,  3-C ) :  -0.1570 
B(  1-C ,  7-C ) :  -0.1374 B(  1-C ,  9-H ) :  -0.0726 B(  1-C , 10-H ) :  -0.0736 
B(  1-C , 11-H ) :  -0.0840 B(  1-C , 12-H ) :   0.8284 B(  1-C , 13-H ) :   0.8294 
B(  2-C ,  3-C ) :   0.9377 B(  2-C ,  4-C ) :  -0.0726 B(  2-C ,  5-C ) :  -0.1122 
B(  2-C ,  6-C ) :  -0.0777 B(  2-C ,  7-C ) :   0.8725 B(  2-C ,  8-O ) :  -0.1844 
B(  2-C , 12-H ) :  -0.0775 B(  2-C , 13-H ) :  -0.0777 B(  2-C , 14-H ) :  -0.1004 
B(  3-C ,  4-C ) :   0.9183 B(  3-C ,  6-C ) :  -0.1854 B(  3-C ,  7-C ) :  -0.0749 
B(  3-C , 14-H ) :   0.8760 B(  3-C , 15-H ) :  -0.1023 B(  4-C ,  5-C ) :   0.9262 
B(  4-C ,  7-C ) :  -0.0791 B(  4-C , 14-H ) :  -0.0665 B(  4-C , 15-H ) :   0.8892 
B(  4-C , 16-H ) :  -0.0858 B(  5-C ,  6-C ) :   0.7561 B(  5-C , 15-H ) :  -0.0936 
B(  5-C , 16-H ) :   0.8636 B(  5-C , 17-H ) :  -0.0799 B(  6-C ,  7-C ) :   1.0217 
B(  6-C ,  8-O ) :  -0.1623 B(  6-C , 16-H ) :  -0.0787 B(  6-C , 17-H ) :   0.8785 
B(  7-C ,  8-O ) :   0.7324 B(  7-C , 17-H ) :  -0.0960 B(  7-C , 18-H ) :  -0.0783 
B(  8-O , 18-H ) :   0.6231 B(  9-H , 10-H ) :  -0.0628 B( 12-H , 13-H ) :  -0.0747 



                     *******************************
                     * LOEWDIN POPULATION ANALYSIS *
                     *******************************

----------------------
LOEWDIN ATOMIC CHARGES
----------------------
   0 C :   -0.305244
   1 C :   -0.244365
   2 C :   -0.136698
   3 C :   -0.123077
   4 C :   -0.173643
   5 C :   -0.155962
   6 C :   -0.145983
   7 C :   -0.237851
   8 O :    0.046160
   9 H :    0.121130
  10 H :    0.121143
  11 H :    0.121627
  12 H :    0.146454
  13 H :    0.146358
  14 H :    0.155646
  15 H :    0.148252
  16 H :    0.150943
  17 H :    0.155531
  18 H :    0.209580

-------------------------------
LOEWDIN REDUCED ORBITAL CHARGES
-------------------------------
  0 C s       :     2.825821  s :     2.825821
      pz      :     1.072839  p :     3.189939
      px      :     1.061784
      py      :     1.055316
      dz2     :     0.044442  d :     0.264740
      dxz     :     0.010609
      dyz     :     0.085717
      dx2y2   :     0.082215
      dxy     :     0.041756
      f0      :     0.002573  f :     0.024744
      f+1     :     0.002617
      f-1     :     0.003344
      f+2     :     0.002390
      f-2     :     0.004280
      f+3     :     0.004449
      f-3     :     0.005091

  1 C s       :     2.762699  s :     2.762699
      pz      :     1.027777  p :     3.049192
      px      :     0.989195
      py      :     1.032220
      dz2     :     0.050449  d :     0.394265
      dxz     :     0.065563
      dyz     :     0.084116
      dx2y2   :     0.099109
      dxy     :     0.095027
      f0      :     0.004186  f :     0.038210
      f+1     :     0.003741
      f-1     :     0.003642
      f+2     :     0.005510
      f-2     :     0.005028
      f+3     :     0.006015
      f-3     :     0.010088

  2 C s       :     2.707453  s :     2.707453
      pz      :     0.867288  p :     2.874050
      px      :     0.986017
      py      :     1.020745
      dz2     :     0.037325  d :     0.500046
      dxz     :     0.078669
      dyz     :     0.069460
      dx2y2   :     0.156880
      dxy     :     0.157713
      f0      :     0.004100  f :     0.055148
      f+1     :     0.004165
      f-1     :     0.004257
      f+2     :     0.006771
      f-2     :     0.007420
      f+3     :     0.008968
      f-3     :     0.019467

  3 C s       :     2.755379  s :     2.755379
      pz      :     0.893568  p :     2.935624
      px      :     1.044602
      py      :     0.997454
      dz2     :     0.026669  d :     0.389673
      dxz     :     0.073317
      dyz     :     0.030616
      dx2y2   :     0.115733
      dxy     :     0.143337
      f0      :     0.003101  f :     0.042401
      f+1     :     0.003841
      f-1     :     0.003261
      f+2     :     0.006389
      f-2     :     0.003569
      f+3     :     0.007634
      f-3     :     0.014608

  4 C s       :     2.763489  s :     2.763489
      pz      :     0.923791  p :     2.981533
      px      :     1.045782
      py      :     1.011960
      dz2     :     0.024725  d :     0.385881
      dxz     :     0.065675
      dyz     :     0.033026
      dx2y2   :     0.114202
      dxy     :     0.148253
      f0      :     0.003184  f :     0.042740
      f+1     :     0.003911
      f-1     :     0.003278
      f+2     :     0.006636
      f-2     :     0.002940
      f+3     :     0.007530
      f-3     :     0.015261

  5 C s       :     2.764555  s :     2.764555
      pz      :     0.893230  p :     2.952812
      px      :     0.995766
      py      :     1.063816
      dz2     :     0.031798  d :     0.395156
      dxz     :     0.016381
      dyz     :     0.086872
      dx2y2   :     0.161657
      dxy     :     0.098448
      f0      :     0.002976  f :     0.043439
      f+1     :     0.003476
      f-1     :     0.004144
      f+2     :     0.002291
      f-2     :     0.008228
      f+3     :     0.007665
      f-3     :     0.014658

  6 C s       :     2.761265  s :     2.761265
      pz      :     0.936244  p :     2.973349
      px      :     1.026777
      py      :     1.010328
      dz2     :     0.027005  d :     0.369152
      dxz     :     0.065457
      dyz     :     0.029540
      dx2y2   :     0.122616
      dxy     :     0.124535
      f0      :     0.003250  f :     0.042217
      f+1     :     0.004153
      f-1     :     0.003360
      f+2     :     0.006340
      f-2     :     0.003524
      f+3     :     0.007835
      f-3     :     0.013754

  7 C s       :     2.715099  s :     2.715099
      pz      :     0.859197  p :     2.759688
      px      :     1.016457
      py      :     0.884034
      dz2     :     0.053312  d :     0.669374
      dxz     :     0.103666
      dyz     :     0.111895
      dx2y2   :     0.180552
      dxy     :     0.219949
      f0      :     0.006418  f :     0.093690
      f+1     :     0.006622
      f-1     :     0.008129
      f+2     :     0.010056
      f-2     :     0.014767
      f+3     :     0.015340
      f-3     :     0.032358

  8 O s       :     3.323799  s :     3.323799
      pz      :     1.710000  p :     4.558022
      px      :     1.565533
      py      :     1.282489
      dz2     :     0.007738  d :     0.067483
      dxz     :     0.005896
      dyz     :     0.009731
      dx2y2   :     0.014030
      dxy     :     0.030088
      f0      :     0.000424  f :     0.004536
      f+1     :     0.000281
      f-1     :     0.000709
      f+2     :     0.000177
      f-2     :     0.000564
      f+3     :     0.001137
      f-3     :     0.001245

  9 H s       :     0.818149  s :     0.818149
      pz      :     0.023439  p :     0.060721
      px      :     0.014817
      py      :     0.022464

 10 H s       :     0.818134  s :     0.818134
      pz      :     0.031331  p :     0.060723
      px      :     0.014253
      py      :     0.015138

 11 H s       :     0.817699  s :     0.817699
      pz      :     0.013339  p :     0.060674
      px      :     0.034307
      py      :     0.013029

 12 H s       :     0.795451  s :     0.795451
      pz      :     0.029839  p :     0.058095
      px      :     0.013300
      py      :     0.014956

 13 H s       :     0.795516  s :     0.795516
      pz      :     0.022449  p :     0.058126
      px      :     0.013945
      py      :     0.021732

 14 H s       :     0.784168  s :     0.784168
      pz      :     0.013773  p :     0.060186
      px      :     0.016843
      py      :     0.029570

 15 H s       :     0.792211  s :     0.792211
      pz      :     0.014612  p :     0.059537
      px      :     0.016953
      py      :     0.027972

 16 H s       :     0.789985  s :     0.789985
      pz      :     0.012805  p :     0.059072
      px      :     0.035631
      py      :     0.010636

 17 H s       :     0.784503  s :     0.784503
      pz      :     0.014554  p :     0.059967
      px      :     0.015945
      py      :     0.029467

 18 H s       :     0.639132  s :     0.639132
      pz      :     0.041163  p :     0.151287
      px      :     0.055539
      py      :     0.054585


---------------------------------
LOEWDIN BOND ORDERS (THRESH 0.050000)
---------------------------------
B(  0-C ,  1-C ) :   1.2763 B(  0-C ,  2-C ) :   0.1380 B(  0-C ,  9-H ) :   0.9044 
B(  0-C , 10-H ) :   0.9042 B(  0-C , 11-H ) :   0.9032 B(  0-C , 12-H ) :   0.0744 
B(  0-C , 13-H ) :   0.0744 B(  1-C ,  2-C ) :   1.1438 B(  1-C ,  3-C ) :   0.1606 
B(  1-C ,  7-C ) :   0.1667 B(  1-C ,  9-H ) :   0.0759 B(  1-C , 10-H ) :   0.0759 
B(  1-C , 11-H ) :   0.0830 B(  1-C , 12-H ) :   0.8308 B(  1-C , 13-H ) :   0.8310 
B(  2-C ,  3-C ) :   1.4992 B(  2-C ,  4-C ) :   0.2311 B(  2-C ,  5-C ) :   0.1001 
B(  2-C ,  6-C ) :   0.2179 B(  2-C ,  7-C ) :   1.3826 B(  2-C ,  8-O ) :   0.1410 
B(  2-C , 12-H ) :   0.0803 B(  2-C , 13-H ) :   0.0802 B(  2-C , 14-H ) :   0.0929 
B(  3-C ,  4-C ) :   1.5710 B(  3-C ,  5-C ) :   0.2456 B(  3-C ,  6-C ) :   0.1073 
B(  3-C ,  7-C ) :   0.2369 B(  3-C , 14-H ) :   0.8102 B(  3-C , 15-H ) :   0.0959 
B(  4-C ,  5-C ) :   1.5992 B(  4-C ,  6-C ) :   0.2435 B(  4-C ,  7-C ) :   0.1042 
B(  4-C , 14-H ) :   0.0953 B(  4-C , 15-H ) :   0.8293 B(  4-C , 16-H ) :   0.0952 
B(  5-C ,  6-C ) :   1.5802 B(  5-C ,  7-C ) :   0.2446 B(  5-C , 15-H ) :   0.0959 
B(  5-C , 16-H ) :   0.8272 B(  5-C , 17-H ) :   0.0937 B(  6-C ,  7-C ) :   1.5162 
B(  6-C ,  8-O ) :   0.1453 B(  6-C , 16-H ) :   0.0968 B(  6-C , 17-H ) :   0.8187 
B(  7-C ,  8-O ) :   1.6048 B(  7-C , 17-H ) :   0.0981 B(  7-C , 18-H ) :   0.1004 
B(  8-O , 18-H ) :   0.9792 

------------------------------------------
LOEWDIN REDUCED ORBITAL POPULATIONS PER MO
-------------------------------------------
THRESHOLD FOR PRINTING IS 0.1%%
                      0         1         2         3         4         5   
                 -21.70020 -12.10902 -12.05419 -12.04914 -12.04681 -12.04563
                   2.00000   2.00000   2.00000   2.00000   2.00000   2.00000
                  --------  --------  --------  --------  --------  --------
 1 C  s               0.0       0.0       0.3       0.0       0.3       0.0
 1 C  dx2y2           0.0       0.0       0.1       0.0       0.0       0.0
 2 C  s               0.0       0.0      96.5       0.1       1.7       0.0
 2 C  dxy             0.0       0.1       0.0       0.0       0.1       0.0
 3 C  s               0.0       0.0       1.8       0.0      93.0       1.1
 3 C  dxy             0.0       0.0       0.2       0.0       0.0       0.0
 4 C  s               0.0       0.0       0.0       1.2       3.1       0.5
 4 C  dx2y2           0.0       0.0       0.0       0.1       0.2       0.0
 4 C  dxy             0.0       0.0       0.0       0.1       0.0       0.0
 5 C  s               0.0       0.0       0.1      89.2       0.1       7.9
 5 C  dxy             0.0       0.0       0.0       0.0       0.0       0.2
 6 C  s               0.0       0.0       0.1       8.4       0.7      89.5
 6 C  dx2y2           0.0       0.2       0.0       0.0       0.0       0.0
 6 C  dxy             0.0       0.0       0.0       0.1       0.0       0.0
 7 C  s               0.0      98.9       0.0       0.0       0.0       0.0
 7 C  dx2y2           0.0       0.0       0.0       0.0       0.0       0.2
 7 C  dxy             0.0       0.0       0.1       0.0       0.0       0.0
 8 O  s              99.8       0.0       0.0       0.0       0.0       0.0

                      6         7         8         9        10        11   
                 -12.04246 -12.04083 -12.02794  -1.71339  -1.38474  -1.30312
                   2.00000   2.00000   2.00000   2.00000   2.00000   2.00000
                  --------  --------  --------  --------  --------  --------
 0 C  s               0.2       0.0      99.4       0.0       0.4       5.1
 0 C  px              0.0       0.0       0.0       0.0       0.2       0.7
 0 C  py              0.0       0.0       0.0       0.0       0.2       1.5
 0 C  dxy             0.1       0.0       0.0       0.0       0.0       0.3
 1 C  s              97.9       0.7       0.2       0.0       2.2      12.7
 1 C  px              0.0       0.0       0.0       0.2       1.6       1.0
 1 C  py              0.0       0.0       0.0       0.2       0.0       0.4
 1 C  dz2             0.0       0.0       0.0       0.0       0.1       0.3
 1 C  dx2y2           0.0       0.0       0.0       0.0       0.2       0.2
 2 C  s               0.4       0.1       0.0       0.4      13.0      11.4
 2 C  px              0.1       0.0       0.0       0.0       2.0       3.0
 2 C  py              0.0       0.0       0.0       1.3       0.0       0.0
 2 C  dz2             0.0       0.0       0.0       0.0       0.6       0.3
 2 C  dx2y2           0.1       0.0       0.0       0.3       0.0       0.0
 2 C  f+3             0.0       0.0       0.0       0.0       0.1       0.1
 3 C  s               0.1       2.9       0.0       0.0      10.5       0.7
 3 C  pz              0.0       0.0       0.0       0.0       0.1       0.1
 3 C  px              0.0       0.1       0.0       0.0       0.3       5.4
 3 C  py              0.0       0.0       0.0       0.1       2.8       0.9
 3 C  dz2             0.0       0.1       0.0       0.0       0.5       0.0
 3 C  dx2y2           0.0       0.2       0.0       0.0       0.0       0.3
 3 C  dxy             0.0       0.0       0.0       0.0       0.1       0.8
 4 C  s               0.8      93.3       0.0       0.0       8.9       4.2
 4 C  pz              0.0       0.0       0.0       0.0       0.1       0.1
 4 C  px              0.0       0.0       0.0       0.0       0.9       1.5
 4 C  py              0.0       0.0       0.0       0.0       2.1       1.9
 4 C  dz2             0.0       0.0       0.0       0.0       0.4       0.1
 4 C  dx2y2           0.0       0.0       0.0       0.0       0.0       0.4
 4 C  dxy             0.0       0.0       0.0       0.0       0.0       0.4
 5 C  s               0.0       1.8       0.0       0.0       9.0      11.6
 5 C  px              0.0       0.0       0.0       0.0       3.1       0.8
 5 C  dz2             0.0       0.1       0.0       0.0       0.4       0.2
 5 C  dx2y2           0.0       0.1       0.0       0.0       0.0       0.2
 5 C  dxy             0.0       0.1       0.0       0.0       0.0       0.0
 6 C  s               0.0       0.3       0.0       0.4       9.6       5.9
 6 C  px              0.0       0.0       0.0       1.2       0.8       1.3
 6 C  py              0.0       0.0       0.0       0.1       2.4       1.5
 6 C  dz2             0.0       0.0       0.0       0.1       0.4       0.1
 6 C  dx2y2           0.0       0.0       0.0       0.2       0.0       0.3
 6 C  dxy             0.0       0.0       0.0       0.2       0.0       0.5
 7 C  s               0.0       0.0       0.0       7.0       9.9       0.4
 7 C  pz              0.0       0.0       0.0       0.4       0.2       0.0
 7 C  px              0.0       0.0       0.0       2.9       0.9       6.5
 7 C  py              0.0       0.0       0.0       7.5       4.4       1.7
 7 C  dz2             0.0       0.0       0.0       0.9       0.3       0.0
 7 C  dxz             0.0       0.0       0.0       0.1       0.0       0.0
 7 C  dyz             0.0       0.0       0.0       0.3       0.0       0.0
 7 C  dx2y2           0.0       0.0       0.0       0.6       0.1       0.4
 7 C  dxy             0.0       0.0       0.0       2.6       0.3       0.7
 7 C  f-1             0.0       0.0       0.0       0.1       0.0       0.0
 7 C  f+3             0.0       0.0       0.0       0.4       0.1       0.0
 8 O  s               0.0       0.0       0.0      56.8       0.9       0.1
 8 O  px              0.0       0.0       0.0       1.1       0.3       0.1
 8 O  py              0.0       0.0       0.0       0.1       2.0       1.0
 9 H  s               0.0       0.0       0.0       0.0       0.1       0.8
10 H  s               0.0       0.0       0.0       0.0       0.1       0.8
11 H  s               0.0       0.0       0.0       0.0       0.1       0.9
12 H  s               0.0       0.0       0.0       0.0       0.3       2.2
12 H  pz              0.0       0.0       0.0       0.0       0.0       0.2
13 H  s               0.0       0.0       0.0       0.0       0.3       2.2
13 H  py              0.0       0.0       0.0       0.0       0.0       0.1
14 H  s               0.0       0.0       0.0       0.0       1.2       0.2
15 H  s               0.0       0.0       0.0       0.0       1.0       0.6
16 H  s               0.0       0.0       0.0       0.0       1.0       1.7
16 H  px              0.0       0.0       0.0       0.0       0.1       0.2
17 H  s               0.0       0.0       0.0       0.1       1.1       0.9
18 H  s               0.0       0.0       0.0      10.6       0.5       0.2
18 H  px              0.0       0.0       0.0       1.0       0.1       0.0
18 H  py              0.0       0.0       0.0       1.9       0.0       0.0

                     12        13        14        15        16        17   
                  -1.27378  -1.23751  -1.15186  -1.13443  -1.07103  -1.05494
                   2.00000   2.00000   2.00000   2.00000   2.00000   2.00000
                  --------  --------  --------  --------  --------  --------
 0 C  s               0.2      17.5       0.0      11.6       5.9       0.3
 0 C  pz              0.0       0.1       0.0       0.0       0.2       0.0
 0 C  px              0.0       0.2       0.1       0.5       0.7       0.3
 0 C  py              0.0       1.5       0.0       1.2       4.8       0.1
 0 C  dz2             0.0       0.1       0.0       0.0       0.1       0.0
 0 C  dx2y2           0.0       0.2       0.0       0.0       0.3       0.0
 0 C  dxy             0.0       0.2       0.0       0.2       0.3       0.0
 1 C  s               0.1      12.0       0.1       2.4       7.8       0.0
 1 C  pz              0.0       0.1       0.0       0.2       0.2       0.0
 1 C  px              0.0       2.9       0.1       4.8       0.1       0.1
 1 C  py              0.3       2.3       0.4       4.9       3.5       0.0
 1 C  dz2             0.0       0.0       0.0       0.0       0.4       0.0
 1 C  dx2y2           0.0       0.5       0.0       0.7       0.0       0.0
 1 C  dxy             0.1       0.3       0.3       0.3       0.4       0.3
 2 C  s               0.0       1.9       0.8       4.0       1.5       0.3
 2 C  pz              0.3       0.0       0.3       0.1       0.0       0.3
 2 C  px              0.0       7.2       0.8       3.6       6.0       1.1
 2 C  py              8.1       0.0       5.9       0.8       0.0       8.9
 2 C  dx2y2           0.0       1.4       0.1       0.3       1.3       0.5
 2 C  dxy             2.1       0.2       0.0       0.0       0.1       1.2
 2 C  f-3             0.0       0.0       0.1       0.0       0.0       0.0
 3 C  s              11.6       4.0       2.3       2.5       0.2       4.6
 3 C  pz              0.0       0.0       0.0       0.1       0.2       0.0
 3 C  px              2.3       0.0       4.1       2.2       3.5       3.0
 3 C  py              0.3       0.4       0.6       1.6       3.5       1.4
 3 C  dz2             0.2       0.0       0.0       0.0       0.0       0.0
 3 C  dx2y2           0.9       0.3       0.3       0.0       0.8       0.0
 3 C  dxy             0.0       0.1       0.1       0.1       0.0       0.0
 4 C  s              12.9       0.0       4.9       0.6       2.1       2.2
 4 C  pz              0.0       0.0       0.0       0.1       0.1       0.0
 4 C  px              1.8       3.3       2.8       4.7       1.2       3.0
 4 C  py              0.2       1.1       0.2       2.5       3.0       0.2
 4 C  dz2             0.2       0.0       0.0       0.0       0.0       0.0
 4 C  dx2y2           0.7       0.7       0.1       0.4       0.0       0.1
 4 C  dxy             0.1       0.3       0.2       0.1       0.0       0.1
 4 C  f+3             0.1       0.0       0.0       0.0       0.0       0.0
 5 C  s               0.3       5.9       0.9       4.8       2.2       0.6
 5 C  pz              0.3       0.0       0.3       0.0       0.0       0.4
 5 C  px              0.0       0.2       0.2       0.7       0.5       0.6
 5 C  py              8.2       0.4       7.7       0.0       0.2      10.6
 5 C  dx2y2           0.0       0.2       0.1       0.0       0.1       0.0
 5 C  dxy             1.9       0.1       0.7       0.0       0.0       0.1
 6 C  s               9.1       2.3       4.5       0.3       1.0       2.0
 6 C  pz              0.0       0.0       0.0       0.2       0.2       0.0
 6 C  px              2.7       2.3       0.0       5.0       2.6      10.7
 6 C  py              0.4       0.7       0.4       2.5       3.6       0.1
 6 C  dz2             0.1       0.0       0.0       0.0       0.0       0.0
 6 C  dx2y2           1.0       0.3       0.0       0.3       0.0       0.1
 6 C  dxy             0.0       0.4       0.1       0.0       0.0       0.7
 7 C  s              11.0       1.6       1.2       1.5       0.1       2.1
 7 C  pz              0.0       0.0       0.1       0.1       0.1       0.3
 7 C  px              2.4       1.2      10.3       3.8       4.6       0.9
 7 C  py              0.1       0.8       1.6       3.3       4.6       7.2
 7 C  dx2y2           1.2       0.5       0.1       0.0       0.4       0.4
 7 C  dxy             0.2       0.1       0.4       0.1       0.4       1.4
 7 C  f-3             0.0       0.1       0.0       0.1       0.1       0.2
 8 O  s               1.4       0.1       0.1       0.4       0.8       0.5
 8 O  pz              0.3       0.1       1.3       0.1       0.0       0.5
 8 O  px              1.1       0.0       0.2       2.6       5.7       2.5
 8 O  py              6.1       2.0      30.1       2.6       0.0      14.0
 8 O  dxy             0.3       0.0       0.5       0.2       0.0       0.2
 9 H  s               0.0       3.6       0.0       4.0       3.2       0.1
 9 H  pz              0.0       0.1       0.0       0.2       0.2       0.0
 9 H  py              0.0       0.2       0.0       0.1       0.1       0.0
10 H  s               0.0       3.6       0.0       4.0       3.2       0.1
10 H  pz              0.0       0.3       0.0       0.3       0.3       0.0
11 H  s               0.0       3.8       0.0       4.1       2.8       0.2
11 H  px              0.0       0.4       0.0       0.4       0.2       0.0
12 H  s               0.0       2.6       0.1       1.0       4.1       0.0
12 H  pz              0.0       0.2       0.0       0.1       0.4       0.0
13 H  s               0.0       2.6       0.1       1.0       4.1       0.0
13 H  pz              0.0       0.1       0.0       0.1       0.2       0.0
13 H  py              0.0       0.2       0.0       0.0       0.1       0.0
14 H  s               2.0       0.5       0.7       1.1       0.3       4.1
14 H  py              0.1       0.1       0.1       0.0       0.0       0.3
15 H  s               2.1       0.0       1.6       0.2       1.4       1.2
15 H  px              0.1       0.0       0.0       0.1       0.1       0.0
15 H  py              0.1       0.0       0.2       0.0       0.0       0.1
16 H  s               0.0       1.2       0.3       1.9       1.2       0.7
16 H  px              0.0       0.1       0.0       0.2       0.1       0.1
17 H  s               1.5       0.5       1.4       0.2       1.0       2.2
17 H  px              0.1       0.0       0.0       0.1       0.1       0.0
17 H  py              0.1       0.1       0.1       0.0       0.0       0.3
18 H  s               1.5       0.5       8.1       0.4       0.3       5.1
18 H  px              0.2       0.0       0.5       0.1       0.0       0.1
18 H  py              0.0       0.0       0.1       0.0       0.0       0.0

                     18        19        20        21        22        23   
                  -1.00388  -0.94706  -0.93845  -0.93604  -0.89089  -0.87845
                   2.00000   2.00000   2.00000   2.00000   2.00000   2.00000
                  --------  --------  --------  --------  --------  --------
 0 C  pz              0.0       0.0       0.0       0.1       0.1       0.2
 0 C  px              0.2       0.0       0.6       0.3       0.4       4.4
 0 C  py              0.1       0.0       0.6       2.8       1.9       3.8
 0 C  dx2y2           0.0       0.0       0.0       0.2       0.1       0.1
 1 C  s               0.1       0.0       0.0       0.5       0.1       0.1
 1 C  pz              0.1       0.3       0.0       0.0       0.1       0.1
 1 C  px              0.9       0.0       0.0       7.5       7.9      10.7
 1 C  py              1.3       0.0       0.8       0.3       0.7       0.7
 1 C  dz2             0.0       0.0       0.0       0.2       0.1       0.1
 1 C  dx2y2           0.1       0.0       0.0       0.1       0.1       0.0
 1 C  dxy             0.2       0.0       0.5       0.0       0.0       0.0
 2 C  s               0.5       0.0       0.0       1.1       1.0       0.0
 2 C  pz              0.2       0.7       0.5       0.0       0.0       0.1
 2 C  px              0.3       0.0       0.0       2.7       3.0       9.8
 2 C  py              4.9       0.0      11.8       0.4       0.6       0.7
 2 C  dyz             0.0       0.3       0.0       0.0       0.1       0.0
 2 C  dx2y2           0.3       0.0       0.0       0.1       0.8       0.1
 2 C  dxy             0.1       0.0       0.1       0.3       0.3       0.6
 2 C  f-3             0.0       0.0       0.0       0.0       0.2       0.1
 3 C  s               0.0       0.0       0.0       0.3       1.3       0.2
 3 C  pz              0.1       0.1       0.2       0.1       0.3       0.4
 3 C  px              7.2       0.0       7.4       1.4       3.0       0.9
 3 C  py              0.7       0.0       3.3       3.0       9.2      11.1
 3 C  dz2             0.0       0.0       0.0       0.1       0.0       0.1
 3 C  dx2y2           0.0       0.0       0.1       0.0       1.4       0.0
 3 C  dxy             0.0       0.0       0.0       0.7       0.6       0.5
 3 C  f-3             0.0       0.0       0.1       0.1       0.1       0.1
 4 C  s               0.2       0.0       0.0       1.6       1.0       0.0
 4 C  pz              0.0       0.1       0.1       0.6       0.1       0.0
 4 C  px              4.8       0.0       7.3       7.1       0.6       0.2
 4 C  py              1.6       0.0       4.5      11.6       1.0       0.1
 4 C  dz2             0.0       0.0       0.0       0.0       0.2       0.0
 4 C  dx2y2           0.0       0.0       0.1       0.0       0.3       0.7
 4 C  dxy             0.1       0.0       0.0       0.0       1.1       0.4
 4 C  f-3             0.0       0.0       0.0       0.0       0.0       0.4
 5 C  s               1.6       0.0       0.1       0.4       1.2       0.2
 5 C  pz              0.1       0.0       0.5       0.0       0.0       0.0
 5 C  px              2.8       0.0       1.0       7.2      11.6       7.6
 5 C  py              2.3       0.0      11.7       0.4       0.1       0.4
 5 C  dx2y2           0.0       0.0       0.0       0.8       1.8       0.0
 5 C  dxy             0.0       0.0       0.1       0.1       0.3       0.3
[...]
 6 C  px              0.0       0.1       0.0       0.0       0.1       0.3
 6 C  py              0.0       0.3       0.0       0.3       0.0       0.1
 6 C  dxy             0.0       1.0       0.0       0.2       0.0       0.2
 6 C  f+3             0.0       0.1       0.0       0.0       0.1       0.1
 6 C  f-3             0.0       1.1       0.0       0.0       0.0       0.1
 7 C  s               0.0       1.2       0.0       1.0       1.0       0.7
 7 C  pz              0.0       0.0       0.7       0.0       0.1       0.0
 7 C  px              0.0       0.1       0.0       0.3       1.1       0.1
 7 C  py              0.0       0.4       0.0       0.7       1.0       0.0
 7 C  dz2             0.0       0.2       0.2       0.1       0.1       0.1
 7 C  dxz             0.4       0.0       0.6       0.1       0.0       0.0
 7 C  dyz             0.3       0.0       1.0       0.1       0.1       0.0
 7 C  dx2y2           0.0       0.3       0.0       0.6       0.7       1.6
 7 C  dxy             0.0       0.5       0.0       2.1       0.6       0.4
 7 C  f0              0.0       0.0       0.3       0.0       0.0       0.0
 7 C  f-1             0.0       0.0       0.2       0.0       0.1       0.0
 7 C  f+2             0.1       0.7       0.1       0.0       0.0       0.2
 7 C  f-2             0.0       0.0       0.6       0.0       0.1       0.0
 7 C  f+3             0.0       0.0       0.1       0.0       0.9       0.0
 7 C  f-3             0.0      10.8       0.0       0.3       0.0       2.5
 8 O  s               0.0       1.8       0.0       2.6       0.9       2.9
 8 O  pz              0.1       0.0       1.0       0.0       0.1       0.0
 8 O  px              0.0       0.3       0.0       3.7       0.0       0.2
 8 O  py              0.0       0.0       0.0       0.5       3.2       0.6
 8 O  dz2             1.2      14.8       8.7      39.6       3.8       5.2
 8 O  dxz            71.5       0.3      15.2       0.7       1.5       1.1
 8 O  dyz            18.2       3.4      52.1       1.8       4.7       2.8
 8 O  dx2y2           1.3       7.6       2.1      25.5      31.8      20.2
 8 O  dxy             2.5      14.6       1.1       2.3      38.7      24.1
 8 O  f0              2.1       0.1       2.8       0.0       1.0       0.3
 8 O  f+1             0.0       0.0       1.1       6.2       0.1       0.9
 8 O  f-1             0.3       0.5       2.2       0.0       3.3       1.4
 8 O  f+2             0.4       0.8       0.9       0.1       0.3       0.4
 8 O  f-2             0.4       0.4       7.9       2.1       0.1       1.0
 8 O  f+3             0.0      10.6       0.6       4.5       1.6      10.6
 8 O  f-3             0.0      13.4       0.0       0.7       0.3      13.1
18 H  s               0.0       1.5       0.0       2.2       0.7       6.3
18 H  pz              0.5       0.0       0.0       0.0       0.0       0.0
18 H  px              0.0       0.2       0.0       0.1       0.0       0.2
18 H  py              0.0       1.1       0.0       0.3       0.0       0.2

                    330       331       332       333       334       335   
                  20.50475  20.78979  20.97565  21.04065  21.11147  21.27331
                   0.00000   0.00000   0.00000   0.00000   0.00000   0.00000
                  --------  --------  --------  --------  --------  --------
 0 C  s               0.1      97.4       0.1       0.1       0.3       0.2
 1 C  s               0.7       0.0      44.7      20.6      28.1       1.1
 2 C  s              12.0       0.3       2.9       0.6       0.2      36.5
 2 C  px              0.1       0.0       0.2       0.1       0.0       0.1
 2 C  dx2y2           0.0       0.0       0.2       0.1       0.1       0.0
 3 C  s              16.2       0.3      21.9       0.2       8.7       0.3
 3 C  px              0.1       0.0       0.0       0.4       0.0       0.2
 4 C  s              16.5       0.1       4.1      42.6      15.2      11.3
 4 C  px              0.0       0.0       0.2       0.0       0.2       0.0
 4 C  py              0.1       0.0       0.1       0.0       0.1       0.0
 5 C  s              20.1       0.0      20.9       3.7      37.5       3.8
 5 C  py              0.0       0.0       0.0       0.4       0.1       0.0
 5 C  dxy             0.0       0.0       0.0       0.1       0.0       0.0
 6 C  s              21.0       0.2       0.7      29.3       5.5      32.5
 6 C  px              0.0       0.0       0.1       0.1       0.2       0.1
 6 C  py              0.1       0.0       0.1       0.0       0.0       0.0
 7 C  s              11.4       0.0       3.0       0.7       2.2      12.0
 7 C  px              0.1       0.0       0.0       0.0       0.3       0.3
 7 C  py              0.1       0.0       0.0       0.0       0.1       0.2
 7 C  dx2y2           0.0       0.0       0.0       0.0       0.0       0.1
 7 C  dxy             0.1       0.0       0.0       0.0       0.0       0.1
 8 O  s               0.2       0.0       0.0       0.0       0.0       0.1
 9 H  s               0.0       0.2       0.0       0.0       0.0       0.0
10 H  s               0.0       0.2       0.0       0.0       0.0       0.0
11 H  s               0.0       0.2       0.0       0.0       0.0       0.0
11 H  px              0.0       0.1       0.0       0.0       0.0       0.0
12 H  s               0.0       0.0       0.1       0.1       0.1       0.0
13 H  s               0.0       0.0       0.1       0.1       0.1       0.0
14 H  s               0.1       0.0       0.0       0.0       0.0       0.0
16 H  s               0.1       0.0       0.0       0.0       0.1       0.0

                    336       337       338   
                  21.29434  21.78471  41.60593
                   0.00000   0.00000   0.00000
                  --------  --------  --------
 0 C  s               0.2       0.1       0.0
 1 C  s               2.5       0.2       0.0
 2 C  s               0.4      45.3       0.0
 2 C  px              0.0       0.1       0.0
 2 C  py              0.5       0.1       0.0
 2 C  dx2y2           0.0       0.1       0.0
 2 C  dxy             0.4       0.0       0.0
 3 C  s              44.7       5.5       0.0
 4 C  s               4.9       3.3       0.0
 5 C  s               7.6       4.3       0.0
 6 C  s               5.1       3.7       0.0
 7 C  s              32.3      35.7       0.0
 7 C  px              0.1       0.1       0.0
 8 O  s               0.1       0.1      99.7
14 H  s               0.1       0.0       0.0


                      *****************************
                      * MAYER POPULATION ANALYSIS *
                      *****************************

  NA   - Mulliken gross atomic population
  ZA   - Total nuclear charge
  QA   - Mulliken gross atomic charge
  VA   - Mayer's total valence
  BVA  - Mayer's bonded valence
  FA   - Mayer's free valence

  ATOM       NA         ZA         QA         VA         BVA        FA
  0 C      6.4011     6.0000    -0.4011     3.9329     3.9329    -0.0000
  1 C      6.1493     6.0000    -0.1493     3.8796     3.8796    -0.0000
  2 C      6.0142     6.0000    -0.0142     3.6861     3.6861     0.0000
  3 C      6.2057     6.0000    -0.2057     3.8799     3.8799    -0.0000
  4 C      6.2199     6.0000    -0.2199     3.9312     3.9312     0.0000
  5 C      6.1543     6.0000    -0.1543     3.8676     3.8676     0.0000
  6 C      6.2701     6.0000    -0.2701     3.8746     3.8746     0.0000
  7 C      5.7737     6.0000     0.2263     3.9663     3.9663     0.0000
  8 O      8.4687     8.0000    -0.4687     2.0269     2.0269     0.0000
  9 H      0.8708     1.0000     0.1292     0.9665     0.9665    -0.0000
 10 H      0.8710     1.0000     0.1290     0.9665     0.9665    -0.0000
 11 H      0.8618     1.0000     0.1382     0.9682     0.9682    -0.0000
 12 H      0.8818     1.0000     0.1182     0.9656     0.9656    -0.0000
 13 H      0.8816     1.0000     0.1184     0.9656     0.9656    -0.0000
 14 H      0.8319     1.0000     0.1681     0.9600     0.9600    -0.0000
 15 H      0.8429     1.0000     0.1571     0.9655     0.9655    -0.0000
 16 H      0.8378     1.0000     0.1622     0.9616     0.9616     0.0000
 17 H      0.8376     1.0000     0.1624     0.9710     0.9710     0.0000
 18 H      0.6258     1.0000     0.3742     0.8742     0.8742     0.0000

  Mayer bond orders larger than 0.100000
B(  0-C ,  1-C ) :   0.9944 B(  0-C ,  9-H ) :   0.9764 B(  0-C , 10-H ) :   0.9765 
B(  0-C , 11-H ) :   0.9792 B(  1-C ,  2-C ) :   0.9736 B(  1-C , 12-H ) :   0.9587 
B(  1-C , 13-H ) :   0.9590 B(  2-C ,  3-C ) :   1.3865 B(  2-C ,  7-C ) :   1.3364 
B(  3-C ,  4-C ) :   1.4177 B(  3-C , 14-H ) :   0.9669 B(  4-C ,  5-C ) :   1.4201 
B(  4-C , 15-H ) :   0.9827 B(  5-C ,  6-C ) :   1.3761 B(  5-C , 16-H ) :   0.9701 
B(  6-C ,  7-C ) :   1.4233 B(  6-C , 17-H ) :   0.9749 B(  7-C ,  8-O ) :   1.1354 
B(  8-O , 18-H ) :   0.8488 

-------
TIMINGS
-------

Total SCF time: 0 days 0 hours 3 min 25 sec 

Total time                  ....     205.957 sec
Sum of individual times     ....     202.626 sec  ( 98.4%)

SCF preparation             ....       0.390 sec  (  0.2%)
Fock matrix formation       ....     200.706 sec  ( 97.5%)
  Startup                   ....       0.067 sec  (  0.0% of F)
  Split-RI-J                ....       8.076 sec  (  4.0% of F)
  Chain of spheres X        ....     166.328 sec  ( 82.9% of F)
  XC integration            ....      19.525 sec  (  9.7% of F)
    XC Preparation          ....       0.000 sec  (  0.0% of XC)
    Basis function eval.    ....       4.386 sec  ( 22.5% of XC)
    Density eval.           ....       4.007 sec  ( 20.5% of XC)
    XC-Functional eval.     ....       3.956 sec  ( 20.3% of XC)
    XC-Potential eval.      ....       6.295 sec  ( 32.2% of XC)
  CPCM terms                ....       8.917 sec  (  4.4% of F)
Diagonalization             ....       0.000 sec  (  0.0%)
Density matrix formation    ....       0.233 sec  (  0.1%)
Total Energy calculation    ....       0.064 sec  (  0.0%)
Population analysis         ....       0.230 sec  (  0.1%)
Orbital Transformation      ....       0.089 sec  (  0.0%)
Orbital Orthonormalization  ....       0.000 sec  (  0.0%)
DIIS solution               ....       0.393 sec  (  0.2%)
  MO trafo                  ....       0.000 sec  (  0.0 % of DIIS)
  Orb grad                  ....       0.000 sec  (  0.0 % of DIIS)
  Energy W gradient         ....       0.000 sec  (  0.0 % of DIIS)
  DIIS error                ....       0.019 sec  (  4.9 % of DIIS)
  DIIS work                 ....       0.317 sec  ( 80.5 % of DIIS)
  Form Q                    ....       0.000 sec  (  0.0 % of DIIS)
  Form QpQm                 ....       0.000 sec  (  0.0 % of DIIS)
  Exp/Cayley                ....       0.000 sec  (  0.0 % of DIIS)
  Orb update                ....       0.000 sec  (  0.0 % of DIIS)
  Wake-sleep                ....       0.014 sec  (  3.5 % of DIIS)
SOSCF solution              ....       0.315 sec  (  0.2%)
  MO trafo                  ....       0.101 sec  ( 32.0 % of SOSCF)
  Orb grad                  ....       0.005 sec  (  1.4 % of SOSCF)
  Rot update                ....       0.110 sec  ( 34.8 % of SOSCF)
  Step                      ....       0.100 sec  ( 31.7 % of SOSCF)
Grid generation             ....       0.207 sec  (  0.1%)
Finished LeanSCF after 206.1 sec

Maximum memory used throughout the entire LEANSCF-calculation: 48.2 MB
------------------   -----------------
gCP correction             0.011199779
------------------   -----------------

-------------------------   --------------------
FINAL SINGLE POINT ENERGY      -386.126921594551
-------------------------   --------------------


------------------------------------------------------------------------------
                              ORCA PROPERTY CALCULATIONS
------------------------------------------------------------------------------

GBWName                                 ... sp_solv.gbw
Number of atoms                         ...     19
Number of basis functions               ...    339
Max core memory                         ...   1024 MB

Electric properties:
Dipole moment                           ... YES
Quadrupole moment                       ...  NO
Static polarizability (Dipole/Dipole)   ...  NO
Static polarizability (Dipole/Quad.)    ...  NO
Static polarizability (Quad./Quad.)     ...  NO
Static polarizability (Velocity)        ...  NO

Atomic electric properties:
Dipole moment                           ...  NO
Quadrupole moment                       ...  NO
Static polarizability                   ...  NO

Choice of electric origin               ... Center of mass
Position of electric origin             ...     0.011789    -0.020580     0.024304

General magnetic properties:
Magnetizability                         ...  NO

EPR properties:
g-Tensor (aka g-matrix)                 ...  NO
Zero-Field splitting spin-orbit         ...  NO
Zero-field splitting spin-spin          ...  NO
Hyperfine couplings                     ...  NO (   0 nuclei)
Quadrupole couplings                    ...  NO (   0 nuclei)
Contact density                         ...  NO (   0 nuclei)

NMR properties:
Chemical shifts                         ...  NO (   0 nuclei)
Spin-rotation constants                 ...  NO (   0 nuclei)
Spin-spin couplings                     ...  NO (   0 nuclei,    0 pairs)

Choice of magnetic origin               ... GIAO
Position of magnetic origin             ...     0.000000     0.000000     0.000000

Properties with geometric perturbations:
SCF Hessian                             ...  NO
IR spectrum                             ...  NO
VCD spectrum                            ...  NO
X-ray spectroscopy properties:
SCF XES/XAS/RIXS spectra                ...  NO


-------------
DIPOLE MOMENT
-------------

Method             : SCF
Type of density    : Electron Density
Multiplicity       :   1
Irrep              :   0
Energy             :  -386.1381213737508347 Eh
Relativity type    : 
Basis              : AO
                                X                 Y                 Z
Electronic contribution:      5.482473128      -4.479861774      -0.741101194
Nuclear contribution   :     -5.081303032       4.082293427       0.668963962
                        -----------------------------------------
Total Dipole Moment    :      0.401170097      -0.397568347      -0.072137232
                        -----------------------------------------
Magnitude (a.u.)       :      0.569387230
Magnitude (Debye)      :      1.447267321



--------------------
Rotational spectrum 
--------------------
 
Rotational constants in cm-1:             0.083120             0.049003             0.031184 
Rotational constants in MHz :          2491.877643          1469.065272           934.862660 

Dipole components along the rotational axes: 
x,y,z [a.u.] :     0.497321    -0.277247    -0.002859 
x,y,z [Debye]:     1.264088    -0.704706    -0.007267 

 

Dipole moment calculation done in   0.0 sec 

Maximum memory used throughout the entire PROP-calculation: 29.9 MB

--------------------------------
SUGGESTED CITATIONS FOR THIS RUN
--------------------------------

Below you find a list of papers that are relevant to this ORCA run
We neither can nor want to force you to cite these papers, but we appreciate if you do
You receive ORCA, which is the product of decades of hard work by many enthusiastic individuals, for free
The only thing we kindly ask in return is that you cite our papers,
We deeply appreciate it, if you show your appreciation for ORCA by not just citing the generic ORCA reference.

Please note that relegating all ORCA citations to the supporting information does *not* help us.
SI sections are not indexed - citations you put there will not count into any citation statistics
But we need these citations in order to attract the funding resources that allow us to do what we are doing

Therefore, if you are a happy ORCA user, please consider citing a few of the papers listed below in the main body of your paper

In addition to the list printed below, the program has created the file sp_solv.bibtex that contains the list in bibtex format
You can import this file easily into all common literature databanks and citation aid programs


List of essential papers. We consider these as the minimum necessary citations

  1. Neese,F.
     Software update: the ORCA program system, version 5.0
     WIRES Comput. Molec. Sci., 2022 12(1)e1606
     doi.org/10.1002/wcms.1606

List of papers to cite with high priority. The work reported in these papers was absolutely
necessary for this run to complete.
Our perspective: the developers of density functionals and basis sets usually get cited in chemistry papers
Good! But without the algorithms to do something with them, the functionals or basis sets would not do anything.
Hence, in our opinion, the algorithm design and method developments papers are equally worthy of getting cited

  1. Neese,F.
     An improvement of the resolution of the identity approximation for the formation of the Coulomb matrix
     J. Comp. Chem., 2003 24(14)1740-1747
     doi.org/10.1002/jcc.10318
  2. Neese,F.; Wennmohs,F.; Hansen,A.; Becker,U.
     Efficient, approximate and parallel Hartree-Fock and hybrid DFT calculations. A 'chain-of-spheres' algorithm for the Hartree-Fock exchange
     Chem. Phys., 2009 356(1-3)98-109
     doi.org/10.1016/j.chemphys.2008.10.036
  3. Garcia-Rates,M.; Neese,F.
     Effect of the Solute Cavity on the Solvation Energy and its Derivatives within the Framework of the Gaussian Charge Scheme
     J. Comput. Chem., 2020 41 922-939
     doi.org/10.1002/jcc.26139
  4. Helmich-Paris,B.; de Souza,B.; Neese,F.; Izsák,R.
     An improved chain of spheres for exchange algorithm
     J. Chem. Phys., 2021 155 104109
     doi.org/doi: 10.1063/5.0058766.
  5. Neese,F.
     The SHARK Integral Generation and Digestion System
     J. Comp. Chem., 2022  1-16
     doi.org/10.1002/jcc.26942

List of suggested additional citations. These are papers that are important in the 'surrounding' of 
of this run, or papers that preceded the highly important papers. If you like your results we are grateful for a citation.

  1. Izsak,R.; Neese,F.
     An overlap fitted chain of spheres exchange method
     J. Chem. Phys., 2011 135 144105
     doi.org/10.1063/1.3646921
  2. Izsak,R.; Hansen,A.; Neese,F.
     The resolution of identity and chain of spheres approximations for the LPNO-CCSD singles Fock term
     Molec. Phys., 2012 110 2413-2417
     doi.org/10.1080/00268976.2012.687466
  3. Neese,F.
     The ORCA program system
     WIRES Comput. Molec. Sci., 2012 2(1)73-78
     doi.org/10.1002/wcms.81
  4. Izsak,R.; Neese,F.; Klopper,W.
     Robust fitting techniques in the chain of spheres approximation to the Fock exchange: The role of the complementary space
     J. Chem. Phys., 2013 139 
     doi.org/10.1063/1.4819264
  5. Neese,F.
     Software update: the ORCA program system, version 4.0
     WIRES Comput. Molec. Sci., 2018 8(1)1-6
     doi.org/10.1002/wcms.1327
  6. Neese,F.; Wennmohs,F.; Becker,U.; Riplinger,C.
     The ORCA quantum chemistry program package
     J. Chem. Phys., 2020 152 Art. No. L224108
     doi.org/10.1063/5.0004608

List of optional additional citations

  1. Neese,F.
     Approximate second-order SCF convergence for spin unrestricted wavefunctions
     Chem. Phys. Lett., 2000 325(1-3)93-98
     doi.org/10.1016/s0009-2614(00)00662-x

Timings for individual modules:

Sum of individual times          ...      209.150 sec (=   3.486 min)
Startup calculation              ...        2.581 sec (=   0.043 min)   1.2 %
SCF iterations                   ...      206.447 sec (=   3.441 min)  98.7 %
Property calculations            ...        0.121 sec (=   0.002 min)   0.1 %
                             ****ORCA TERMINATED NORMALLY****
TOTAL RUN TIME: 0 days 0 hours 3 minutes 29 seconds 915 msec
