14
 energy: -18.820120377514 gnorm: 0.028109356000 xtb: 6.7.1 (edcfbbe)
C            1.44908765129122        0.96932642588395        0.01955890418843
C            0.75288234471756       -0.36137262924914       -0.00275868098995
O            1.40612418033543       -1.41025351753539       -0.01602503696675
C           -0.71832718547901       -0.42834988204967       -0.01488711991810
C           -1.56142755320975        0.58949830281944        0.74902678905472
C           -1.55162530637340        0.62991781959276       -0.73239877321244
H            1.18668835406579        1.55804946225231       -0.86556243414063
H            1.14695875032958        1.55556163205433        0.89330266954423
H            2.52844640708216        0.81607334949449        0.04275556342632
H           -1.10275469502855       -1.44245343912523       -0.04334580947648
H           -2.43155929945320        0.18109572260090        1.25073926396531
H           -1.03354565516512        1.36738362886495        1.28818177924918
H           -2.41537157036788        0.25088663391338       -1.26713179259183
H           -1.01567267256981        1.43571810426529       -1.22008335322905
14
 energy: -18.820816660340 gnorm: 0.011909718386 xtb: 6.7.1 (edcfbbe)
C            1.44350529819663        0.96872709409092        0.01938421910082
C            0.75780319464787       -0.36450658680625       -0.00396794111271
O            1.40749634224129       -1.40667555921935       -0.01548317411890
C           -0.71154549105346       -0.41911844739911       -0.01479263436408
C           -1.55833441313473        0.58774801284076        0.74868345498993
C           -1.54881559013807        0.62825862895409       -0.73210223622453
H            1.18266371267998        1.54557068975678       -0.86700211357618
H            1.14042130479500        1.54280213541014        0.89374294109746
H            2.51903748764601        0.81474001086723        0.04355179253491
H           -1.08448347204680       -1.43553766499359       -0.04291569324373
H           -2.42784979930009        0.19118363748679        1.24997062802435
H           -1.04238262521713        1.36399453614177        1.29014594771665
H           -2.41201582296303        0.26083534564303       -1.26541111245070
H           -1.02559637617844        1.43305978100915       -1.22243210947035
14
 energy: -18.820926765529 gnorm: 0.003522681681 xtb: 6.7.1 (edcfbbe)
C            1.44208687420719        0.96870788903591        0.01913686842138
C            0.76058645614535       -0.36811132077686       -0.00309720826192
O            1.40634721620988       -1.40825687631044       -0.01516574246821
C           -0.71033851940124       -0.41401063431145       -0.01474650181902
C           -1.55614039083374        0.58666329707104        0.74894802760874
C           -1.54650711708232        0.62758017930521       -0.73224758407643
H            1.17928346612744        1.53822760621378       -0.86801137985823
H            1.13579453690048        1.53625895536859        0.89309518816913
H            2.51754752388272        0.81886426826921        0.04392512182508
H           -1.07751507927941       -1.43306295371536       -0.04342179699283
H           -2.42460539170620        0.19436925321031        1.25245116039147
H           -1.04735002774614        1.36456195643779        1.29240890089320
H           -2.40863243808238        0.26478241353861       -1.26770938885379
H           -1.03065335916660        1.43450758044601       -1.22419369607563
14
 energy: -18.820937543452 gnorm: 0.001202269318 xtb: 6.7.1 (edcfbbe)
C            1.44279617634396        0.96878217490494        0.01899542075281
C            0.76182000716913       -0.36943968281894       -0.00386193261567
O            1.40596799192871       -1.41008292798661       -0.01469231946022
C           -0.71073964024107       -0.41305549279053       -0.01484698729455
C           -1.55559540258155        0.58608507359034        0.74920616828036
C           -1.54597184595516        0.62732133160818       -0.73222688874417
H            1.17911810472848        1.53635199831321       -0.86897203048781
H            1.13374462133327        1.53514981332180        0.89260897977282
H            2.51883662815091        0.82137236716882        0.04497067725984
H           -1.07684367175600       -1.43309120658598       -0.04357096531027
H           -2.42438582299597        0.19461555340520        1.25372639516685
H           -1.04851618616330        1.36558334112302        1.29299859468513
H           -2.40836907396776        0.26541356335879       -1.26872983025061
H           -1.03195813581861        1.43607570717009       -1.22423331285154
14
 energy: -18.820938884462 gnorm: 0.000681457945 xtb: 6.7.1 (edcfbbe)
C            1.44376550390601        0.96875453882057        0.01861333159290
C            0.76267342778755       -0.36994587619636       -0.00256233809242
O            1.40547383936500       -1.41142998686930       -0.01394225578044
C           -0.71132482721350       -0.41270358609762       -0.01496663135873
C           -1.55572313350035        0.58544071639858        0.74948983563526
C           -1.54575711176462        0.62744815940997       -0.73215365943226
H            1.17948535343512        1.53480407130604       -0.87055280175960
H            1.13263787320220        1.53588127376877        0.89131979510477
H            2.52018744348235        0.82304456319482        0.04565972628149
H           -1.07702992666077       -1.43324497780785       -0.04445432654765
H           -2.42480501596134        0.19373623138284        1.25442514957080
H           -1.04920970562691        1.36576663316863        1.29372552424695
H           -2.40833764990615        0.26596484336815       -1.26975614017399
H           -1.03213232036956        1.43756500993509       -1.22347324038415
14
 energy: -18.820939467379 gnorm: 0.000240761656 xtb: 6.7.1 (edcfbbe)
C            1.44367563781521        0.96867924562132        0.01850348568924
C            0.76256098568632       -0.36964569695457       -0.00354657167438
O            1.40543072893049       -1.41115022849220       -0.01346534962775
C           -0.71125582001395       -0.41281616616500       -0.01506377661736
C           -1.55585261864653        0.58535516895150        0.74962044020568
C           -1.54589114473299        0.62761782338126       -0.73199171957421
H            1.18056365719264        1.53464377005153       -0.87105832599456
H            1.13201792408958        1.53653961975200        0.89060430126829
H            2.51993173541009        0.82259597706498        0.04659445935544
H           -1.07697886035433       -1.43322204012721       -0.04443656830201
H           -2.42490260373938        0.19354902922698        1.25432922218496
H           -1.04904380195152        1.36532330377141        1.29384443784044
H           -2.40835319485477        0.26605179608552       -1.26948908675399
H           -1.03199887465583        1.43756001161485       -1.22307297909682
14
 energy: -18.820939763209 gnorm: 0.000180769902 xtb: 6.7.1 (edcfbbe)
C            1.44353173252595        0.96861952759550        0.01819553853439
C            0.76248355450652       -0.36949421351597       -0.00294364318082
O            1.40540745693457       -1.41094427896194       -0.01278814219858
C           -0.71114848267846       -0.41283397663906       -0.01516838569120
C           -1.55603378995065        0.58507403776523        0.74977580622534
C           -1.54582608438281        0.62793645228954       -0.73180020456729
H            1.18145512823316        1.53376211514977       -0.87216956773590
H            1.13136265604185        1.53758183654082        0.88932238694490
H            2.51966764207686        0.82228320617766        0.04731835647219
H           -1.07676486331300       -1.43316568175217       -0.04499162631569
H           -2.42507140987735        0.19304487505560        1.25405966582455
H           -1.04922503313651        1.36464033555660        1.29434873340258
H           -2.40816659051046        0.26664634597214       -1.26943589277267
H           -1.03176816629462        1.43793103254863       -1.22235105603884
14
 energy: -18.820940214357 gnorm: 0.000243599123 xtb: 6.7.1 (edcfbbe)
C            1.44351529761769        0.96858037968313        0.01773482880686
C            0.76251344064403       -0.36945762000628       -0.00261306997199
O            1.40531733279287       -1.41097469009080       -0.01169618542927
C           -0.71114073387560       -0.41277440610736       -0.01545986879543
C           -1.55614279737112        0.58456319806593        0.75010332367652
C           -1.54576062497048        0.62840933582342       -0.73146977786945
H            1.18337653006421        1.53205401828324       -0.87426685194828
H            1.12951397537684        1.53922349110264        0.88708088030913
H            2.51959900012375        0.82229795347953        0.04930296740692
H           -1.07659250859047       -1.43312980256200       -0.04588801152175
H           -2.42517718094691        0.19221441450898        1.25406740443799
H           -1.04940460396836        1.36377292747669        1.29521752536125
H           -2.40803856747994        0.26752801941282       -1.26941399986253
H           -1.03167480924148        1.43877439471240       -1.22132719569702
14
 energy: -18.820940713490 gnorm: 0.000272742359 xtb: 6.7.1 (edcfbbe)
C            1.44351250551427        0.96857800896157        0.01725082213394
C            0.76250855048879       -0.36943383198638       -0.00233114185092
O            1.40528474478842       -1.41098307095894       -0.01064088934267
C           -0.71114543058669       -0.41276960222982       -0.01567325842383
C           -1.55630653488412        0.58405572781407        0.75043888932932
C           -1.54562411217656        0.62889715981592       -0.73111035652221
H            1.18524541506568        1.53039804059192       -0.87637118594753
H            1.12775592280895        1.54090386624155        0.88484847347139
H            2.51953056094314        0.82231727878908        0.05117729523931
H           -1.07656312289293       -1.43311365103856       -0.04668761966384
H           -2.42541685445995        0.19136395333451        1.25399317175208
H           -1.04963389150634        1.36287243282519        1.29617774124809
H           -2.40781845525147        0.26838878244520       -1.26943257844547
H           -1.03142554767616        1.43960651917704       -1.22026739407471
14
 energy: -18.820941288084 gnorm: 0.000294129051 xtb: 6.7.1 (edcfbbe)
C            1.44349680048576        0.96858086051768        0.01672931360211
C            0.76250497777380       -0.36942536728520       -0.00203351258111
O            1.40526460914865       -1.41098749209295       -0.00951942627920
C           -0.71114440322692       -0.41275940143569       -0.01587800385131
C           -1.55647897569367        0.58351739516540        0.75079854635864
C           -1.54545339377895        0.62941870893119       -0.73072102772709
H            1.18720347672826        1.52861007801995       -0.87861097499160
H            1.12587651925633        1.54268051585355        0.88246238584717
H            2.51943992828920        0.82234739343267        0.05314157966852
H           -1.07653438444089       -1.43308856522596       -0.04752531058555
H           -2.42567904608029        0.19046361893202        1.25389550191046
H           -1.04990971255568        1.36190816292277        1.29723689875903
H           -2.40754593967117        0.26932617366359       -1.26947075215638
H           -1.03113670605940        1.44048953238332       -1.21913324907073
14
 energy: -18.820941949552 gnorm: 0.000316576055 xtb: 6.7.1 (edcfbbe)
C            1.44347850055142        0.96858557725012        0.01616641912860
C            0.76249743871282       -0.36941675940568       -0.00171065455535
O            1.40524901825916       -1.41099002220370       -0.00831906846794
C           -0.71114388614741       -0.41275585691077       -0.01608988663695
C           -1.55666694407508        0.58294088266728        0.75118394717626
C           -1.54526443511751        0.62997978606600       -0.73030116821396
H            1.18929517866542        1.52669533403729       -0.88100546264426
H            1.12387461201826        1.54458547147220        0.87989660567453
H            2.51933710551190        0.82238719627431        0.05523243537610
H           -1.07651639784475       -1.43306447175328       -0.04841359952025
H           -2.42597169881970        0.18949363697486        1.25377725149724
H           -1.05021157494045        1.36087144712349        1.29838114671049
H           -2.40724723940356        0.27033669459355       -1.26951502389509
H           -1.03080592719548        1.44143269759667       -1.21791097272647
14
 energy: -18.820942709909 gnorm: 0.000340024076 xtb: 6.7.1 (edcfbbe)
C            1.44345608310502        0.96859104119990        0.01556119814523
C            0.76248936749036       -0.36940889146503       -0.00136469408757
O            1.40523265110913       -1.41099116599622       -0.00703138686568
C           -0.71114321901603       -0.41275091263374       -0.01631400638080
C           -1.55686786753657        0.58232301595800        0.75159747064496
C           -1.54505783747391        0.63058168129352       -0.72984971671665
H            1.19153479686843        1.52463508722347       -0.88356538548060
H            1.12172971320668        1.54662120269215        0.87713631572718
H            2.51921860896567        0.82243900635859        0.05746852008909
H           -1.07649718136384       -1.43303710816883       -0.04936307191896
H           -2.42628651251464        0.18845422153155        1.25364681630007
H           -1.05053959534317        1.35975772239664        1.29961378809329
H           -2.40692100835961        0.27142531559120       -1.26956555286789
H           -1.03044424896248        1.44244139780114       -1.21659832577870
14
 energy: -18.820943583779 gnorm: 0.000365504618 xtb: 6.7.1 (edcfbbe)
C            1.44343054422420        0.96859703925209        0.01491150202069
C            0.76247995015279       -0.36940062444599       -0.00099319126612
O            1.40521591886525       -1.41099139081470       -0.00565017307310
C           -0.71114291791317       -0.41274695116125       -0.01655306685937
C           -1.55708299609013        0.58166081558203        0.75204019411817
C           -1.54483461646028        0.63122700303698       -0.72936508090796
H            1.19393559107501        1.52242266963241       -0.88629914836909
H            1.11943543996936        1.54879813800885        0.87416759109392
H            2.51908409721656        0.82250380773408        0.05986169040089
H           -1.07647850016558       -1.43300816441050       -0.05037902308191
H           -2.42662567739804        0.18734049057588        1.25350348532105
H           -1.05089137414924        1.35856236994596        1.30093609524675
H           -2.40656995218395        0.27259517273136       -1.26961975957692
H           -1.03005175696775        1.44352123811514       -1.21518914616403
14
 energy: -18.820944587329 gnorm: 0.000393319098 xtb: 6.7.1 (edcfbbe)
C            1.44340090297677        0.96860349547780        0.01421431868795
C            0.76246927276694       -0.36939206332093       -0.00059461790079
O            1.40519784276540       -1.41099025369004       -0.00416790579616
C           -0.71114304934304       -0.41274274497287       -0.01680907775406
C           -1.55731243818764        0.58095106206858        0.75251435082242
C           -1.54459354504198        0.63191910144236       -0.72884494869641
H            1.19650940087348        1.52004453070672       -0.88921823459218
H            1.11697877452229        1.55112478011202        0.87097351021675
H            2.51893066675124        0.82258448617809        0.06242529365095
H           -1.07645930919511       -1.43297647692074       -0.05146782498351
H           -2.42698879602925        0.18614808658291        1.25334822679583
H           -1.05126680082947        1.35727847614129        1.30235442940784
H           -2.40619185745046        0.27385231801960       -1.26967785167069
H           -1.02962731440413        1.44467681595756       -1.21367769928498
14
 energy: -18.820945735288 gnorm: 0.000422866911 xtb: 6.7.1 (edcfbbe)
C            1.44336730663505        0.96861068273648        0.01346833062709
C            0.76245717018554       -0.36938344519233       -0.00016856248355
O            1.40517896160260       -1.41098783188353       -0.00258197107252
C           -0.71114388440357       -0.41273889467732       -0.01708197891688
C           -1.55755676487318        0.58019259082710        0.75302052273467
C           -1.54433361055049        0.63265885185582       -0.72828824285968
H            1.19925992965061        1.51749717432198       -0.89232365152346
H            1.11435817932381        1.55360221590550        0.86754752234180
H            2.51875687090877        0.82268395770036        0.06516109919509
H           -1.07644064839705       -1.43294248814293       -0.05263076848475
H           -2.42737770043579        0.18487577020561        1.25318009391332
H           -1.05166681971634        1.35590456574223        1.30387067434673
H           -2.40578587835466        0.27519859718252       -1.26973975002046
H           -1.02916936140026        1.44590986720087       -1.21206134889444
14
 energy: -18.820947044357 gnorm: 0.000454614542 xtb: 6.7.1 (edcfbbe)
C            1.44332918649725        0.96861873821333        0.01267200369907
C            0.76244328479924       -0.36937450487044        0.00028605940500
O            1.40515883337127       -1.41098349230339       -0.00088813849632
C           -0.71114562336596       -0.41273513908176       -0.01737278462659
C           -1.55781614188992        0.57938370741923        0.75355965538385
C           -1.54405427262033        0.63344809823305       -0.72769374960751
H            1.20219449884856        1.51477302980737       -0.89562010001728
H            1.11156798951169        1.55623507579593        0.86387902389023
H            2.51856008480961        0.82280451297824        0.06807580137541
H           -1.07642249779144       -1.43290576026667       -0.05387079917377
H           -2.42779245743860        0.18352081226590        1.25299885660127
H           -1.05209112214517        1.35443627128589        1.30548846931095
H           -2.40535113450349        0.27663756796714       -1.26980547339977
H           -1.02867687790767        1.44722269633853       -1.21033685544158
14
 energy: -18.820948530585 gnorm: 0.000488365375 xtb: 6.7.1 (edcfbbe)
C            1.44328607960809        0.96862782233736        0.01182472073660
C            0.76242743083214       -0.36936549248405        0.00076957315130
O            1.40513763078351       -1.41097704299930        0.00091492235348
C           -0.71114846172628       -0.41273179072498       -0.01768158457057
C           -1.55809057903425        0.57852361664919        0.75413215400514
C           -1.54375461930144        0.63428755195718       -0.72706062169126
H            1.20531595869823        1.51186778926818       -0.89910719724819
H            1.10860693514283        1.55902431982313        0.85996167233156
H            2.51833782236258        0.82294958738576        0.07117138051843
H           -1.07640533905367       -1.43286645914649       -0.05518898335518
H           -2.42823401379777        0.18208277279309        1.25280366345827
H           -1.05253987649420        1.35287183335268        1.30720951897918
H           -2.40488695875854        0.27817117540330       -1.26987461469666
H           -1.02814825908619        1.44861593016731       -1.20850263506914
14
 energy: -18.820950208526 gnorm: 0.000523827937 xtb: 6.7.1 (edcfbbe)
C            1.44323729669141        0.96863814336929        0.01092646585782
C            0.76240945708649       -0.36935672382083        0.00128183498110
O            1.40511570421016       -1.41096819466004        0.00282747056273
C           -0.71115260636129       -0.41272896796657       -0.01800809826195
C           -1.55837946071106        0.57761277136168        0.75473761955549
C           -1.54343390123112        0.63517707439364       -0.72638889458319
H            1.20862202421083        1.50878067930290       -0.90278019077477
H            1.10547691143890        1.56196605979055        0.85579416715952
H            2.51808756447710        0.82312281970168        0.07444550564718
H           -1.07638999662791       -1.43282441500100       -0.05658492244374
H           -2.42870203543707        0.18056269544506        1.25259420521356
H           -1.05301213733294        1.35121138946094        1.30903332458269
H           -2.40439268495232        0.27979955082067       -1.26994728815562
H           -1.02758238528614        1.45008873158438       -1.20655923043786
14
 energy: -18.820952091558 gnorm: 0.000561066283 xtb: 6.7.1 (edcfbbe)
C            1.44318279492670        0.96864980162188        0.00997746903512
C            0.76238936852450       -0.36934818016986        0.00182245471760
O            1.40509318539046       -1.41095651331636        0.00484870921593
C           -0.71115808221038       -0.41272664417219       -0.01835204179699
C           -1.55868256227941        0.57665174111113        0.75537545907800
C           -1.54309209495388        0.63611607202981       -0.72567878662998
H            1.21211143360930        1.50551216293316       -0.90663351986979
H            1.10218137667260        1.56505527501317        0.85137628919392
H            2.51780727950807        0.82332734870570        0.07789558669161
H           -1.07637665138454       -1.43277946933768       -0.05805752678815
H           -2.42919627031086        0.17896178092508        1.25237027928101
H           -1.05350803532776        1.34945610876711        1.31095824732018
H           -2.40386854672965        0.28152213136196       -1.27002309805299
H           -1.02697944526010        1.45163999830942       -1.20450755249251
14
 energy: -18.820954189241 gnorm: 0.000599221574 xtb: 6.7.1 (edcfbbe)
C            1.44312269619625        0.96866301625693        0.00897990800769
C            0.76236697321515       -0.36934015732036        0.00239029826095
O            1.40507021735849       -1.41094179618225        0.00697425068818
C           -0.71116522230653       -0.41272479322700       -0.01871187029056
C           -1.55899938574401        0.57564307027987        0.75604385664213
C           -1.54272925584292        0.63710201744348       -0.72493188261535
H            1.21577402252034        1.50206962753251       -0.91065202841395
H            1.09873271846613        1.56828069863967        0.84671710941047
H            2.51749541778397        0.82356668553300        0.08150878049483
H           -1.07636632474759       -1.43273150483428       -0.05960258467397
H           -2.42971652277717        0.17728457175757        1.25213149634384
H           -1.05402724524301        1.34761045989704        1.31297985762663
H           -2.40331463212218        0.28333447886970       -1.27010260073998
H           -1.02633970658188        1.45326523913647       -1.20235262183796
14
 energy: -18.820956511383 gnorm: 0.000639011191 xtb: 6.7.1 (edcfbbe)
C            1.44305551746101        0.96867796428760        0.00793587434931
C            0.76234184811242       -0.36933262562578        0.00298490646529
O            1.40504691203137       -1.41092339729475        0.00920201665238
C           -0.71117408950530       -0.41272381148671       -0.01908772985793
C           -1.55932828575428        0.57458858323189        0.75674117429472
C           -1.54234568675003        0.63813347762144       -0.72414965319380
H            1.21960257476610        1.49845708202402       -0.91482511619377
H            1.09513721208209        1.57163584282486        0.84182176352689
H            2.51714892345378        0.82384297810541        0.08527836902515
H           -1.07635941352827       -1.43268059255645       -0.06121816373113
H           -2.43026065109760        0.17553470232145        1.25187804561673
H           -1.05456583748583        1.34567576801153        1.31509428920515
H           -2.40273209603286        0.28523480596910       -1.27018518760340
H           -1.02566317757757        1.45496083634874       -1.20009861965262
14
 energy: -18.820958219663 gnorm: 0.000245602629 xtb: 6.7.1 (edcfbbe)
C            1.44315312134202        0.96886208165958        0.00723012504470
C            0.76227728438684       -0.36953959440665        0.00283541275866
O            1.40516340555071       -1.41108825276427        0.01061941344609
C           -0.71134749186967       -0.41280656393271       -0.01910355296795
C           -1.55957563364352        0.57395648859029        0.75719239277396
C           -1.54185547096597        0.63878221089955       -0.72360471903628
H            1.22167736701323        1.49625469104579       -0.91702989311096
H            1.09315076193848        1.57333720812037        0.83880499254981
H            2.51704644687384        0.82467004812707        0.08715640340226
H           -1.07691613580299       -1.43274640652804       -0.06185508603189
H           -2.43089201882879        0.17439259939129        1.25168576843777
H           -1.05504713938748        1.34459224933239        1.31669330228004
H           -2.40207981905229        0.28630350599105       -1.27050686351470
H           -1.02485092737937        1.45611134825663       -1.19874572712854
14
 energy: -18.820961928872 gnorm: 0.000812242013 xtb: 6.7.1 (edcfbbe)
C            1.44305865425835        0.96924117003711        0.00553399375981
C            0.76222654004628       -0.36996343933553        0.00393068374250
O            1.40553275736178       -1.41124752989421        0.01384520169127
C           -0.71146717158395       -0.41291071987076       -0.01959305061396
C           -1.55979606479863        0.57232019168491        0.75827729712781
C           -1.54091866771884        0.64045162833068       -0.72227388646252
H            1.22756578105521        1.49001716889125       -0.92358311240797
H            1.08698874131062        1.57828212455132        0.83077141270652
H            2.51637687180714        0.82597068443889        0.09320132980654
H           -1.07764280867865       -1.43272639178326       -0.06438415725891
H           -2.43171443268736        0.17160903076496        1.25131985830163
H           -1.05581060724486        1.34164289466814        1.32047768436896
H           -2.40104328564842        0.28948279426553       -1.27076343908665
H           -1.02345255730364        1.45891200703331       -1.19538784677206
14
 energy: -18.820970472909 gnorm: 0.001555851089 xtb: 6.7.1 (edcfbbe)
C            1.44262043166142        0.96975892679665        0.00213223949842
C            0.76215460516232       -0.37054822097892        0.00513909787285
O            1.40609258892194       -1.41127781365242        0.02006196338522
C           -0.71152488140744       -0.41306524462389       -0.02073541432409
C           -1.56025923735950        0.56889601641118        0.76073146888702
C           -1.53922026216722        0.64391083681955       -0.71936262792740
H            1.24115957698864        1.47681741796901       -0.93783224633565
H            1.07305130592766        1.58922541951815        0.81351665666850
H            2.51465595142739        0.82794960306759        0.10740728964071
H           -1.07846754845368       -1.43257402046560       -0.06956172863431
H           -2.43322289788230        0.16614928899041        1.25074038697846
H           -1.05729717280632        1.33531934577521        1.32815017392715
H           -2.39900116286307        0.29610351746560       -1.27078227055407
H           -1.02083754697480        1.46441654068982       -1.18823302017983
14
 energy: -18.820950152987 gnorm: 0.007094051778 xtb: 6.7.1 (edcfbbe)
C            1.44058824245188        0.97195161704628       -0.01266466357363
C            0.76190879078689       -0.37302861880721        0.01101039149345
O            1.40856821275180       -1.41128320908022        0.04645049074090
C           -0.71163182786860       -0.41372033364812       -0.02480346978924
C           -1.56297769568413        0.55412885672279        0.77146205203751
C           -1.53114836952324        0.65881371305473       -0.70664685712312
H            1.29741135944357        1.42028513463194       -0.99888691775567
H            1.01478375709413        1.63613540005893        0.74024765981044
H            2.50734072971055        0.83610747536360        0.16577013170202
H           -1.08171147093884       -1.43186608279994       -0.09130831298441
H           -2.44106529883490        0.14290439017589        1.24731728796944
H           -1.06520244222689        1.30812339919350        1.36177574146392
H           -2.38871942299782        0.32462772647206       -1.27160034138217
H           -1.00824081398938        1.48790214539811       -1.15675122370646
14
 energy: -18.820984122921 gnorm: 0.003438688329 xtb: 6.7.1 (edcfbbe)
C            1.44133990496452        0.97093931289825       -0.00559364627555
C            0.76207019570018       -0.37193150625988        0.00791653568040
O            1.40755973725307       -1.41110082733026        0.03397225066617
C           -0.71143943039504       -0.41338889161375       -0.02285215754657
C           -1.56151907997130        0.56124714846825        0.76629849381566
C           -1.53487479828927        0.65161452132329       -0.71267129393335
H            1.27006097020235        1.44737609547382       -0.96911484372616
H            1.04287920359864        1.61303551247065        0.77540879425909
H            2.51032987632981        0.83233178662346        0.13741117631958
H           -1.08003987108027       -1.43209253382546       -0.08086959862862