13
 energy: -13.922263330125 gnorm: 0.021128896538 xtb: 6.7.1 (edcfbbe)
C           -1.94674068161780       -0.13876326678099        0.00007369360890
C           -0.56977958518259        0.52092735329182        0.00016237642596
C            0.56124901906341       -0.50408699247252       -0.00026468826470
N            1.92287452381505        0.06253012757056        0.00009938244807
H           -2.07840565453386       -0.77137813884567       -0.88495112721581
H           -2.07834109958083       -0.77171498726093        0.88486708286685
H           -2.74834112484909        0.60630315817048        0.00024162557111
H           -0.46474420765495        1.16695274004294        0.88213607262876
H           -0.46489224861927        1.16746086035381       -0.88146130911844
H            0.45949124335632       -1.15410353764413        0.87781272254027
H            0.45952043373540       -1.15326600462132       -0.87897349684097
H            2.00219150532696        0.67838974581066        0.80556555215796
H            2.00156535823780        0.68100649959878       -0.80341812315505
13
 energy: -13.922978847039 gnorm: 0.008420911364 xtb: 6.7.1 (edcfbbe)
C           -1.94265251832017       -0.13854436039035        0.00007426010012
C           -0.57360504601855        0.52508219147299        0.00018803210964
C            0.55446807806493       -0.50891256244789       -0.00024323800635
N            1.90106215952195        0.06377877446112        0.00014616254616
H           -2.06394021030195       -0.76558935952862       -0.88294484930291
H           -2.06390505420996       -0.76597345249375        0.88282534105698
H           -2.73284603810975        0.61069748810334        0.00025271061394
H           -0.47848062153659        1.16550083352844        0.88390158958613
H           -0.47859816272757        1.16606202230384       -0.88313204250161
H            0.47027562626362       -1.15063305130894        0.88317847758568
H            0.47039259888742       -1.14971985542018       -0.88434975262801
H            1.99700154691893        0.66806634337848        0.81300678175497
H            1.99647512306425        0.67044254555501       -0.81101370926183
13
 energy: -13.923087947703 gnorm: 0.003324796859 xtb: 6.7.1 (edcfbbe)
C           -1.94811732929888       -0.13988710837889        0.00006827594737
C           -0.57886633981464        0.52505974158250        0.00021997898403
C            0.55622533311842       -0.50456515059939       -0.00022653793466
N            1.89774892521680        0.06552078799797        0.00020064523055
H           -2.06517739290940       -0.76506119857775       -0.88142803235818
H           -2.06516169631464       -0.76550134846218        0.88125369757517
H           -2.73566470082197        0.60890429333335        0.00026375275652
H           -0.48300723666016        1.16242385476090        0.88377221437507
H           -0.48310626535829        1.16304401163024       -0.88289294450323
H            0.47335711806540       -1.14265232300633        0.88388926605459
H            0.47352206261594       -1.14167986103860       -0.88507157481966
H            2.00713422444593        0.66129128332804        0.81658766914223
H            2.00676077921206        0.66336057464365       -0.81474664679689
13
 energy: -13.923103899362 gnorm: 0.001310291803 xtb: 6.7.1 (edcfbbe)
C           -1.94908921206764       -0.14132576478200        0.00006200117545
C           -0.58021797606154        0.52693811790902        0.00024635292772
C            0.55707018933614       -0.50274981599822       -0.00021537220147
N            1.89716528920396        0.06663927063873        0.00023360645636
H           -2.06545740703891       -0.76641316640362       -0.88164752331536
H           -2.06545705502434       -0.76690645751316        0.88142115886568
H           -2.73728389165820        0.60678342505131        0.00027253860266
H           -0.48465138103826        1.16401604727490        0.88379940702467
H           -0.48473739692727        1.16468764951226       -0.88282901578371
H            0.47189428770180       -1.14075292230421        0.88357137770237
H            0.47207116897977       -1.13974396692895       -0.88475581512016
H            2.01229418820925        0.65863237086710        0.81733734206060
H            2.01204667788179        0.66045276989032       -0.81560629474190
13
 energy: -13.923106333738 gnorm: 0.000551914028 xtb: 6.7.1 (edcfbbe)
C           -1.94922700712065       -0.14190647400919        0.00005174691464
C           -0.58110395899060        0.52865855794212        0.00028285354256
C            0.55780905837585       -0.50089078596391       -0.00019998841884
N            1.89792074829551        0.06662721992844        0.00026493740653
H           -2.06468075029276       -0.76756830861268       -0.88202123173447
H           -2.06469974630981       -0.76814310458378        0.88171402414382
H           -2.73981630960278        0.60447177728712        0.00028717427344
H           -0.48662724709173        1.16604020869388        0.88389611493483
H           -0.48669065014911        1.16678424307199       -0.88279856020229
H            0.47017281288952       -1.13950825836145        0.88331578247348
H            0.47035236493654       -1.13846703960793       -0.88448942810671
H            2.01615982510308        0.65633337071125        0.81744362741023
H            2.01607834145352        0.65782615071762       -0.81585728898433
13
 energy: -13.923106766081 gnorm: 0.000056600385 xtb: 6.7.1 (edcfbbe)
C           -1.94866292751884       -0.14184118377284        0.00004719398846
C           -0.58087790891785        0.52869151061605        0.00029266113814
C            0.55728680903287       -0.50105043572775       -0.00019437261376
N            1.89768274326176        0.06629375478079        0.00026809535785
H           -2.06427162309892       -0.76750831184331       -0.88192590283226
H           -2.06429333323717       -0.76811287699374        0.88158803577989
H           -2.73925815663301        0.60440302693776        0.00029405023605
H           -0.48620170701317        1.16607612706809        0.88391252200260
H           -0.48625597124380        1.16684207221642       -0.88277857783179
H            0.47002849299745       -1.13962235768112        0.88344008236724
H            0.47020387483214       -1.13858393077748       -0.88459975624167
H            2.01515614331673        0.65662737606282        0.81741696004999
H            2.01511104571837        0.65804278632781       -0.81587122774784
13
 energy: -13.923106772358 gnorm: 0.000029954450 xtb: 6.7.1 (edcfbbe)
C           -1.94869252491088       -0.14178907085227        0.00004038134621
C           -0.58093281605534        0.52866639682211        0.00030836446130
C            0.55726848759865       -0.50099609862614       -0.00018472268419
N            1.89770991886887        0.06623336529247        0.00027462407355
H           -2.06412968994598       -0.76744565152310       -0.88193702548996
H           -2.06415825273696       -0.76809424633692        0.88155337171126
H           -2.73939833148113        0.60432742011430        0.00030267102609
H           -0.48629487315926        1.16605557748008        0.88391370266187
H           -0.48633507378548        1.16685190403620       -0.88272496930600
H            0.47001502058535       -1.13956013415165        0.88343816782733
H            0.47018435216965       -1.13852077929155       -0.88457736963960
H            2.01520295248516        0.65661563721809        0.81740658185810
H            2.01520831186394        0.65791323703188       -0.81592401419304
