
                                 *****************
                                 * O   R   C   A *
                                 *****************

                                            #,                                       
                                            ###                                      
                                            ####                                     
                                            #####                                    
                                            ######                                   
                                           ########,                                 
                                     ,,################,,,,,                         
                               ,,#################################,,                 
                          ,,##########################################,,             
                       ,#########################################, ''#####,          
                    ,#############################################,,   '####,        
                  ,##################################################,,,,####,       
                ,###########''''           ''''###############################       
              ,#####''   ,,,,##########,,,,          '''####'''          '####       
            ,##' ,,,,###########################,,,                        '##       
           ' ,,###''''                  '''############,,,                           
         ,,##''                                '''############,,,,        ,,,,,,###''
      ,#''                                            '''#######################'''  
     '                                                          ''''####''''         
             ,#######,   #######,   ,#######,      ##                                
            ,#'     '#,  ##    ##  ,#'     '#,    #''#        ,####,   ,####,        
            ##       ##  ##   ,#'  ##            #'  '#       #'       #'  '#        
            ##       ##  #######   ##           ,######,      #####,   #    #        
            '#,     ,#'  ##    ##  '#,     ,#' ,#      #,     #,   #   #,  ,#        
             '#######'   ##     ##  '#######'  #'      '#     '####' # '####'        



                #########################################################
                #                        -***-                          #
                #          Department of theory and spectroscopy        #
                #                                                       #
                #                      Frank Neese                      #
                #                                                       #
                #     Directorship, Architecture, Infrastructure        #
                #                    SHARK, DRIVERS                     #
                #        Core code/Algorithms in most modules           #
                #                                                       #
                #        Max Planck Institute fuer Kohlenforschung      #
                #                Kaiser Wilhelm Platz 1                 #
                #                 D-45470 Muelheim/Ruhr                 #
                #                      Germany                          #
                #                                                       #
                #                  All rights reserved                  #
                #                        -***-                          #
                #########################################################


                         Program Version 6.0.0  -   RELEASE  -


 With contributions from (in alphabetic order):
   Daniel Aravena         : Magnetic Suceptibility
   Michael Atanasov       : Ab Initio Ligand Field Theory (pilot matlab implementation)
   Alexander A. Auer      : GIAO ZORA, VPT2 properties, NMR spectrum
   Ute Becker             : All parallelization in ORCA, NUMFREQ, NUMCALC
   Giovanni Bistoni       : ED, misc. LED, open-shell LED, HFLD
   Martin Brehm           : Molecular dynamics
   Dmytro Bykov           : pre 5.0 version of the SCF Hessian
   Marcos Casanova-Páez   : Triplet and SCS-CIS(D). UHF-(DLPNO)-IP/EA/STEOM-CCSD. UHF-CVS-IP/STEOM-CCSD
   Vijay G. Chilkuri      : MRCI spin determinant printing, contributions to CSF-ICE
   Pauline Colinet        : FMM embedding
   Dipayan Datta          : RHF DLPNO-CCSD density
   Achintya Kumar Dutta   : EOM-CC, STEOM-CC
   Nicolas Foglia         : Exact transition moments, OPA infrastructure, MCD improvements
   Dmitry Ganyushin       : Spin-Orbit,Spin-Spin,Magnetic field MRCI
   Miquel Garcia          : C-PCM and meta-GGA Hessian, CCSD/C-PCM, Gaussian charge scheme
   Tiago L. C. Gouveia    : GS-ROHF, GS-ROCIS
   Yang Guo               : DLPNO-NEVPT2, F12-NEVPT2, CIM, IAO-localization
   Andreas Hansen         : Spin unrestricted coupled pair/coupled cluster methods
   Ingolf Harden          : AUTO-CI MPn and infrastructure 
   Benjamin Helmich-Paris : MC-RPA, TRAH-(SCF,CASSCF), AVAS, COSX integrals, SCF dyn. polar.
   Lee Huntington         : MR-EOM, pCC
   Robert Izsak           : Overlap fitted RIJCOSX, COSX-SCS-MP3, EOM
   Riya Kayal             : Wick's Theorem for AUTO-CI, AUTO-CI UHF-CCSDT
   Emily Kempfer          : AUTO-CI, RHF CISDT and CCSDT
   Christian Kollmar      : KDIIS, OOCD, Brueckner-CCSD(T), CCSD density, CASPT2, CASPT2-K, improved NEVPT2
   Axel Koslowski         : Symmetry handling
   Simone Kossmann        : Meta GGA functionals, TD-DFT gradient, OOMP2, (MP2 Hessian; deprecated post 5.0)
   Lucas Lang             : DCDCAS
   Marvin Lechner         : AUTO-CI (C++ implementation), FIC-MRCC
   Spencer Leger          : CASSCF response
   Dagmar Lenk            : GEPOL surface, SMD, ORCA-2-JSON
   Dimitrios Liakos       : Extrapolation schemes; Compound Job, initial MDCI parallelization
   Dimitrios Manganas     : Further ROCIS development; embedding schemes. LFT, Crystal Embedding
   Dimitrios Pantazis     : SARC Basis sets
   Anastasios Papadopoulos: AUTO-CI, single reference methods and gradients
   Taras Petrenko         : pre 6.0 DFT Hessian and TD-DFT gradient, (ASA, deprecated), ECA, 1-Electron XAS/XES, NRVS
   Peter Pinski           : DLPNO-MP2, DLPNO-MP2 Gradient
   Christoph Reimann      : Effective Core Potentials
   Marius Retegan         : Local ZFS, SOC
   Christoph Riplinger    : Optimizer, TS searches, QM/MM, DLPNO-CCSD(T), (RO)-DLPNO pert. Triples
   Michael Roemelt        : Original ROCIS implementation
   Masaaki Saitow         : Open-shell DLPNO-CCSD energy and density
   Barbara Sandhoefer     : DKH picture change effects
   Kantharuban Sivalingam : CASSCF convergence/infrastructure, NEVPT2 and variants, FIC-MRCI
   Bernardo de Souza      : ESD, SOC TD-DFT
   Georgi Stoychev        : AutoAux, RI-MP2 NMR, DLPNO-MP2 response, X2C
   Van Anh Tran           : RI-MP2 g-tensors
   Willem Van den Heuvel  : Paramagnetic NMR
   Zikuan Wang            : NOTCH, Electric field optimization 
   Frank Wennmohs         : Technical directorship and infrastructure
   Hang Xu                : AUTO-CI-Response properties 


 We gratefully acknowledge several colleagues who have allowed us to
 interface, adapt or use parts of their codes:
   Stefan Grimme, W. Hujo, H. Kruse, P. Pracht,  : VdW corrections, initial TS optimization,
                  C. Bannwarth, S. Ehlert,         DFT functionals, gCP, sTDA/sTD-DF
                  L. Wittmann, M. Mueller
   Ed Valeev, F. Pavosevic, A. Kumar             : LibInt (2-el integral package), F12 methods
   Garnet Chan, S. Sharma, J. Yang, R. Olivares  : DMRG
   Ulf Ekstrom                                   : XCFun DFT Library
   Mihaly Kallay                                 : mrcc  (arbitrary order and MRCC methods)
   Frank Weinhold                                : gennbo (NPA and NBO analysis)
   Simon Mueller                                 : openCOSMO-RS
   Christopher J. Cramer and Donald G. Truhlar   : smd solvation model
   Lars Goerigk                                  : TD-DFT with DH, B97 family of functionals
   V. Asgeirsson, H. Jonsson                     : NEB implementation
   FAccTs GmbH                                   : IRC, NEB, NEB-TS, DLPNO-Multilevel, CI-OPT
                                                   MM, QMMM, 2- and 3-layer-ONIOM, Crystal-QMMM,
                                                   LR-CPCM, SF, NACMEs, symmetry and pop. for TD-DFT,
                                                   nearIR, NL-DFT gradient (VV10), updates on ESD,
                                                   ML-optimized integration grids, MBIS, APM,
                                                   GOAT, DOCKER, SOLVATOR, interface openCOSMO-RS
   S Lehtola, MJT Oliveira, MAL Marques          : LibXC Library
   Liviu Ungur et al                             : ANISO software


 Your calculation uses the libint2 library for the computation of 2-el integrals
 For citations please refer to: http://libint.valeyev.net

 Your ORCA version has been built with support for libXC version: 6.2.2
 For citations please refer to: https://libxc.gitlab.io

 This ORCA versions uses:
   CBLAS   interface :  Fast vector & matrix operations
   LAPACKE interface :  Fast linear algebra routines
   SCALAPACK package :  Parallel linear algebra routines
   Shared memory     :  Shared parallel matrices
   BLAS/LAPACK       :  OpenBLAS 0.3.27  USE64BITINT DYNAMIC_ARCH NO_AFFINITY SkylakeX SINGLE_THREADED
        Core in use  :  SkylakeX
   Copyright (c) 2011-2014, The OpenBLAS Project


Your calculation utilizes the geometrical counterpoise correction gCP
Please cite in your paper:
H.Kruse, S. Grimme J.Chem.Phys., 136, (2012), 154101 
   

Your calculation utilizes the DFT-NL dispersion correction.
Cite in your paper:
Vydrov, O. A.; Van Voorhis, T. J. Chem. Phys. 2010, 133, 244103
Hujo, W.; Grimme, S. J. Chem. Theory Comput. 2011, 7, 3866 
   

Your calculation utilizes the SMD solvation module
Please cite in your paper:
A.V. Marenich, C.J. Cramer, D.G. Truhlar J. Phys. Chem. B, 113, (2009), 6378 

================================================================================

----- Orbital basis set information -----
Your calculation utilizes the basis: def2-TZVP
   F. Weigend and R. Ahlrichs, Phys. Chem. Chem. Phys. 7, 3297 (2005).

----- AuxJ basis set information -----
Your calculation utilizes the auxiliary basis: def2/J
   F. Weigend, Phys. Chem. Chem. Phys. 8, 1057 (2006).

================================================================================
                                        WARNINGS
                       Please study these warnings very carefully!
================================================================================


================================================================================
                                       INPUT FILE
================================================================================
NAME = sp_solv.inp
|  1> ! wb97x-v def2-tzvp def2/J RIJCOSX DEFGRID2 scfconv7 GCP(DFT/TZ) printgap
|  2> %output
|  3>     printlevel normal
|  4> end
|  5> %cpcm
|  6>     smd true
|  7>     smdsolvent "water"
|  8> end
|  9> * xyz 0 1
| 10> C 1.9467689697995758 -0.1411973164452367 -0.9832235780816401
| 11> O 1.1175184683851733 -0.31571676366053625 0.20913207761027458
| 12> S -0.4828534949624809 -0.0587500987175126 0.03458961840201786
| 13> O -1.0604797129981323 -0.5923788648591353 1.2741751645172428
| 14> O -0.9311540546472423 -0.5994412249054603 -1.2585484829503117
| 15> C -0.6263722933543553 1.7239418960835402 0.01659253504712672
| 16> H 1.6637544981877077 -0.8661254885289017 -1.7483480912394525
| 17> H 2.961966272841298 -0.3334686436375476 -0.6367978628585271
| 18> H 1.8715750063679941 0.8816018929695052 -1.3614644806671883
| 19> H -0.21004962593722587 2.1110477836631287 0.9487701664570183
| 20> H -0.09283288935059757 2.114439812331636 -0.85296062844957
| 21> H -1.6930462527094534 1.9527878456617194 -0.059345065925725166
| 22> *
| 23> 
| 24>                          ****END OF INPUT****
================================================================================

                       ****************************
                       * Single Point Calculation *
                       ****************************

---------------------------------
CARTESIAN COORDINATES (ANGSTROEM)
---------------------------------
  C      1.946769   -0.141197   -0.983224
  O      1.117518   -0.315717    0.209132
  S     -0.482853   -0.058750    0.034590
  O     -1.060480   -0.592379    1.274175
  O     -0.931154   -0.599441   -1.258548
  C     -0.626372    1.723942    0.016593
  H      1.663754   -0.866125   -1.748348
  H      2.961966   -0.333469   -0.636798
  H      1.871575    0.881602   -1.361464
  H     -0.210050    2.111048    0.948770
  H     -0.092833    2.114440   -0.852961
  H     -1.693046    1.952788   -0.059345

----------------------------
CARTESIAN COORDINATES (A.U.)
----------------------------
  NO LB      ZA    FRAG     MASS         X           Y           Z
   0 C     6.0000    0    12.011    3.678860   -0.266824   -1.858023
   1 O     8.0000    0    15.999    2.111804   -0.596618    0.395202
   2 S    16.0000    0    32.060   -0.912461   -0.111022    0.065365
   3 O     8.0000    0    15.999   -2.004016   -1.119434    2.407842
   4 O     8.0000    0    15.999   -1.759626   -1.132780   -2.378312
   5 C     6.0000    0    12.011   -1.183672    3.257778    0.031355
   6 H     1.0000    0     1.008    3.144040   -1.636740   -3.303899
   7 H     1.0000    0     1.008    5.597305   -0.630164   -1.203374
   8 H     1.0000    0     1.008    3.536764    1.665986   -2.572795
   9 H     1.0000    0     1.008   -0.396936    3.989302    1.792916
  10 H     1.0000    0     1.008   -0.175429    3.995712   -1.611862
  11 H     1.0000    0     1.008   -3.199394    3.690234   -0.112146

--------------------------------
INTERNAL COORDINATES (ANGSTROEM)
--------------------------------
 C      0   0   0     0.000000000000     0.00000000     0.00000000
 O      1   0   0     1.462814219651     0.00000000     0.00000000
 S      2   1   0     1.630241502977   116.77095925     0.00000000
 O      3   2   1     1.467986387523   103.80197272   167.73982521
 O      3   2   1     1.471572775951   109.58633237    39.31944220
 C      3   2   1     1.788550331645   103.70711579   282.54206590
 H      1   2   3     1.091344843053   110.19428440   297.00079211
 H      1   2   3     1.089772730220   104.35509940   178.57297003
 H      1   2   3     1.093086700726   110.77437748    60.43934411
 H      6   3   2     1.091847364839   108.31211330   301.67341678
 H      6   3   2     1.092371558750   108.97306401    63.15090488
 H      6   3   2     1.093585992708   106.71095430   182.20160708

---------------------------
INTERNAL COORDINATES (A.U.)
---------------------------
 C      0   0   0     0.000000000000     0.00000000     0.00000000
 O      1   0   0     2.764318259946     0.00000000     0.00000000
 S      2   1   0     3.080709972778   116.77095925     0.00000000
 O      3   2   1     2.774092240743   103.80197272   167.73982521
 O      3   2   1     2.780869532682   109.58633237    39.31944220
 C      3   2   1     3.379870303544   103.70711579   282.54206590
 H      1   2   3     2.062342871036   110.19428440   297.00079211
 H      1   2   3     2.059372008332   104.35509940   178.57297003
 H      1   2   3     2.065634505004   110.77437748    60.43934411
 H      6   3   2     2.063292499589   108.31211330   301.67341678
 H      6   3   2     2.064283082522   108.97306401    63.15090488
 H      6   3   2     2.066578030110   106.71095430   182.20160708

---------------------
BASIS SET INFORMATION
---------------------
There are 4 groups of distinct atoms

 Group   1 Type C   : 11s6p2d1f contracted to 5s3p2d1f pattern {62111/411/11/1}
 Group   2 Type O   : 11s6p2d1f contracted to 5s3p2d1f pattern {62111/411/11/1}
 Group   3 Type S   : 14s9p3d1f contracted to 5s5p2d1f pattern {73211/51111/21/1}
 Group   4 Type H   : 5s1p contracted to 3s1p pattern {311/1}

Atom   0C    basis set group =>   1
Atom   1O    basis set group =>   2
Atom   2S    basis set group =>   3
Atom   3O    basis set group =>   2
Atom   4O    basis set group =>   2
Atom   5C    basis set group =>   1
Atom   6H    basis set group =>   4
Atom   7H    basis set group =>   4
Atom   8H    basis set group =>   4
Atom   9H    basis set group =>   4
Atom  10H    basis set group =>   4
Atom  11H    basis set group =>   4
---------------------------------
AUXILIARY/J BASIS SET INFORMATION
---------------------------------
There are 4 groups of distinct atoms

 Group   1 Type C   : 12s5p4d2f1g contracted to 6s4p3d1f1g pattern {711111/2111/211/2/1}
 Group   2 Type O   : 12s5p4d2f1g contracted to 6s4p3d1f1g pattern {711111/2111/211/2/1}
 Group   3 Type S   : 14s5p5d2f1g contracted to 8s4p3d1f1g pattern {71111111/2111/311/2/1}
 Group   4 Type H   : 5s2p1d contracted to 3s1p1d pattern {311/2/1}

Atom   0C    basis set group =>   1
Atom   1O    basis set group =>   2
Atom   2S    basis set group =>   3
Atom   3O    basis set group =>   2
Atom   4O    basis set group =>   2
Atom   5C    basis set group =>   1
Atom   6H    basis set group =>   4
Atom   7H    basis set group =>   4
Atom   8H    basis set group =>   4
Atom   9H    basis set group =>   4
Atom  10H    basis set group =>   4
Atom  11H    basis set group =>   4

Checking for AutoStart:
The File: sp_solv.gbw exists
Trying to determine its content:
     ... Fine, the file contains calculation information
     ... Fine, the calculation information was read
     ... Fine, the file contains a basis set
     ... Fine, the basis set was read
     ... Fine, the file contains a geometry
     ... Fine, the geometry was read
     ... Fine, the file contains a set of orbitals
     ... Fine, the orbitals can be read
     => possible old guess file was deleted
     => GBW file was renamed to GES file
     => GES file is set as startup file
     => Guess is set to MORead
     ... now leaving AutoStart

------------------------------------------------------------------------------
                             ORCA STARTUP CALCULATIONS
                           -- RI-GTO INTEGRALS CHOSEN --
------------------------------------------------------------------------------
------------------------------------------------------------------------------
                   ___                                                        
                  /   \      - P O W E R E D   B Y -                         
                 /     \                                                     
                 |  |  |   _    _      __       _____    __    __             
                 |  |  |  | |  | |    /  \     |  _  \  |  |  /  |          
                  \  \/   | |  | |   /    \    | | | |  |  | /  /          
                 / \  \   | |__| |  /  /\  \   | |_| |  |  |/  /          
                |  |  |   |  __  | /  /__\  \  |    /   |      \           
                |  |  |   | |  | | |   __   |  |    \   |  |\   \          
                \     /   | |  | | |  |  |  |  | |\  \  |  | \   \       
                 \___/    |_|  |_| |__|  |__|  |_| \__\ |__|  \__/        
                                                                              
                      - O R C A' S   B I G   F R I E N D -                    
                                      &                                       
                       - I N T E G R A L  F E E D E R -                       
                                                                              
 v1 FN, 2020, v2 2021, v3 2022-2024                                           
------------------------------------------------------------------------------


----------------------
SHARK INTEGRAL PACKAGE
----------------------

Number of atoms                             ...     12
Number of basis functions                   ...    228
Number of shells                            ...     92
Maximum angular momentum                    ...      3
Integral batch strategy                     ... SHARK/LIBINT Hybrid
RI-J (if used) integral strategy            ... SPLIT-RIJ (Revised 2003 algorithm where possible)
Printlevel                                  ...      1
Contraction scheme used                     ... SEGMENTED contraction
Prescreening option                         ... SCHWARTZ
   Thresh                                   ... 3.000e-11
   Tcut                                     ... 1.000e-12
   Tpresel                                  ... 1.000e-12 
Coulomb Range Separation                    ... NOT USED
Exchange Range Separation                   ... Long Range
   Mu parameter                             ... 3.000e-01
   Scaling (regular/separated)              ... 1.670e-01 8.330e-01
Multipole approximations                    ... NOT USED
Finite Nucleus Model                        ... NOT USED
CABS basis                                  ... NOT available
Auxiliary Coulomb fitting basis             ... AVAILABLE
   # of basis functions in Aux-J            ...    362
   # of shells in Aux-J                     ...    122
   Maximum angular momentum in Aux-J        ...      4
Auxiliary J/K fitting basis                 ... NOT available
Auxiliary Correlation fitting basis         ... NOT available
Auxiliary 'external' fitting basis          ... NOT available

Checking pre-screening integrals            ... done (  0.0 sec) Dimension = 92
Check shell pair data                       ... done (  0.0 sec)
Shell pair information
Shell pair cut-off parameter TPreSel        ...   1.0e-12
Total number of shell pairs                 ...      4278
Shell pairs after pre-screening             ...      4024
Total number of primitive shell pairs       ...     13530
Primitive shell pairs kept                  ...      9605
          la=0 lb=0:   1057 shell pairs
          la=1 lb=0:   1176 shell pairs
          la=1 lb=1:    345 shell pairs
          la=2 lb=0:    537 shell pairs
          la=2 lb=1:    308 shell pairs
          la=2 lb=2:     77 shell pairs
          la=3 lb=0:    276 shell pairs
          la=3 lb=1:    155 shell pairs
          la=3 lb=2:     72 shell pairs
          la=3 lb=3:     21 shell pairs

Calculating one electron integrals          ... done (  0.0 sec)
Calculating RI/J V-Matrix + Cholesky decomp.... done (  0.0 sec)
Calculating Nuclear repulsion               ... done (  0.0 sec) ENN=    359.071796502511 Eh

Diagonalization of the overlap matrix:
Smallest eigenvalue                        ... 1.024e-03
Time for diagonalization                   ...    0.006 sec
Threshold for overlap eigenvalues          ... 1.000e-07
Number of eigenvalues below threshold      ... 0
Time for construction of square roots      ...    0.013 sec
Total time needed                          ...    0.027 sec

-------------------
DFT GRID GENERATION
-------------------

General Integration Accuracy     IntAcc      ... 4.388
Radial Grid Type                 RadialGrid  ... OptM3 with GC (2021)
Angular Grid (max. ang.)         AngularGrid ... 4 (Lebedev-302)
Angular grid pruning method      GridPruning ... 4 (adaptive)
Weight generation scheme         WeightScheme... mBecke (2022)
Basis function cutoff            BFCut       ... 1.0000e-11
Integration weight cutoff        WCut        ... 1.0000e-14
Partially contracted basis set               ... off
Rotationally invariant grid construction     ... off
Angular grids for H and He will be reduced by one unit

Total number of grid points                  ...    57114
Total number of batches                      ...      898
Average number of points per batch           ...       63
Average number of grid points per atom       ...     4760

--------------------
COSX GRID GENERATION
--------------------

GRIDX 1
-------
General Integration Accuracy     IntAcc      ... 3.816
Radial Grid Type                 RadialGrid  ... OptM3 with GC (2021)
Angular Grid (max. ang.)         AngularGrid ... 1 (Lebedev-50)
Angular grid pruning method      GridPruning ... 4 (adaptive)
Weight generation scheme         WeightScheme... mBecke (2022)
Basis function cutoff            BFCut       ... 1.0000e-11
Integration weight cutoff        WCut        ... 1.0000e-14
Partially contracted basis set               ... on
Rotationally invariant grid construction     ... off
Angular grids for H and He will be reduced by one unit

Total number of grid points                  ...     8323
Total number of batches                      ...       72
Average number of points per batch           ...      115
Average number of grid points per atom       ...      694
UseSFitting                                  ... on

GRIDX 2
-------
General Integration Accuracy     IntAcc      ... 4.020
Radial Grid Type                 RadialGrid  ... OptM3 with GC (2021)
Angular Grid (max. ang.)         AngularGrid ... 2 (Lebedev-110)
Angular grid pruning method      GridPruning ... 4 (adaptive)
Weight generation scheme         WeightScheme... mBecke (2022)
Basis function cutoff            BFCut       ... 1.0000e-11
Integration weight cutoff        WCut        ... 1.0000e-14
Partially contracted basis set               ... on
Rotationally invariant grid construction     ... off
Angular grids for H and He will be reduced by one unit

Total number of grid points                  ...    15729
Total number of batches                      ...      128
Average number of points per batch           ...      122
Average number of grid points per atom       ...     1311
UseSFitting                                  ... on

GRIDX 3
-------
General Integration Accuracy     IntAcc      ... 4.338
Radial Grid Type                 RadialGrid  ... OptM3 with GC (2021)
Angular Grid (max. ang.)         AngularGrid ... 3 (Lebedev-194)
Angular grid pruning method      GridPruning ... 4 (adaptive)
Weight generation scheme         WeightScheme... mBecke (2022)
Basis function cutoff            BFCut       ... 1.0000e-11
Integration weight cutoff        WCut        ... 1.0000e-14
Partially contracted basis set               ... on
Rotationally invariant grid construction     ... off
Angular grids for H and He will be reduced by one unit

Total number of grid points                  ...    35191
Total number of batches                      ...      280
Average number of points per batch           ...      125
Average number of grid points per atom       ...     2933
UseSFitting                                  ... on
Initializing property integral containers    ... done (  0.0 sec)

SHARK setup successfully completed in   1.6 seconds

Maximum memory used throughout the entire STARTUP-calculation: 32.2 MB
-------------------------------------------------------------------------------
                                 ORCA GUESS
                   Start orbitals & Density for SCF / CASSCF
-------------------------------------------------------------------------------

------------
SCF SETTINGS
------------
Hamiltonian:
 Density Functional     Method          .... DFT(GTOs)
 Exchange Functional    Exchange        .... WB97X-V
 Correlation Functional Correlation     .... WB97X-V
 Gradients option       PostSCFGGA      .... off
 Hybrid DFT is turned on
   Fraction HF Exchange ScalHFX         ....  0.167000
   Scaling of DF-GGA-X  ScalDFX         ....  0.000000
   Scaling of DF-GGA-C  ScalDFC         ....  1.000000
   Scaling of DF-LDA-C  ScalLDAC        ....  1.000000
   Perturbative correction              ....  0.000000
 Long-range corrected/Screened/Range-Separated Hybrid DFT is turned on
   Amount of maximum screened exact exchange              ....  0.833000
   Range separation parameter mu (erf(mu*r12)/r12)        ....  0.300000
   NL short-range parameter             ....  6.000000
   NL long-range parameter              ....  0.010000
 RI-approximation to the Coulomb term is turned on
   Number of AuxJ basis functions       .... 362
   RIJ-COSX (HFX calculated with COS-X)).... on


General Settings:
 Integral files         IntName         .... sp_solv
 Hartree-Fock type      HFTyp           .... RHF
 Total Charge           Charge          ....    0
 Multiplicity           Mult            ....    1
 Number of Electrons    NEL             ....   58
 Basis Dimension        Dim             ....  228
 Nuclear Repulsion      ENuc            ....    359.0717965025 Eh

Convergence Acceleration:
 AO-DIIS                CNVDIIS         .... on
   Start iteration      DIISMaxIt       ....    12
   Startup error        DIISStart       ....  0.200000
   # of expansion vecs  DIISMaxEq       ....     5
   Bias factor          DIISBfac        ....   1.050
   Max. coefficient     DIISMaxC        ....  10.000
 MO-DIIS                CNVKDIIS        .... off
 Trust-Rad. Augm. Hess. CNVTRAH         .... auto
   Auto Start mean grad. ratio tolernc. ....  1.125000
   Auto Start start iteration           ....     1
   Auto Start num. interpolation iter.  ....    10
   Max. Number of Micro iterations      ....    24
   Max. Number of Macro iterations      .... Maxiter - #DIIS iter
   Number of Davidson start vectors     ....     2
   Converg. threshold    (grad. norm)   ....   1.000e-04
   Grad. Scal. Fac. for Micro threshold ....   0.100
   Minimum threshold for Micro iter.    ....   1.000e-02
   NR start threshold (gradient norm)   ....   1.000e-04
   Initial trust radius                 ....   0.400
   Minimum AH scaling param. (alpha)    ....   1.000
   Maximum AH scaling param. (alpha)    .... 1000.000
   Quad. conv. algorithm                .... NR
   White noise on init. David. guess    .... on
   Maximum white noise                  ....   0.010
   Pseudo random numbers                .... off
   Inactive MOs                         .... canonical
   Orbital update algorithm             .... Taylor
   Preconditioner                       .... Diag
   Full preconditioner red. dimension   ....   250
 SOSCF                  CNVSOSCF        .... on
   Start iteration      SOSCFMaxIt      ....   150
   Startup grad/error   SOSCFStart      ....  0.003300
   Hessian update       SOSCFHessUp     .... L-BFGS
 Level Shifting         CNVShift        .... on
   Level shift para.    LevelShift      ....    0.2500
   Turn off err/grad.   ShiftErr        ....    0.0010
 Zerner damping         CNVZerner       .... off
 Static damping         CNVDamp         .... on
   Fraction old density DampFac         ....    0.7000
   Max. Damping (<1)    DampMax         ....    0.9800
   Min. Damping (>=0)   DampMin         ....    0.0000
   Turn off err/grad.   DampErr         ....    0.1000

SCF Procedure:
 Maximum # iterations   MaxIter         ....   125
 SCF integral mode      SCFMode         .... Direct
   Integral package                     .... SHARK and LIBINT hybrid scheme
 Reset frequency        DirectResetFreq ....    20
 Integral Threshold     Thresh          ....  3.000e-11 Eh
 Primitive CutOff       TCut            ....  1.000e-12 Eh

Convergence Tolerance:
 Convergence Check Mode ConvCheckMode   .... Total+1el-Energy
 Convergence forced     ConvForced      .... 0
 Energy Change          TolE            ....  1.000e-07 Eh
 1-El. energy change                    ....  1.000e-04 Eh
 Orbital Gradient       TolG            ....  1.000e-04
 Orbital Rotation angle TolX            ....  1.000e-04
 DIIS Error             TolErr          ....  1.000e-07

---------------------
INITIAL GUESS: MOREAD
---------------------
Guess MOs are being read from file: sp_solv.ges
Input Geometry matches current geometry (good)
Atom 0: N(Shells)= 11 and 9 - projection required
Input basis set needs projection
NBasis(read)= 167
NBasis(calc)= 228
Basis set overlap was calculated
Using GuessMode=FMatrix for the initial guess
C*T matrix was formed
Effective Fockian was calculated
Effective Fockian was diagonalized
Initial density was built
                      ------------------
                      INITIAL GUESS DONE (   0.0 sec)
                      ------------------
             **** ENERGY FILE WAS UPDATED (sp_solv.en.tmp) ****
Finished Guess after   0.3 sec
Maximum memory used throughout the entire GUESS-calculation: 18.7 MB

-------------------------------------------------------------------------------------------
                                      ORCA LEAN-SCF
                              memory conserving SCF solver
-------------------------------------------------------------------------------------------

--------------------
CPCM SOLVATION MODEL
--------------------
CPCM parameters:
  Epsilon                                         ...      78.3550
  Refrac                                          ...       1.3328
  Rsolv                                           ...       1.3000
  Surface type                                    ... GAUSSIAN VDW
  Discretization scheme                           ... Constant charge density
    Threshold for H atoms                         ...       5.0000 (charges/Ang^2)
    Threshold for non-H atoms                     ...       5.0000 (charges/Ang^2)
  Epsilon function type                           ...         CPCM
Solvent:                                          ... WATER
SMD-CDS solvent descriptors:
  Soln                                            ...       1.3328
  Soln25                                          ...       1.3323
  Sola                                            ...       0.0000
  Solb                                            ...       0.0000
  Solg                                            ...       0.0000
  Solc                                            ...       0.0000
  Solh                                            ...       0.0000
Radii:
  Scheme                                          ... Element-dependent radii
  Radius for C  used is    3.4960 Bohr (=   1.8500 Ang.)
  Radius for O  used is    2.8724 Bohr (=   1.5200 Ang.)
  Radius for S  used is    4.7054 Bohr (=   2.4900 Ang.)
  Radius for H  used is    2.2677 Bohr (=   1.2000 Ang.)
Calculating surface                               ...        done! (  0.0s)
Cavity surface points                             ...         1035
Cavity Volume                                     ...     702.3819
Cavity Surface-area                               ...     434.9540
Calculating surface distance matrix               ...        done! (  0.0s)
Performing Cholesky decomposition & store         ...        done! (  0.0s)
Overall time for CPCM initialization              ...                 0.0s

----------------------------------------D-I-I-S--------------------------------------------
Iteration    Energy (Eh)           Delta-E    RMSDP     MaxDP     DIISErr   Damp  Time(sec)
-------------------------------------------------------------------------------------------
               ***  Starting incremental Fock matrix formation  ***
    1    -703.8621254631633519     0.00e+00  1.08e-03  2.11e-02  6.73e-02  0.700   9.0
    2    -703.8730592882405972    -1.09e-02  8.79e-04  1.73e-02  4.89e-02  0.700   5.1
                               ***Turning on AO-DIIS***
    3    -703.8812262039926964    -8.17e-03  7.07e-04  1.51e-02  3.49e-02  0.700   5.1
    4    -703.8872121432694939    -5.99e-03  1.74e-03  3.48e-02  2.47e-02  0.000   5.1
                              *** Initializing SOSCF ***
---------------------------------------S-O-S-C-F--------------------------------------
Iteration    Energy (Eh)           Delta-E    RMSDP     MaxDP     MaxGrad    Time(sec)
--------------------------------------------------------------------------------------
    5    -703.9024004703470609    -1.52e-02  6.90e-05  2.78e-03  1.57e-03     5.3
               *** Restarting incremental Fock matrix formation ***
    6    -703.9024354611034369    -3.50e-05  3.63e-05  1.55e-03  4.97e-04     8.9
    7    -703.9024406123429571    -5.15e-06  1.77e-05  8.41e-04  1.77e-04     7.5
    8    -703.9024427028456330    -2.09e-06  4.67e-06  1.85e-04  4.35e-05     7.1
    9    -703.9024427994335156    -9.66e-08  1.51e-06  8.03e-05  2.31e-05     5.9
                 **** Energy Check signals convergence ****

               *****************************************************
               *                     SUCCESS                       *
               *           SCF CONVERGED AFTER   9 CYCLES          *
               *****************************************************


------------------
NL GRID GENERATION
------------------

General Integration Accuracy     IntAcc      ... 4.004
Radial Grid Type                 RadialGrid  ... OptM3 with GC (2021)
Angular Grid (max. ang.)         AngularGrid ... 2 (Lebedev-110)
Angular grid pruning method      GridPruning ... 4 (adaptive)
Weight generation scheme         WeightScheme... mBecke (2022)
Basis function cutoff            BFCut       ... 1.0000e-10
Integration weight cutoff        WCut        ... 1.0000e-14
Partially contracted basis set               ... off
Rotationally invariant grid construction     ... off
Angular grids for H and He will be reduced by one unit

Total number of grid points                  ...    17766
Total number of batches                      ...      283
Average number of points per batch           ...       62
Average number of grid points per atom       ...     1480
Final grid set up in    0.1 sec

-------------------------------------------------------------------------------
                    post-SCF DFT-NL dispersion correction                      
-------------------------------------------------------------------------------

SCF Energy:     -703.902442799 
NL    Energy:      0.229119670 
SC+NL Energy:   -703.673323129 
NL done in  :              1.2 sec
-------------------------------------------------------------------------------
Recomputing exchange energy using gridx3       ... done (   14.443 sec)
Old exchange energy                            :    -18.076021251 Eh
New exchange energy                            :    -18.076013532 Eh
Exchange energy change after final integration :      0.000007719 Eh
Total energy after final integration           :   -703.673315410 Eh

SMD CDS free energy correction energy :                 3.08053     Kcal/mol
Total Energy after SMD CDS correction =              -703.668406277 Eh
             **** ENERGY FILE WAS UPDATED (sp_solv.en.tmp) ****

----------------
TOTAL SCF ENERGY
----------------

Total Energy       :       -703.66840627684724 Eh          -19147.79079 eV

Components:
Nuclear Repulsion  :        359.07179650251135 Eh            9770.84032 eV
Electronic Energy  :      -1062.94406988676860 Eh          -28924.17862 eV
One Electron Energy:      -1680.02687302822869 Eh          -45715.85536 eV
Two Electron Energy:        617.08280314146009 Eh           16791.67675 eV
CPCM Dielectric    :         -0.03016941517629 Eh              -0.82095 eV
SMD CDS (Gcds)     :          0.00490913301574 Eh               0.13358 eV

Virial components:
Potential Energy   :      -1405.09965321109144 Eh          -38234.70538 eV
Kinetic Energy     :        701.43124693424420 Eh           19086.91459 eV
Virial Ratio       :          2.00318942070571

DFT components:
N(Alpha)           :       29.000025748758 electrons
N(Beta)            :       29.000025748758 electrons
N(Total)           :       58.000051497516 electrons
E(X)               :      -44.037028712995 Eh       
E(C)               :       -2.630951438597 Eh       
NL Energy, E(C,NL) :        0.229119670244 Eh       
E(XC)              :      -46.438860481348 Eh       

CPCM Solvation Model Properties:
Surface-charge          :         -0.03360735643532
Corrected charge        :          0.00000000000000
Outlying charge corr.   :          0.00009725304211 Eh               0.00265 eV
Free-energy (cav+disp)  :          0.00490913301574 Eh               0.13358 eV

---------------
SCF CONVERGENCE
---------------

  Last Energy change         ...    9.6588e-08  Tolerance :   1.0000e-07
  Last MAX-Density change    ...    8.0267e-05  Tolerance :   1.0000e-05
  Last RMS-Density change    ...    1.5097e-06  Tolerance :   1.0000e-06
  Last DIIS Error            ...    1.5682e-03  Tolerance :   1.0000e-07
  Last Orbital Gradient      ...    2.3122e-05  Tolerance :   1.0000e-04
  Last Orbital Rotation      ...    1.2575e-05  Tolerance :   1.0000e-04


----------------
ORBITAL ENERGIES
----------------

  NO   OCC          E(Eh)            E(eV) 
   0   2.0000     -94.361251     -2567.7002 
   1   2.0000     -21.737105      -591.4967 
   2   2.0000     -21.689611      -590.2043 
   3   2.0000     -21.687929      -590.1586 
   4   2.0000     -12.103593      -329.3555 
   5   2.0000     -12.085478      -328.8626 
   6   2.0000      -9.838908      -267.7303 
   7   2.0000      -7.821055      -212.8217 
   8   2.0000      -7.818741      -212.7587 
   9   2.0000      -7.818380      -212.7489 
  10   2.0000      -1.783999       -48.5451 
  11   2.0000      -1.712683       -46.6045 
  12   2.0000      -1.697801       -46.1995 
  13   2.0000      -1.325382       -36.0655 
  14   2.0000      -1.247563       -33.9479 
  15   2.0000      -1.167420       -31.7671 
  16   2.0000      -1.090211       -29.6661 
  17   2.0000      -1.079122       -29.3644 
  18   2.0000      -1.027595       -27.9623 
  19   2.0000      -0.994287       -27.0559 
  20   2.0000      -0.975337       -26.5403 
  21   2.0000      -0.941942       -25.6315 
  22   2.0000      -0.927012       -25.2253 
  23   2.0000      -0.915891       -24.9227 
  24   2.0000      -0.877669       -23.8826 
  25   2.0000      -0.862468       -23.4689 
  26   2.0000      -0.861684       -23.4476 
  27   2.0000      -0.835914       -22.7464 
  28   2.0000      -0.827215       -22.5097 
  29   0.0000      -0.361660        -9.8413 
  30   0.0000      -0.291779        -7.9397 
  31   0.0000      -0.231712        -6.3052 
  32   0.0000      -0.215147        -5.8544 
  33   0.0000      -0.163978        -4.4621 
  34   0.0000      -0.009301        -0.2531 
  35   0.0000       0.021177         0.5763 
  36   0.0000       0.027825         0.7571 
  37   0.0000       0.040461         1.1010 
  38   0.0000       0.054156         1.4737 
  39   0.0000       0.069685         1.8962 
*Only the first 10 virtual orbitals were printed.

                    ********************************
                    * MULLIKEN POPULATION ANALYSIS *
                    ********************************

-----------------------
MULLIKEN ATOMIC CHARGES
-----------------------
   0 C :   -0.221432
   1 O :   -0.291209
   2 S :    0.865315
   3 O :   -0.520214
   4 O :   -0.517563
   5 C :   -0.383379
   6 H :    0.161293
   7 H :    0.167411
   8 H :    0.162888
   9 H :    0.190931
  10 H :    0.192152
  11 H :    0.193807
Sum of atomic charges:    0.0000000

--------------------------------
MULLIKEN REDUCED ORBITAL CHARGES
--------------------------------
  0 C s       :     3.256805  s :     3.256805
      pz      :     0.802919  p :     2.870793
      px      :     0.962590
      py      :     1.105283
      dz2     :     0.019155  d :     0.086836
      dxz     :     0.018094
      dyz     :     0.024995
      dx2y2   :     0.014927
      dxy     :     0.009666
      f0      :     0.001193  f :     0.006998
      f+1     :     0.001255
      f-1     :     0.000793
      f+2     :     0.001612
      f-2     :     0.001378
      f+3     :     0.000315
      f-3     :     0.000453

  1 O s       :     3.749747  s :     3.749747
      pz      :     1.512018  p :     4.504822
      px      :     1.209208
      py      :     1.783596
      dz2     :     0.009709  d :     0.034870
      dxz     :     0.007757
      dyz     :     0.003954
      dx2y2   :     0.007937
      dxy     :     0.005512
      f0      :     0.000169  f :     0.001770
      f+1     :     0.000285
      f-1     :     0.000107
      f+2     :     0.000369
      f-2     :     0.000105
      f+3     :     0.000415
      f-3     :     0.000320

  2 S s       :     5.398547  s :     5.398547
      pz      :     2.769756  p :     8.618676
      px      :     2.854553
      py      :     2.994366
      dz2     :     0.266930  d :     1.013586
      dxz     :     0.208481
      dyz     :     0.191876
      dx2y2   :     0.221537
      dxy     :     0.124762
      f0      :     0.025543  f :     0.103877
      f+1     :     0.015284
      f-1     :     0.012981
      f+2     :     0.019795
      f-2     :     0.011436
      f+3     :     0.008191
      f-3     :     0.010648

  3 O s       :     3.821515  s :     3.821515
      pz      :     1.399644  p :     4.664371
      px      :     1.612957
      py      :     1.651770
      dz2     :     0.009908  d :     0.032380
      dxz     :     0.008697
      dyz     :     0.008184
      dx2y2   :     0.002634
      dxy     :     0.002957
      f0      :     0.000446  f :     0.001947
      f+1     :     0.000414
      f-1     :     0.000384
      f+2     :     0.000297
      f-2     :     0.000304
      f+3     :     0.000048
      f-3     :     0.000052

  4 O s       :     3.829296  s :     3.829296
      pz      :     1.372859  p :     4.654081
      px      :     1.629278
      py      :     1.651944
      dz2     :     0.010547  d :     0.032264
      dxz     :     0.008449
      dyz     :     0.008665
      dx2y2   :     0.002200
      dxy     :     0.002403
      f0      :     0.000500  f :     0.001922
      f+1     :     0.000400
      f-1     :     0.000442
      f+2     :     0.000256
      f-2     :     0.000258
      f+3     :     0.000031
      f-3     :     0.000034

  5 C s       :     3.226962  s :     3.226962
      pz      :     1.125575  p :     3.105275
      px      :     1.124133
      py      :     0.855567
      dz2     :     0.012267  d :     0.048397
      dxz     :     0.008468
      dyz     :     0.006921
      dx2y2   :     0.016760
      dxy     :     0.003981
      f0      :     0.000166  f :     0.002746
      f+1     :     0.000744
      f-1     :     0.000565
      f+2     :     0.000296
      f-2     :    -0.000073
      f+3     :     0.000380
      f-3     :     0.000669

  6 H s       :     0.818315  s :     0.818315
      pz      :     0.008231  p :     0.020393
      px      :     0.003919
      py      :     0.008243

  7 H s       :     0.811929  s :     0.811929
      pz      :     0.003544  p :     0.020660
      px      :     0.012586
      py      :     0.004530

  8 H s       :     0.816967  s :     0.816967
      pz      :     0.004310  p :     0.020145
      px      :     0.003392
      py      :     0.012443

  9 H s       :     0.787116  s :     0.787116
      pz      :     0.011135  p :     0.021953
      px      :     0.005462
      py      :     0.005356

 10 H s       :     0.785737  s :     0.785737
      pz      :     0.010216  p :     0.022111
      px      :     0.006463
      py      :     0.005431

 11 H s       :     0.784131  s :     0.784131
      pz      :     0.004294  p :     0.022061
      px      :     0.013328
      py      :     0.004439


------------------------
MULLIKEN OVERLAP CHARGES
------------------------
B(  0-C ,  1-O ) :   0.4092 B(  0-C ,  2-S ) :  -0.0520 B(  0-C ,  6-H ) :   0.8377 
B(  0-C ,  7-H ) :   0.7953 B(  0-C ,  8-H ) :   0.8321 B(  1-O ,  2-S ) :   0.6212 
B(  1-O ,  3-O ) :  -0.1042 B(  1-O ,  4-O ) :  -0.0936 B(  1-O ,  5-C ) :  -0.0845 
B(  1-O ,  6-H ) :  -0.0607 B(  1-O ,  7-H ) :  -0.0527 B(  1-O ,  8-H ) :  -0.0742 
B(  2-S ,  3-O ) :   1.2192 B(  2-S ,  4-O ) :   1.1235 B(  2-S ,  5-C ) :   0.6501 
B(  3-O ,  4-O ) :  -0.1080 B(  3-O ,  5-C ) :  -0.1200 B(  4-O ,  5-C ) :  -0.1159 
B(  5-C ,  9-H ) :   0.7604 B(  5-C , 10-H ) :   0.7529 B(  5-C , 11-H ) :   0.7589 
B(  6-H ,  8-H ) :  -0.0648 


                     *******************************
                     * LOEWDIN POPULATION ANALYSIS *
                     *******************************

----------------------
LOEWDIN ATOMIC CHARGES
----------------------
   0 C :   -0.310865
   1 O :   -0.043876
   2 S :    0.666791
   3 O :   -0.354356
   4 O :   -0.349292
   5 C :   -0.382302
   6 H :    0.113492
   7 H :    0.125054
   8 H :    0.115664
   9 H :    0.139165
  10 H :    0.138694
  11 H :    0.141832

-------------------------------
LOEWDIN REDUCED ORBITAL CHARGES
-------------------------------
  0 C s       :     2.881106  s :     2.881106
      pz      :     0.908021  p :     3.030209
      px      :     1.001875
      py      :     1.120313
      dz2     :     0.083712  d :     0.350380
      dxz     :     0.078719
      dyz     :     0.096280
      dx2y2   :     0.066079
      dxy     :     0.025589
      f0      :     0.009803  f :     0.049170
      f+1     :     0.012401
      f-1     :     0.004917
      f+2     :     0.006303
      f-2     :     0.009557
      f+3     :     0.002390
      f-3     :     0.003799

  1 O s       :     3.395345  s :     3.395345
      pz      :     1.538188  p :     4.551603
      px      :     1.318845
      py      :     1.694570
      dz2     :     0.023639  d :     0.091879
      dxz     :     0.019743
      dyz     :     0.009281
      dx2y2   :     0.026243
      dxy     :     0.012973
      f0      :     0.000885  f :     0.005049
      f+1     :     0.000900
      f-1     :     0.000397
      f+2     :     0.000901
      f-2     :     0.000486
      f+3     :     0.000909
      f-3     :     0.000570

  2 S s       :     4.781397  s :     4.781397
      pz      :     2.857753  p :     8.605399
      px      :     2.809457
      py      :     2.938189
      dz2     :     0.445453  d :     1.638873
      dxz     :     0.329780
      dyz     :     0.309387
      dx2y2   :     0.366505
      dxy     :     0.187749
      f0      :     0.070915  f :     0.307540
      f+1     :     0.051149
      f-1     :     0.041196
      f+2     :     0.054489
      f-2     :     0.035786
      f+3     :     0.025715
      f-3     :     0.028290

  3 O s       :     3.575543  s :     3.575543
      pz      :     1.511541  p :     4.713114
      px      :     1.588055
      py      :     1.613518
      dz2     :     0.019319  d :     0.061524
      dxz     :     0.017238
      dyz     :     0.016481
      dx2y2   :     0.003764
      dxy     :     0.004721
      f0      :     0.000745  f :     0.004175
      f+1     :     0.001081
      f-1     :     0.000968
      f+2     :     0.000485
      f-2     :     0.000704
      f+3     :     0.000095
      f-3     :     0.000098

  4 O s       :     3.575862  s :     3.575862
      pz      :     1.503022  p :     4.707234
      px      :     1.588499
      py      :     1.615713
      dz2     :     0.022284  d :     0.062036
      dxz     :     0.015247
      dyz     :     0.017736
      dx2y2   :     0.003217
      dxy     :     0.003552
      f0      :     0.000931  f :     0.004160
      f+1     :     0.000950
      f-1     :     0.001149
      f+2     :     0.000451
      f-2     :     0.000553
      f+3     :     0.000062
      f-3     :     0.000065

  5 C s       :     2.908738  s :     2.908738
      pz      :     1.126604  p :     3.254130
      px      :     1.122629
      py      :     1.004898
      dz2     :     0.044231  d :     0.201797
      dxz     :     0.025232
      dyz     :     0.033254
      dx2y2   :     0.074871
      dxy     :     0.024210
      f0      :     0.000973  f :     0.017636
      f+1     :     0.002804
      f-1     :     0.003647
      f+2     :     0.001311
      f-2     :     0.002004
      f+3     :     0.002583
      f-3     :     0.004314

  6 H s       :     0.822978  s :     0.822978
      pz      :     0.024888  p :     0.063530
      px      :     0.012942
      py      :     0.025700

  7 H s       :     0.812388  s :     0.812388
      pz      :     0.012044  p :     0.062558
      px      :     0.036254
      py      :     0.014259

  8 H s       :     0.821151  s :     0.821151
      pz      :     0.013559  p :     0.063185
      px      :     0.011417
      py      :     0.038209

  9 H s       :     0.794101  s :     0.794101
      pz      :     0.033900  p :     0.066734
      px      :     0.017161
      py      :     0.015673

 10 H s       :     0.794255  s :     0.794255
      pz      :     0.031246  p :     0.067052
      px      :     0.019968
      py      :     0.015838

 11 H s       :     0.791531  s :     0.791531
      pz      :     0.013298  p :     0.066637
      px      :     0.040116
      py      :     0.013223


---------------------------------
LOEWDIN BOND ORDERS (THRESH 0.050000)
---------------------------------
B(  0-C ,  1-O ) :   1.4175 B(  0-C ,  2-S ) :   0.1360 B(  0-C ,  6-H ) :   0.9440 
B(  0-C ,  7-H ) :   0.9333 B(  0-C ,  8-H ) :   0.9403 B(  1-O ,  2-S ) :   1.4079 
B(  1-O ,  3-O ) :   0.1007 B(  1-O ,  4-O ) :   0.0989 B(  1-O ,  5-C ) :   0.0901 
B(  1-O ,  7-H ) :   0.0510 B(  2-S ,  3-O ) :   2.3079 B(  2-S ,  4-O ) :   2.2914 
B(  2-S ,  5-C ) :   1.1387 B(  2-S ,  9-H ) :   0.0607 B(  2-S , 10-H ) :   0.0601 
B(  2-S , 11-H ) :   0.0652 B(  3-O ,  4-O ) :   0.1196 B(  3-O ,  5-C ) :   0.1176 
B(  4-O ,  5-C ) :   0.1192 B(  5-C ,  9-H ) :   0.9176 B(  5-C , 10-H ) :   0.9143 
B(  5-C , 11-H ) :   0.9120 

------------------------------------------
LOEWDIN REDUCED ORBITAL POPULATIONS PER MO
-------------------------------------------
THRESHOLD FOR PRINTING IS 0.1%%
                      0         1         2         3         4         5   
                 -94.36125 -21.73710 -21.68961 -21.68793 -12.10359 -12.08548
                   2.00000   2.00000   2.00000   2.00000   2.00000   2.00000
                  --------  --------  --------  --------  --------  --------
 0 C  s               0.0       0.0       0.0       0.0      99.7       0.0
 1 O  s               0.0      99.9       0.0       0.0       0.0       0.0
 2 S  s             100.0       0.0       0.0       0.0       0.0       0.0
 3 O  s               0.0       0.0       0.0      99.9       0.0       0.0
 4 O  s               0.0       0.0      99.9       0.0       0.0       0.0
 5 C  s               0.0       0.0       0.0       0.0       0.0      99.7

                      6         7         8         9        10        11   
                  -9.83891  -7.82105  -7.81874  -7.81838  -1.78400  -1.71268
                   2.00000   2.00000   2.00000   2.00000   2.00000   2.00000
                  --------  --------  --------  --------  --------  --------
 0 C  s               0.0       0.0       0.0       0.0       1.3       3.4
 0 C  pz              0.0       0.0       0.0       0.0       1.7       4.0
 0 C  px              0.0       0.0       0.0       0.0       1.5       2.0
 0 C  dz2             0.0       0.0       0.0       0.0       0.2       0.6
 0 C  dxz             0.0       0.0       0.0       0.0       0.7       1.8
 0 C  dx2y2           0.0       0.0       0.0       0.0       0.1       0.2
 0 C  f+1             0.0       0.0       0.0       0.0       0.1       0.3
 0 C  f+2             0.0       0.0       0.0       0.0       0.0       0.1
 1 O  s               0.0       0.0       0.0       0.0      17.3      42.7
 1 O  pz              0.0       0.0       0.0       0.0       0.1       0.4
 1 O  px              0.2       0.0       0.0       0.0       1.9       0.3
 1 O  dx2y2           0.0       0.0       0.0       0.0       0.2       0.0
 2 S  s              98.7       0.0       0.0       0.0      19.9       0.9
 2 S  pz              0.0       1.2      98.2       0.5       0.0       0.1
 2 S  px              0.0      96.4       1.4       2.2       0.0      11.9
 2 S  py              0.0       2.4       0.3      97.3       2.6       0.6
 2 S  dz2             0.0       0.0       0.0       0.0       1.1       4.5
 2 S  dxz             0.0       0.0       0.0       0.0       0.0       0.1
 2 S  dx2y2           0.0       0.0       0.0       0.0       0.7       2.3
 2 S  dxy             0.0       0.0       0.0       0.0       0.1       0.7
 2 S  f+1             0.0       0.0       0.0       0.0       0.9       0.0
 2 S  f-1             0.0       0.0       0.0       0.0       0.4       0.4
 2 S  f+3             0.0       0.0       0.0       0.0       0.2       0.3
 3 O  s               0.0       0.0       0.0       0.0      18.8       8.8
 3 O  pz              0.2       0.0       0.0       0.0       2.5       0.5
 3 O  px              0.0       0.0       0.0       0.0       0.6       0.1
 3 O  py              0.0       0.0       0.0       0.0       0.4       0.1
 3 O  dz2             0.0       0.0       0.0       0.0       0.1       0.1
 3 O  dxz             0.0       0.0       0.0       0.0       0.1       0.0
 4 O  s               0.0       0.0       0.0       0.0      17.9      10.2
 4 O  pz              0.2       0.0       0.0       0.0       2.6       0.6
 4 O  px              0.0       0.0       0.0       0.0       0.3       0.1
 4 O  py              0.0       0.0       0.0       0.0       0.4       0.1
 4 O  dz2             0.0       0.0       0.0       0.0       0.2       0.1
 5 C  s               0.0       0.0       0.0       0.0       0.7       0.0
 5 C  px              0.0       0.0       0.0       0.0       0.0       0.1
 5 C  py              0.1       0.0       0.0       0.0       2.4       0.1
 5 C  dx2y2           0.1       0.0       0.0       0.0       0.3       0.0
 6 H  s               0.0       0.0       0.0       0.0       0.2       0.3
 7 H  s               0.0       0.0       0.0       0.0       0.2       0.4
 8 H  s               0.0       0.0       0.0       0.0       0.2       0.3
 9 H  s               0.0       0.0       0.0       0.0       0.1       0.0
10 H  s               0.0       0.0       0.0       0.0       0.1       0.0
11 H  s               0.0       0.0       0.0       0.0       0.1       0.0

                     12        13        14        15        16        17   
                  -1.69780  -1.32538  -1.24756  -1.16742  -1.09021  -1.07912
                   2.00000   2.00000   2.00000   2.00000   2.00000   2.00000
                  --------  --------  --------  --------  --------  --------
 0 C  s               0.0       5.3      16.7       7.8       3.4       2.2
 0 C  pz              0.0       1.1       0.4       1.1       5.7       1.4
 0 C  px              0.1       0.2       0.1       0.2       0.1       0.7
 0 C  py              0.0       0.1       0.0       0.0       0.4       0.1
 0 C  dz2             0.0       0.2       0.0       0.3       1.2       0.1
 0 C  dxz             0.0       0.0       0.0       0.1       0.1       0.1
 0 C  dyz             0.0       0.0       0.0       0.0       0.1       0.0
 0 C  dx2y2           0.0       0.0       0.0       0.0       0.1       0.0
 1 O  s               0.0       0.9       0.7       2.9       2.8       0.2
 1 O  pz              0.2       1.3       7.8       6.8       6.3       0.4
 1 O  px              0.0      14.6      14.3       0.4      20.3       1.3
 1 O  py              0.0       0.4       0.4       0.1       2.0       0.4
 1 O  dz2             0.0       0.3       0.2       0.0       0.0       0.0
 1 O  dxz             0.0       0.2       0.3       0.0       0.0       0.1
 1 O  dx2y2           0.0       0.2       0.0       0.2       0.2       0.0
 1 O  dxy             0.0       0.1       0.0       0.0       0.0       0.0
 2 S  s               0.0      12.2       0.1       5.2       0.1       0.0
 2 S  pz             23.8       0.0       0.3       0.3       1.0      14.2
 2 S  px              0.1       1.7       4.2       0.3      15.1       0.5
 2 S  py              0.0       7.8       7.9       2.3       0.2       0.0
 2 S  dz2             0.0       2.0       0.1       0.1       0.3       0.0
 2 S  dxz             3.6       0.1       0.5       0.3       0.4       0.4
 2 S  dyz             4.0       0.0       0.0       0.0       0.0       0.5
 2 S  dx2y2           0.0       0.6       1.6       0.1       0.1       0.0
 2 S  dxy             0.0       0.3       0.0       0.0       0.1       0.0
 2 S  f0              0.3       0.0       0.1       0.0       0.0       0.0
 2 S  f+1             0.0       0.1       0.0       0.1       0.0       0.0
 2 S  f-2             0.6       0.0       0.0       0.0       0.0       0.0
 3 O  s              31.7       5.6       0.0       4.2       4.2       4.5
 3 O  pz              1.2       2.7       0.0       9.1      17.5      11.2
 3 O  px              0.3       1.0       0.4       1.4       0.2       8.3
 3 O  py              0.2       1.2       0.2       0.6       3.0       5.4
 3 O  dz2             0.0       0.0       0.0       0.2       0.2       0.0
 3 O  dxz             0.1       0.1       0.1       0.1       0.0       0.2
 3 O  dyz             0.1       0.1       0.0       0.1       0.1       0.1
 4 O  s              31.4       4.8       0.1       6.4       0.3       6.7
 4 O  pz              1.2       2.7       0.0      13.2       3.2      23.8
 4 O  px              0.2       0.5       0.1       1.6       2.2       4.0
 4 O  py              0.2       1.2       0.4       1.2       0.1       7.3
 4 O  dz2             0.0       0.0       0.0       0.3       0.2       0.1
 4 O  dxz             0.0       0.1       0.0       0.1       0.1       0.1
 4 O  dyz             0.1       0.2       0.0       0.1       0.0       0.2
 5 C  s               0.0      13.6      16.3      10.9       0.0       0.0
 5 C  pz              0.2       0.0       0.0       0.0       0.0       0.4
 5 C  px              0.0       0.1       0.0       0.0       0.5       0.0
 5 C  py              0.0       3.2       0.4       0.9       0.0       0.0
 5 C  dz2             0.0       0.3       0.0       0.1       0.0       0.0
 5 C  dyz             0.2       0.0       0.0       0.0       0.0       0.3
 5 C  dx2y2           0.0       0.6       0.0       0.3       0.0       0.0
 5 C  dxy             0.0       0.1       0.0       0.0       0.3       0.0
 6 H  s               0.0       0.9       3.5       2.7       2.7       1.3
 6 H  pz              0.0       0.1       0.3       0.1       0.0       0.0
 6 H  py              0.0       0.0       0.2       0.2       0.2       0.1
 7 H  s               0.0       1.1       4.2       2.2       0.6       1.1
 7 H  px              0.0       0.2       0.5       0.2       0.0       0.0
 8 H  s               0.0       0.7       3.7       2.6       2.9       1.4
 8 H  py              0.0       0.1       0.4       0.3       0.3       0.1
 9 H  s               0.0       2.5       3.7       3.7       0.0       0.1
 9 H  pz              0.0       0.2       0.3       0.3       0.0       0.0
10 H  s               0.0       2.5       3.9       3.5       0.1       0.1
10 H  pz              0.0       0.1       0.2       0.2       0.0       0.0
11 H  s               0.0       2.5       4.1       3.5       0.0       0.0
11 H  px              0.0       0.2       0.4       0.4       0.0       0.0

                     18        19        20        21        22        23   
                  -1.02759  -0.99429  -0.97534  -0.94194  -0.92701  -0.91589
                   2.00000   2.00000   2.00000   2.00000   2.00000   2.00000
                  --------  --------  --------  --------  --------  --------
 0 C  s               0.2       3.6       0.1       0.1       0.0       0.1
 0 C  pz              0.9       5.5       0.8       2.8       0.1       0.4
 0 C  px              0.1      13.1       0.1       0.1       0.2       0.5
 0 C  py              2.4       0.7       7.3       0.0       0.0       0.1
 0 C  dz2             0.1       0.1       0.1       0.1       0.0       0.0
 0 C  dxz             0.0       0.7       0.1       0.0       0.0       0.1
 0 C  dyz             0.3       0.0       0.6       0.0       0.0       0.0
 0 C  dx2y2           0.0       0.3       0.0       0.0       0.0       0.0
 0 C  dxy             0.4       0.1       0.5       0.0       0.0       0.0
 0 C  f-2             0.1       0.0       0.1       0.0       0.0       0.0
 1 O  s               0.0       1.4       0.1       0.1       0.0       0.2
 1 O  pz              0.2      45.6       0.0       0.7       0.7       3.0
 1 O  px              1.1       0.4       0.3       6.9       0.0       0.1
 1 O  py             25.8       0.1      41.6       0.5       0.0       0.0
 1 O  dxz             0.0       0.0       0.0       0.0       0.0       0.1
 1 O  dxy             0.1       0.0       0.0       0.0       0.0       0.0
 2 S  s               0.3       0.0       0.1       0.1       0.0       0.0
 2 S  pz              0.0       0.9       0.0       0.0       0.7       1.3
 2 S  px              0.2       0.1       0.1       4.6       0.0       0.0
 2 S  py             16.4       0.0       4.1       0.1       0.0       0.0
 2 S  dz2             0.8       0.0       1.1       8.0       0.0       0.0
 2 S  dxz             0.0       4.3       0.0       0.1       1.5       4.9
 2 S  dyz             0.0       0.1       0.0       0.0       9.7       0.7
 2 S  dx2y2           1.5       0.0       0.0       3.4       0.0       0.0
 2 S  dxy             0.7       0.0       4.8       0.1       0.0       0.0
 2 S  f0              0.0       0.2       0.0       0.0       0.2       2.1
 2 S  f+1             0.1       0.0       0.0       0.3       0.0       0.1
 2 S  f-1             0.0       0.0       0.2       0.4       0.0       0.0
 2 S  f+2             0.0       0.1       0.0       0.0       1.4       0.5
 2 S  f-2             0.0       0.1       0.0       0.0       0.2       0.8
 2 S  f+3             0.0       0.0       0.2       0.1       0.0       0.0
 2 S  f-3             0.2       0.0       0.4       0.3       0.0       0.0
 3 O  s               0.1       0.3       0.0       0.2       0.0       0.1
 3 O  pz              2.3       2.1       3.6       2.2       3.0      16.8
 3 O  px              1.5       0.2       0.0      31.6       9.5      22.9
 3 O  py              6.6       0.9       9.2       0.4      26.4       1.6
 4 O  s               0.1       0.3       0.0       0.2       0.0       0.1
 4 O  pz              2.4       3.0       3.9       0.7       4.4      12.3
 4 O  px              1.0       0.4       0.1      32.2       8.4      27.1
 4 O  py              6.8       1.3       9.0       0.5      27.8       1.9
 4 O  dyz             0.1       0.0       0.0       0.0       0.0       0.0
 5 C  s               3.5       0.0       0.3       0.0       0.0       0.0
 5 C  pz              0.0       0.0       0.0       0.0       3.8       0.9
 5 C  px              0.2       0.0       0.6       0.6       0.0       0.0
 5 C  py             11.3       0.0       4.2       0.2       0.0       0.0
 5 C  dz2             0.3       0.0       0.0       0.1       0.0       0.0
 5 C  dyz             0.0       0.0       0.0       0.0       0.2       0.0
 5 C  dx2y2           0.8       0.0       0.4       0.0       0.0       0.0
 6 H  s               1.1       1.9       1.7       0.8       0.1       0.2
 6 H  pz              0.1       0.0       0.1       0.0       0.0       0.0
 6 H  px              0.0       0.2       0.0       0.0       0.0       0.0
 7 H  s               0.2       6.4       0.2       0.1       0.1       0.1
 7 H  pz              0.0       0.3       0.0       0.0       0.0       0.0
 7 H  px              0.0       0.2       0.0       0.0       0.0       0.0
 8 H  s               0.0       3.9       0.8       0.3       0.0       0.2
 8 H  px              0.0       0.2       0.0       0.0       0.0       0.0
 8 H  py              0.0       0.2       0.0       0.0       0.0       0.0
 9 H  s               2.6       0.0       0.7       0.1       0.6       0.2
 9 H  pz              0.2       0.0       0.1       0.0       0.0       0.0
10 H  s               2.7       0.0       0.8       0.1       0.6       0.2
10 H  pz              0.2       0.0       0.1       0.0       0.0       0.0
11 H  s               2.7       0.0       0.2       0.1       0.0       0.0
11 H  px              0.3       0.0       0.0       0.0       0.0       0.0

                     24        25        26        27        28        29   
                  -0.87767  -0.86247  -0.86168  -0.83591  -0.82721  -0.36166
                   2.00000   2.00000   2.00000   2.00000   2.00000   0.00000
                  --------  --------  --------  --------  --------  --------
 0 C  s               0.0       0.0       0.0       0.0       0.0       0.2
 0 C  pz              2.2       0.1       0.0      16.8       0.3       1.1
 0 C  px              2.3       0.0       0.0      28.4       0.3       1.1
 0 C  py              3.7       0.3       0.0       0.2      40.6       0.0
 0 C  dz2             0.0       0.0       0.0       1.0       0.3       0.2
 0 C  dxz             0.0       0.0       0.0       0.0       0.1       0.4
 0 C  dyz             0.0       0.0       0.0       0.3       3.3       0.0
 0 C  dx2y2           0.1       0.0       0.0       1.8       0.6       0.3
 0 C  dxy             0.0       0.0       0.0       0.1       0.1       0.0
 0 C  f0              0.0       0.0       0.0       0.2       0.0       0.1
 0 C  f+2             0.0       0.0       0.0       0.0       0.0       0.1
 0 C  f-2             0.0       0.0       0.0       0.0       0.2       0.0
 0 C  f-3             0.0       0.0       0.0       0.0       0.1       0.0
 1 O  s               0.1       0.0       0.0       0.3       0.0       5.6
 1 O  pz              0.0       0.0       0.0       3.2       0.1       2.3
 1 O  px              1.2       0.0       0.0       2.5       0.0      16.4
 1 O  py              0.9       0.2       0.6       0.0      12.0       0.3
 1 O  dz2             0.1       0.0       0.0       0.4       0.0       0.4
 1 O  dyz             0.0       0.0       0.0       0.0       0.3       0.0
 1 O  dx2y2           0.0       0.0       0.0       0.3       0.0       2.1
 1 O  dxy             0.1       0.0       0.0       0.0       0.2       0.1
 2 S  s               1.4       0.1       0.0       0.1       0.1      15.0
 2 S  pz              0.0       0.1       0.2       0.0       0.0       0.0
 2 S  px              0.2       0.2       0.1       0.9       0.1      12.4
 2 S  py              4.1       0.2       0.0       0.6       0.1       3.3
 2 S  dz2             3.8       0.2       0.0       0.0       0.2       0.3
 2 S  dyz             0.0       0.1       0.2       0.0       0.0       0.0
 2 S  dx2y2           6.2       0.3       0.0       0.7       0.8       0.6
 2 S  dxy             0.3       1.0       0.4       0.1       0.7       0.1
 2 S  f0              0.0       0.2       0.4       0.0       0.0       0.1
 2 S  f+1             0.5       0.2       0.0       0.1       0.0       1.6
 2 S  f-1             0.2       0.0       0.0       0.1       0.0       1.8
 2 S  f+2             0.0       0.1       0.4       0.0       0.0       0.1
 2 S  f+3             0.0       0.3       0.2       0.0       0.1       1.3
 2 S  f-3             0.0       0.0       0.0       0.0       0.2       0.6
 3 O  s               0.2       0.0       0.0       0.0       0.0       1.0
 3 O  pz              0.1       0.4       0.1       0.0       0.1       3.4
 3 O  px              0.0       0.6       0.1       0.8       0.0       5.5
 3 O  py             19.2       0.1       3.5       1.2       0.2       0.2
 3 O  dz2             0.0       0.0       0.0       0.0       0.0       0.2
 3 O  dxz             0.0       0.0       0.0       0.0       0.0       0.8
 3 O  dx2y2           0.0       0.0       0.0       0.0       0.0       0.1
 4 O  s               0.3       0.0       0.0       0.0       0.0       1.3
 4 O  pz              0.2       0.0       0.4       0.1       0.1       4.6
 4 O  px              0.0       0.4       0.4       0.3       0.0       5.8
 4 O  py             14.1       5.3       1.7       1.0       0.3       0.1
 4 O  dz2             0.0       0.0       0.0       0.0       0.0       0.3
 4 O  dxz             0.0       0.0       0.0       0.0       0.0       0.8
 5 C  s               0.2       0.0       0.0       0.0       0.0       0.9
 5 C  pz              0.7      16.3      33.4       0.0       0.5       0.0
 5 C  px              3.3      32.1      18.0       0.1       0.3       0.2
 5 C  py             20.6       2.7       0.1       2.2       1.9       4.0
 5 C  dz2             0.1       1.0       0.2       0.0       0.0       0.2
 5 C  dxz             0.0       0.2       1.0       0.0       0.0       0.0
 5 C  dyz             0.0       0.3       0.6       0.0       0.0       0.0
 5 C  dx2y2           0.7       0.3       0.1       0.0       0.0       0.2
 5 C  dxy             0.0       0.3       0.1       0.0       0.0       0.7
 6 H  s               0.0       0.1       0.0      11.9      11.8       0.0
 6 H  pz              0.0       0.0       0.0       0.1       0.4       0.0
 6 H  px              0.0       0.0       0.0       0.1       0.1       0.0
 6 H  py              0.1       0.0       0.0       0.4       0.0       0.0
 7 H  s               2.2       0.0       0.0      20.4       1.2       0.2
 7 H  px              0.1       0.0       0.0       0.5       0.1       0.0
 7 H  py              0.0       0.0       0.0       0.1       0.4       0.0
 8 H  s               2.6       0.1       0.1       1.2      20.1       0.0
 8 H  pz              0.0       0.0       0.0       0.1       0.2       0.0
 8 H  px              0.0       0.0       0.0       0.3       0.0       0.0
 8 H  py              0.1       0.0       0.0       0.1       0.3       0.0
 9 H  s               0.2      19.6       5.3       0.1       0.1       0.0
 9 H  pz              0.0       0.6       0.0       0.0       0.0       0.0
 9 H  px              0.1       0.0       0.6       0.0       0.0       0.0
 9 H  py              0.3       0.1       0.1       0.0       0.0       0.1
10 H  s               1.7       0.0      22.9       0.1       0.3       0.0
10 H  pz              0.0       0.2       0.4       0.0       0.0       0.0
10 H  px              0.1       0.4       0.1       0.0       0.0       0.0
10 H  py              0.2       0.0       0.3       0.0       0.0       0.1
11 H  s               4.5      14.3       6.8       0.2       0.5       0.3
11 H  pz              0.0       0.1       0.5       0.0       0.0       0.0
11 H  px              0.2       0.4       0.1       0.0       0.0       0.0
11 H  py              0.2       0.2       0.0       0.0       0.0       0.1

                     30        31        32        33        34        35   
                  -0.29178  -0.23171  -0.21515  -0.16398  -0.00930   0.02118
                   0.00000   0.00000   0.00000   0.00000   0.00000   0.00000
                  --------  --------  --------  --------  --------  --------
 0 C  s               0.0       1.8       0.0       5.3       9.8       1.4
 0 C  pz              0.1       3.9       0.0      18.5       1.0       0.4
 0 C  px              0.1       2.4       0.0      13.1       0.6       0.7
 0 C  py              0.0       0.1       0.0       0.3       2.2       0.2
 0 C  dz2             0.0       0.1       0.0       2.7       0.8       0.1
 0 C  dxz             0.0       0.3       0.0       5.6       0.8       0.7
 0 C  dyz             0.0       0.0       0.2       0.3       0.1       0.0
 0 C  dx2y2           0.0       0.5       0.0       0.1       0.3       0.3
 0 C  dxy             0.0       0.0       0.0       0.3       0.3       0.0
 0 C  f+1             0.0       0.1       0.0       1.0       0.0       0.0
 0 C  f+2             0.0       0.0       0.0       0.4       0.1       0.0
 1 O  s               0.5       1.3       0.0       3.6       0.2       0.2
 1 O  pz              0.2       0.2       0.0      15.5       0.2       0.8
 1 O  px              0.7       1.2       0.0      10.3       0.0       0.0
 1 O  py              1.8       0.0       3.7       0.1       0.0       2.0
 1 O  dz2             0.0       0.1       0.0       1.7       0.0       0.0
 1 O  dxz             0.0       3.0       0.0       2.0       0.3       0.3
 1 O  dyz             0.0       0.0       0.0       0.2       0.1       0.0
 1 O  dx2y2           0.0       0.1       0.0       0.0       0.1       0.1
 1 O  dxy             0.2       0.0       1.0       0.1       0.1       0.1
 2 S  s               5.2       0.0       2.2       0.4       0.5       0.1
 2 S  pz              0.0      27.9       0.3       3.4       0.0       0.2
 2 S  px             26.8       0.1       0.0       0.8       0.1       0.4
 2 S  py              1.2       0.2      29.8       0.1       0.2       0.3
 2 S  dz2             5.9       0.0       3.9       0.0       0.0       0.3
 2 S  dxz             0.2       8.9       0.0       0.1       0.5       2.3
 2 S  dyz             0.0       9.3       0.2       2.7       0.6       1.2
 2 S  dx2y2           2.2       0.2       7.4       0.8       0.4       0.2
 2 S  dxy             3.9       0.1       1.4       0.1       0.1       4.4
 2 S  f0              0.0       1.6       0.0       0.0       0.0       0.0
 2 S  f+1             1.4       0.0       0.0       0.0       0.1       0.0
 2 S  f-1             1.2       0.0       0.0       0.0       0.1       0.0
 2 S  f+2             0.0       0.0       0.0       0.2       0.1       0.2
 2 S  f-2             0.0       0.1       0.0       0.0       0.0       0.0
 2 S  f+3             0.0       0.0       0.0       0.0       0.0       0.4
 2 S  f-3             0.3       0.0       0.5       0.0       0.1       0.0
 3 O  s               2.1       2.2       0.0       0.2       0.3       0.2
 3 O  pz             12.5       1.1       0.8       0.2       0.0       0.1
 3 O  px              1.7       5.1       0.1       0.3       0.4       0.0
 3 O  py              0.9       4.0       6.7       0.5       0.4       0.5
 3 O  dz2             1.5       0.0       0.3       0.0       0.0       0.1
 3 O  dxz             0.0       0.5       0.1       0.2       0.1       0.0
 3 O  dyz             0.5       0.4       0.9       0.1       0.0       0.1
 3 O  dx2y2           0.1       0.0       0.1       0.0       0.0       0.2
 3 O  dxy             0.0       0.4       0.3       0.1       0.0       0.0
 4 O  s               1.9       1.9       0.3       0.4       0.5       0.0
 4 O  pz             11.1       1.3       1.3       0.0       0.3       0.3
 4 O  px              3.2       3.5       0.4       0.1       0.2       3.1
 4 O  py              0.7       5.8       4.5       1.5       0.0       0.2
 4 O  dz2             1.4       0.0       0.3       0.0       0.0       0.1
 4 O  dxz             0.1       0.5       0.2       0.0       0.0       0.2
 4 O  dyz             0.4       0.7       0.6       0.2       0.1       0.0
 4 O  dxy             0.1       0.4       0.1       0.0       0.0       0.0
 5 C  s               0.6       0.0       4.7       0.0      10.0       4.2
 5 C  pz              0.0       0.2       0.0       0.0       2.0       5.0
 5 C  px              0.2       0.0       0.2       0.0       0.3       8.1
 5 C  py              2.5       0.2      18.9       0.1       2.8       0.9
 5 C  dz2             0.0       0.0       1.3       0.0       0.4       1.2
 5 C  dxz             0.0       0.0       0.0       0.0       1.1       5.7
 5 C  dyz             0.0       4.6       0.1       1.1       0.5       1.7
 5 C  dx2y2           1.0       0.0       3.2       0.0       3.3       5.4
 5 C  dxy             2.6       0.0       0.3       0.1       0.0       1.3
 5 C  f0              0.0       0.2       0.0       0.0       0.0       0.0
 5 C  f+1             0.0       0.0       0.0       0.0       0.2       0.1
 5 C  f-1             0.1       0.0       0.2       0.0       0.0       0.0
 5 C  f+2             0.0       0.2       0.0       0.0       0.0       0.0
 5 C  f+3             0.2       0.0       0.1       0.0       0.0       0.2
 5 C  f-3             0.1       0.0       0.3       0.0       0.0       0.0
[...]
 4 O  f+2             0.8       1.0       0.1       1.2       0.0       0.1
 4 O  f-2             0.0       0.4       2.0       0.0       0.7       0.2
 4 O  f+3             0.2       0.2       0.3       0.1       0.0       0.1
 4 O  f-3             0.2       0.0       0.2       0.0       0.0       0.0
 5 C  pz              0.0       0.0       0.0       0.2       0.0       0.0

                    216       217       218       219       220       221   
                   6.41421   6.50350   6.72402   8.27949   8.38826   8.61023
                   0.00000   0.00000   0.00000   0.00000   0.00000   0.00000
                  --------  --------  --------  --------  --------  --------
 0 C  s               0.0       0.2       2.0       0.0       0.0       0.0
 0 C  pz              0.0       0.0       1.8       0.0       0.0       0.0
 0 C  px              0.0       0.5       0.6       0.0       0.0       0.0
 0 C  dz2             0.0       0.4       0.5       0.0       0.0       0.0
 0 C  dxz             0.0       0.2       0.9       0.0       0.0       0.0
 0 C  dx2y2           0.0       0.1       0.0       0.0       0.0       0.0
 0 C  f0              0.0       0.4       0.0       0.0       0.0       0.0
 0 C  f-1             0.0       0.1       0.0       0.0       0.0       0.0
 1 O  s               0.0       0.5       2.8       0.1       0.0       0.0
 1 O  pz              0.0       0.3       0.7       0.0       0.0       0.0
 1 O  px              0.0       0.8       0.7       0.0       0.0       0.0
 1 O  dz2             0.3      42.3       2.7       0.5       0.0       0.0
 1 O  dxz             0.0       0.8      53.8       0.0       0.0       0.0
 1 O  dyz             0.0       0.7       0.9       0.0       0.0       0.0
 1 O  dx2y2           1.8      35.8      12.4       0.4       0.3       0.0
 1 O  dxy             0.0       3.9       1.1       0.0       0.0       0.0
 1 O  f0              0.0       2.4       0.3       0.1       0.0       0.0
 1 O  f+1             0.0       0.0       4.1       0.4       0.0       0.0
 1 O  f-1             0.0       0.4       0.2       0.0       0.0       0.0
 1 O  f+2             0.1       0.8       0.3       0.1       0.0       0.0
 1 O  f-2             0.0       0.2       0.3       0.0       0.0       0.0
 1 O  f+3             0.0       0.1       0.0       0.7       0.1       0.0
 1 O  f-3             0.0       0.2       0.0       0.2       0.1       0.0
 2 S  s               0.0       0.4       0.0       0.0       0.2       0.0
 2 S  pz              4.6       0.3       0.1       0.1       0.1      91.7
 2 S  px              0.2       2.5       0.1      79.2      15.4       0.2
 2 S  py              0.0       0.0       0.1      16.3      80.1       0.0
 2 S  dz2             0.0       0.1       0.1       0.0       0.3       0.0
 2 S  dxz             0.2       0.0       1.0       0.0       0.0       0.2
 2 S  dyz             0.2       0.0       0.2       0.0       0.0       0.2
 2 S  dx2y2           0.0       0.3       0.0       0.2       0.1       0.0
 2 S  f-2             0.1       0.0       0.1       0.0       0.0       0.0
 3 O  s               1.0       0.0       0.0       0.0       0.0       0.3
 3 O  pz              0.8       0.0       0.0       0.0       0.1       0.4
 3 O  px              0.2       0.0       0.2       0.0       0.0       0.1
 3 O  py              0.2       0.0       0.0       0.0       0.0       0.1
 3 O  dz2            13.7       0.0       1.1       0.0       0.1       0.1
 3 O  dxz            15.8       0.0       2.0       0.0       0.0       0.2
 3 O  dyz            15.0       0.1       0.3       0.1       0.0       0.1
 3 O  dx2y2           0.0       0.0       3.6       0.0       0.0       0.0
 3 O  dxy             3.9       0.1       0.2       0.0       0.0       0.1
 3 O  f0              0.1       0.0       0.2       0.0       0.3       0.0
 3 O  f+1             1.2       0.0       0.0       0.0       0.4       0.8
 3 O  f-1             1.0       0.0       0.0       0.2       0.1       0.7
 3 O  f+2             0.0       0.0       0.3       0.1       0.0       0.0
 3 O  f-2             1.1       0.0       0.0       0.0       0.0       0.8
 3 O  f+3             0.0       0.0       0.2       0.0       0.0       0.0
 4 O  s               0.6       0.2       0.0       0.0       0.0       0.3
 4 O  pz              0.5       0.2       0.0       0.0       0.1       0.4
 4 O  px              0.1       0.0       0.1       0.0       0.0       0.1
 4 O  py              0.2       0.0       0.0       0.0       0.0       0.1
 4 O  dz2             9.7       2.2       0.1       0.0       0.1       0.1
 4 O  dxz             9.4       0.8       1.1       0.0       0.0       0.1
 4 O  dyz            13.0       0.5       0.1       0.0       0.0       0.2
 4 O  dx2y2           0.1       0.0       1.3       0.0       0.0       0.0
 4 O  dxy             1.9       0.3       0.1       0.0       0.0       0.1
 4 O  f0              0.1       0.1       0.1       0.0       0.4       0.1
 4 O  f+1             0.7       0.1       0.0       0.0       0.3       0.6
 4 O  f-1             1.1       0.0       0.0       0.2       0.2       1.0
 4 O  f-2             0.6       0.0       0.0       0.0       0.0       0.6
 5 C  s               0.0       0.0       0.0       0.1       0.3       0.0
 5 C  py              0.0       0.0       0.0       0.1       0.2       0.0

                    222       223       224       225       226       227   
                  20.52363  20.62726  20.82266  41.13297  41.25504  41.42484
                   0.00000   0.00000   0.00000   0.00000   0.00000   0.00000
                  --------  --------  --------  --------  --------  --------
 0 C  s               1.6      93.9       2.8       0.0       0.0       0.1
 1 O  s               0.1       0.2       0.1       0.2      13.9      85.8
 1 O  pz              0.0       0.1       0.0       0.0       0.0       0.0
 1 O  px              0.0       0.1       0.2       0.0       0.0       0.0
 2 S  s              28.2       0.5      66.3       0.1       0.0       0.0
 2 S  f+1             0.0       0.0       0.1       0.0       0.0       0.0
 3 O  s               0.2       0.0       0.6      30.0      61.5       8.3
 3 O  pz              0.1       0.0       0.3       0.0       0.0       0.0
 4 O  s               0.2       0.0       0.6      69.6      24.5       5.7
 4 O  pz              0.1       0.0       0.3       0.0       0.0       0.0
 5 C  s              68.0       3.8      26.7       0.0       0.0       0.0
 5 C  py              0.0       0.0       0.3       0.0       0.0       0.0
 5 C  dx2y2           0.0       0.0       0.1       0.0       0.0       0.0
 6 H  s               0.0       0.2       0.0       0.0       0.0       0.0
 7 H  s               0.0       0.2       0.0       0.0       0.0       0.0
 7 H  px              0.0       0.1       0.0       0.0       0.0       0.0
 8 H  s               0.0       0.2       0.0       0.0       0.0       0.0
 8 H  py              0.0       0.1       0.0       0.0       0.0       0.0
 9 H  s               0.1       0.0       0.1       0.0       0.0       0.0
10 H  s               0.1       0.0       0.1       0.0       0.0       0.0
11 H  s               0.1       0.0       0.1       0.0       0.0       0.0



                      *****************************
                      * MAYER POPULATION ANALYSIS *
                      *****************************

  NA   - Mulliken gross atomic population
  ZA   - Total nuclear charge
  QA   - Mulliken gross atomic charge
  VA   - Mayer's total valence
  BVA  - Mayer's bonded valence
  FA   - Mayer's free valence

  ATOM       NA         ZA         QA         VA         BVA        FA
  0 C      6.2214     6.0000    -0.2214     3.8188     3.8188    -0.0000
  1 O      8.2912     8.0000    -0.2912     2.0049     2.0049     0.0000
  2 S     15.1347    16.0000     0.8653     5.8045     5.8045     0.0000
  3 O      8.5202     8.0000    -0.5202     1.9497     1.9497     0.0000
  4 O      8.5176     8.0000    -0.5176     1.9276     1.9276     0.0000
  5 C      6.3834     6.0000    -0.3834     3.8039     3.8039    -0.0000
  6 H      0.8387     1.0000     0.1613     0.9674     0.9674    -0.0000
  7 H      0.8326     1.0000     0.1674     0.9622     0.9622    -0.0000
  8 H      0.8371     1.0000     0.1629     0.9560     0.9560    -0.0000
  9 H      0.8091     1.0000     0.1909     0.9662     0.9662     0.0000
 10 H      0.8078     1.0000     0.1922     0.9609     0.9609     0.0000
 11 H      0.8062     1.0000     0.1938     0.9672     0.9672    -0.0000

  Mayer bond orders larger than 0.100000
B(  0-C ,  1-O ) :   0.8613 B(  0-C ,  6-H ) :   0.9687 B(  0-C ,  7-H ) :   0.9616 
B(  0-C ,  8-H ) :   0.9664 B(  1-O ,  2-S ) :   1.1004 B(  2-S ,  3-O ) :   1.8600 
B(  2-S ,  4-O ) :   1.8103 B(  2-S ,  5-C ) :   0.9340 B(  5-C ,  9-H ) :   0.9336 
B(  5-C , 10-H ) :   0.9301 B(  5-C , 11-H ) :   0.9299 

-------
TIMINGS
-------

Total SCF time: 0 days 0 hours 1 min 15 sec 

Total time                  ....      75.306 sec
Sum of individual times     ....      73.675 sec  ( 97.8%)

SCF preparation             ....       0.265 sec  (  0.4%)
Fock matrix formation       ....      72.482 sec  ( 96.3%)
  Startup                   ....       0.053 sec  (  0.1% of F)
  Split-RI-J                ....       2.657 sec  (  3.7% of F)
  Chain of spheres X        ....      58.348 sec  ( 80.5% of F)
  XC integration            ....       8.789 sec  ( 12.1% of F)
    Basis function eval.    ....       1.987 sec  ( 22.6% of XC)
    Density eval.           ....       1.619 sec  ( 18.4% of XC)
    XC-Functional eval.     ....       1.966 sec  ( 22.4% of XC)
    XC-Potential eval.      ....       2.354 sec  ( 26.8% of XC)
  CPCM terms                ....       3.220 sec  (  4.4% of F)
Diagonalization             ....       0.000 sec  (  0.0%)
Density matrix formation    ....       0.176 sec  (  0.2%)
Total Energy calculation    ....       0.054 sec  (  0.1%)
Population analysis         ....       0.107 sec  (  0.1%)
Orbital Transformation      ....       0.068 sec  (  0.1%)
Orbital Orthonormalization  ....       0.000 sec  (  0.0%)
DIIS solution               ....       0.242 sec  (  0.3%)
  MO trafo                  ....       0.000 sec  (  0.0 % of DIIS)
  Orb grad                  ....       0.000 sec  (  0.0 % of DIIS)
  Energy W gradient         ....       0.000 sec  (  0.0 % of DIIS)
  DIIS error                ....       0.007 sec  (  3.1 % of DIIS)
  DIIS work                 ....       0.196 sec  ( 81.0 % of DIIS)
  Form Q                    ....       0.000 sec  (  0.0 % of DIIS)
  Form QpQm                 ....       0.000 sec  (  0.0 % of DIIS)
  Exp/Cayley                ....       0.000 sec  (  0.0 % of DIIS)
  Orb update                ....       0.000 sec  (  0.0 % of DIIS)
  Wake-sleep                ....       0.012 sec  (  5.1 % of DIIS)
SOSCF solution              ....       0.159 sec  (  0.2%)
  MO trafo                  ....       0.060 sec  ( 37.8 % of SOSCF)
  Orb grad                  ....       0.002 sec  (  1.4 % of SOSCF)
  Rot update                ....       0.050 sec  ( 31.5 % of SOSCF)
  Step                      ....       0.046 sec  ( 29.1 % of SOSCF)
Grid generation             ....       0.121 sec  (  0.2%)
Finished LeanSCF after  75.4 sec

Maximum memory used throughout the entire LEANSCF-calculation: 26.8 MB
------------------   -----------------
gCP correction             0.009523965
------------------   -----------------

-------------------------   --------------------
FINAL SINGLE POINT ENERGY      -703.658882312247
-------------------------   --------------------


------------------------------------------------------------------------------
                              ORCA PROPERTY CALCULATIONS
------------------------------------------------------------------------------

GBWName                                 ... sp_solv.gbw
Number of atoms                         ...     12
Number of basis functions               ...    228
Max core memory                         ...   1024 MB

Electric properties:
Dipole moment                           ... YES
Quadrupole moment                       ...  NO
Static polarizability (Dipole/Dipole)   ...  NO
Static polarizability (Dipole/Quad.)    ...  NO
Static polarizability (Quad./Quad.)     ...  NO
Static polarizability (Velocity)        ...  NO

Atomic electric properties:
Dipole moment                           ...  NO
Quadrupole moment                       ...  NO
Static polarizability                   ...  NO

Choice of electric origin               ... Center of mass
Position of electric origin             ...    -0.155613    -0.018620    -0.182666

General magnetic properties:
Magnetizability                         ...  NO

EPR properties:
g-Tensor (aka g-matrix)                 ...  NO
Zero-Field splitting spin-orbit         ...  NO
Zero-field splitting spin-spin          ...  NO
Hyperfine couplings                     ...  NO (   0 nuclei)
Quadrupole couplings                    ...  NO (   0 nuclei)
Contact density                         ...  NO (   0 nuclei)

NMR properties:
Chemical shifts                         ...  NO (   0 nuclei)
Spin-rotation constants                 ...  NO (   0 nuclei)
Spin-spin couplings                     ...  NO (   0 nuclei,    0 pairs)

Choice of magnetic origin               ... GIAO
Position of magnetic origin             ...     0.000000     0.000000     0.000000

Properties with geometric perturbations:
SCF Hessian                             ...  NO
IR spectrum                             ...  NO
VCD spectrum                            ...  NO
X-ray spectroscopy properties:
SCF XES/XAS/RIXS spectra                ...  NO


-------------
DIPOLE MOMENT
-------------

Method             : SCF
Type of density    : Electron Density
Multiplicity       :   1
Irrep              :   0
Energy             :  -703.6684062768472359 Eh
Relativity type    : 
Basis              : AO
                                X                 Y                 Z
Electronic contribution:     -3.209169613      -3.343459557       2.125696602
Nuclear contribution   :      4.688930944       5.533000827      -2.932838319
                        -----------------------------------------
Total Dipole Moment    :      1.479761332       2.189541271      -0.807141717
                        -----------------------------------------
Magnitude (a.u.)       :      2.763197844
Magnitude (Debye)      :      7.023490753



--------------------
Rotational spectrum 
--------------------
 
Rotational constants in cm-1:             0.141780             0.085634             0.082502 
Rotational constants in MHz :          4250.442933          2567.254054          2473.338631 

Dipole components along the rotational axes: 
x,y,z [a.u.] :     1.479888     2.310572     0.326268 
x,y,z [Debye]:     3.761576     5.873008     0.829308 

 

Dipole moment calculation done in   0.0 sec 

Maximum memory used throughout the entire PROP-calculation: 16.2 MB

--------------------------------
SUGGESTED CITATIONS FOR THIS RUN
--------------------------------

Below you find a list of papers that are relevant to this ORCA run
We neither can nor want to force you to cite these papers, but we appreciate if you do
You receive ORCA, which is the product of decades of hard work by many enthusiastic individuals, for free
The only thing we kindly ask in return is that you cite our papers,
We deeply appreciate it, if you show your appreciation for ORCA by not just citing the generic ORCA reference.

Please note that relegating all ORCA citations to the supporting information does *not* help us.
SI sections are not indexed - citations you put there will not count into any citation statistics
But we need these citations in order to attract the funding resources that allow us to do what we are doing

Therefore, if you are a happy ORCA user, please consider citing a few of the papers listed below in the main body of your paper

In addition to the list printed below, the program has created the file sp_solv.bibtex that contains the list in bibtex format
You can import this file easily into all common literature databanks and citation aid programs


List of essential papers. We consider these as the minimum necessary citations

  1. Neese,F.
     Software update: the ORCA program system, version 5.0
     WIRES Comput. Molec. Sci., 2022 12(1)e1606
     doi.org/10.1002/wcms.1606

List of papers to cite with high priority. The work reported in these papers was absolutely
necessary for this run to complete.
Our perspective: the developers of density functionals and basis sets usually get cited in chemistry papers
Good! But without the algorithms to do something with them, the functionals or basis sets would not do anything.
Hence, in our opinion, the algorithm design and method developments papers are equally worthy of getting cited

  1. Neese,F.
     An improvement of the resolution of the identity approximation for the formation of the Coulomb matrix
     J. Comp. Chem., 2003 24(14)1740-1747
     doi.org/10.1002/jcc.10318
  2. Neese,F.; Wennmohs,F.; Hansen,A.; Becker,U.
     Efficient, approximate and parallel Hartree-Fock and hybrid DFT calculations. A 'chain-of-spheres' algorithm for the Hartree-Fock exchange
     Chem. Phys., 2009 356(1-3)98-109
     doi.org/10.1016/j.chemphys.2008.10.036
  3. Garcia-Rates,M.; Neese,F.
     Effect of the Solute Cavity on the Solvation Energy and its Derivatives within the Framework of the Gaussian Charge Scheme
     J. Comput. Chem., 2020 41 922-939
     doi.org/10.1002/jcc.26139
  4. Helmich-Paris,B.; de Souza,B.; Neese,F.; Izsák,R.
     An improved chain of spheres for exchange algorithm
     J. Chem. Phys., 2021 155 104109
     doi.org/doi: 10.1063/5.0058766.
  5. Neese,F.
     The SHARK Integral Generation and Digestion System
     J. Comp. Chem., 2022  1-16
     doi.org/10.1002/jcc.26942

List of suggested additional citations. These are papers that are important in the 'surrounding' of 
of this run, or papers that preceded the highly important papers. If you like your results we are grateful for a citation.

  1. Izsak,R.; Neese,F.
     An overlap fitted chain of spheres exchange method
     J. Chem. Phys., 2011 135 144105
     doi.org/10.1063/1.3646921
  2. Izsak,R.; Hansen,A.; Neese,F.
     The resolution of identity and chain of spheres approximations for the LPNO-CCSD singles Fock term
     Molec. Phys., 2012 110 2413-2417
     doi.org/10.1080/00268976.2012.687466
  3. Neese,F.
     The ORCA program system
     WIRES Comput. Molec. Sci., 2012 2(1)73-78
     doi.org/10.1002/wcms.81
  4. Izsak,R.; Neese,F.; Klopper,W.
     Robust fitting techniques in the chain of spheres approximation to the Fock exchange: The role of the complementary space
     J. Chem. Phys., 2013 139 
     doi.org/10.1063/1.4819264
  5. Neese,F.
     Software update: the ORCA program system, version 4.0
     WIRES Comput. Molec. Sci., 2018 8(1)1-6
     doi.org/10.1002/wcms.1327
  6. Neese,F.; Wennmohs,F.; Becker,U.; Riplinger,C.
     The ORCA quantum chemistry program package
     J. Chem. Phys., 2020 152 Art. No. L224108
     doi.org/10.1063/5.0004608

List of optional additional citations

  1. Neese,F.
     Approximate second-order SCF convergence for spin unrestricted wavefunctions
     Chem. Phys. Lett., 2000 325(1-3)93-98
     doi.org/10.1016/s0009-2614(00)00662-x

Timings for individual modules:

Sum of individual times          ...       77.435 sec (=   1.291 min)
Startup calculation              ...        1.584 sec (=   0.026 min)   2.0 %
SCF iterations                   ...       75.742 sec (=   1.262 min)  97.8 %
Property calculations            ...        0.109 sec (=   0.002 min)   0.1 %
                             ****ORCA TERMINATED NORMALLY****
TOTAL RUN TIME: 0 days 0 hours 1 minutes 18 seconds 475 msec
