13
 energy: -361.533853733100 gnorm: 0.039207958026 xtb: 6.7.1 (edcfbbe)
C            1.33525283709169        1.32851260558870        0.00000696420000
C           -0.02862349491268        1.10705801099057       -0.00006250690003
C           -0.49579530671970       -0.21135827859366       -0.00001999470001
C            0.44938633749913       -1.24180813385028        0.00001546310001
N            1.75083413387584       -1.02954536245622       -0.00000714220000
C            2.18057258416627        0.22513566539976        0.00001903060001
C           -1.92722289735400       -0.50448254502355        0.00001887180001
O           -2.80867839694460        0.32760783574517        0.00000170750000
H            1.73856895157041        2.32765266963144        0.00010623430005
H           -0.74338831972942        1.91677124234937        0.00025440170011
H            0.13895130246157       -2.27821946890954       -0.00009173460004
H            3.25495698324236        0.34413652515250        0.00000357690000
H           -2.17201551516248       -1.58135956160074        0.00006387350003
13
 energy: -361.535002059460 gnorm: 0.011271803388 xtb: 6.7.1 (edcfbbe)
C            1.33836236663164        1.33111984305938        0.00004986700261
C           -0.02699329938896        1.11124519805896        0.00010096545120
C           -0.49449444871819       -0.20754192815074        0.00000341246117
C            0.44193733514428       -1.24520167064523       -0.00005964762511
N            1.75692777826015       -1.04043673839308       -0.00002982499463
C            2.18675891691040        0.22621489564238       -0.00000544648802
C           -1.92650224337470       -0.51628340974505        0.00000780729636
O           -2.81350762429932        0.32447806229362        0.00003796219277
H            1.74555185617663        2.33444350115195        0.00008091164283
H           -0.73854431014335        1.92952612207925        0.00012059918547
H            0.11197341525008       -2.28162153926131       -0.00005045872464
H            3.26458367674719        0.36012030431262        0.00001776497141
H           -2.17325407654522       -1.59596157655532        0.00003476604768
13
 energy: -361.535157122567 gnorm: 0.002121139150 xtb: 6.7.1 (edcfbbe)
C            1.33861173691082        1.33067756034697        0.00005786454564
C           -0.02762383328966        1.11542083763655        0.00004537663753
C           -0.49377575983702       -0.20332364966164        0.00003543740224
C            0.43856156328410       -1.24378162670207       -0.00000289507568
N            1.76064276449185       -1.04766122262123       -0.00003313677549
C            2.18768403638427        0.22472093023829        0.00001198075154
C           -1.92458347493089       -0.52313832799471        0.00007497177289
O           -2.81553502446791        0.31758943252971        0.00001903103890
H            1.75018626710085        2.33408697464968        0.00008932622323
H           -0.73453179346456        1.93942159069210        0.00012321306967
H            0.09634428699519       -2.27809132774161       -0.00007702705707
H            3.26608396077600        0.36744674766457       -0.00001446428044
H           -2.16926524194017       -1.60326701237296       -0.00002106300147
13
 energy: -361.535170637206 gnorm: 0.001221128098 xtb: 6.7.1 (edcfbbe)
C            1.33828961870579        1.32995374029099        0.00006881463214
C           -0.02833795165651        1.11730325520258        0.00008918461018
C           -0.49383231816054       -0.20152300116964        0.00000242872935
C            0.43787965767969       -1.24213664372343       -0.00005289130943
N            1.76133268671764       -1.04956031759952       -0.00004105948563
C            2.18695758703344        0.22366850054057        0.00000904252889
C           -1.92382596267385       -0.52478911673608       -0.00009352555131
O           -2.81682883310264        0.31363782201417        0.00006225118791
H            1.75238288237683        2.33221948975533        0.00009976828729
H           -0.73284787060105        1.94312639383889        0.00010253811657
H            0.09244154175091       -2.27513810365181       -0.00007525979009
H            3.26495864672295        0.36847044873278        0.00001364089991
H           -2.16577012956511       -1.60513164048697        0.00012365157539
13
 energy: -361.535173539650 gnorm: 0.000708625481 xtb: 6.7.1 (edcfbbe)
C            1.33802068243125        1.32928636052669        0.00001252106022
C           -0.02895442446370        1.11909869359888        0.00000448859401
C           -0.49419791754847       -0.19986303776714        0.00014960405866
C            0.43736283421837       -1.24022731456773        0.00006732491323
N            1.76097211202074       -1.05035155078226       -0.00003610371584
C            2.18581427628890        0.22263372985503       -0.00002700239828
C           -1.92322918696946       -0.52582023005322        0.00066500475282
O           -2.81849334995539        0.30939111183552       -0.00008893833631
H            1.75495237944036        2.33001513550958        0.00005844221769
H           -0.73121608968927        1.94640672919197        0.00012502244658
H            0.09001988377480       -2.27206236822615        0.00003287845052
H            3.26332503324747        0.36829833911175       -0.00006866001426
H           -2.16157660566146       -1.60670484924924       -0.00058602306123
13
 energy: -361.535173539650 gnorm: 0.000708625481 xtb: 6.7.1 (edcfbbe)
C            1.33802068243125        1.32928636052669        0.00001252106022
C           -0.02895442446370        1.11909869359888        0.00000448859401
C           -0.49419791754847       -0.19986303776714        0.00014960405866
C            0.43736283421837       -1.24022731456773        0.00006732491323
N            1.76097211202074       -1.05035155078226       -0.00003610371584
C            2.18581427628890        0.22263372985503       -0.00002700239828
C           -1.92322918696946       -0.52582023005322        0.00066500475282
O           -2.81849334995539        0.30939111183552       -0.00008893833631
H            1.75495237944036        2.33001513550958        0.00005844221769
H           -0.73121608968927        1.94640672919197        0.00012502244658
H            0.09001988377480       -2.27206236822615        0.00003287845052
H            3.26332503324747        0.36829833911175       -0.00006866001426
H           -2.16157660566146       -1.60670484924924       -0.00058602306123
