      -----------------------------------------------------------      
     |                   =====================                   |     
     |                           x T B                           |     
     |                   =====================                   |     
     |                         S. Grimme                         |     
     |          Mulliken Center for Theoretical Chemistry        |     
     |                    University of Bonn                     |     
      -----------------------------------------------------------      

   * xtb version 6.7.1 (edcfbbe) compiled by 'albert@albert-system' on 2024-07-22

   xtb is free software: you can redistribute it and/or modify it under
   the terms of the GNU Lesser General Public License as published by
   the Free Software Foundation, either version 3 of the License, or
   (at your option) any later version.
   
   xtb is distributed in the hope that it will be useful,
   but WITHOUT ANY WARRANTY; without even the implied warranty of
   MERCHANTABILITY or FITNESS FOR A PARTICULAR PURPOSE.  See the
   GNU Lesser General Public License for more details.
   
   Cite this work as:
   * C. Bannwarth, E. Caldeweyher, S. Ehlert, A. Hansen, P. Pracht,
     J. Seibert, S. Spicher, S. Grimme, WIREs Comput. Mol. Sci., 2020, 11,
     e01493. DOI: 10.1002/wcms.1493
   
   for GFN2-xTB:
   * C. Bannwarth, S. Ehlert and S. Grimme., J. Chem. Theory Comput., 2019,
     15, 1652-1671. DOI: 10.1021/acs.jctc.8b01176
   for GFN1-xTB:
   * S. Grimme, C. Bannwarth, P. Shushkov, J. Chem. Theory Comput., 2017,
     13, 1989-2009. DOI: 10.1021/acs.jctc.7b00118
   for GFN0-xTB:
   * P. Pracht, E. Caldeweyher, S. Ehlert, S. Grimme, ChemRxiv, 2019, preprint.
     DOI: 10.26434/chemrxiv.8326202.v1
   for GFN-FF:
   * S. Spicher and S. Grimme, Angew. Chem. Int. Ed., 2020, 59, 15665-15673.
     DOI: 10.1002/anie.202004239
   
   for ALPB and GBSA implicit solvation:
   * S. Ehlert, M. Stahn, S. Spicher, S. Grimme, J. Chem. Theory Comput.,
     2021, 17, 4250-4261. DOI: 10.1021/acs.jctc.1c00471
   
   for ddCOSMO and CPCM-X implicit solvation:
   * M. Stahn, S. Ehlert, S. Grimme, J. Phys. Chem. A,
     2023, XX, XXXX-XXXX. DOI: 10.1021/acs.jpca.3c04382
   
   for DFT-D4:
   * E. Caldeweyher, C. Bannwarth and S. Grimme, J. Chem. Phys., 2017,
     147, 034112. DOI: 10.1063/1.4993215
   * E. Caldeweyher, S. Ehlert, A. Hansen, H. Neugebauer, S. Spicher,
     C. Bannwarth and S. Grimme, J. Chem. Phys., 2019, 150, 154122.
     DOI: 10.1063/1.5090222
   * E. Caldeweyher, J.-M. Mewes, S. Ehlert and S. Grimme, Phys. Chem. Chem. Phys.
     2020, 22, 8499-8512. DOI: 10.1039/D0CP00502A
   
   for sTDA-xTB:
   * S. Grimme and C. Bannwarth, J. Chem. Phys., 2016, 145, 054103.
     DOI: 10.1063/1.4959605
   
   in the mass-spec context:
   * V. Asgeirsson, C. Bauer and S. Grimme, Chem. Sci., 2017, 8, 4879.
     DOI: 10.1039/c7sc00601b
   * J. Koopman and S. Grimme, ACS Omega 2019, 4, 12, 15120-15133.
     DOI: 10.1021/acsomega.9b02011
   
   for metadynamics refer to:
   * S. Grimme, J. Chem. Theory Comput., 2019, 155, 2847-2862
     DOI: 10.1021/acs.jctc.9b00143
   
   for SPH calculations refer to:
   * S. Spicher and S. Grimme, J. Chem. Theory Comput., 2021, 17, 1701-1714
     DOI: 10.1021/acs.jctc.0c01306
   
   for ONIOM refer to:
   * C. Plett, A. Katbashev, S. Ehlert, S. Grimme, M. Bursch,
     Phys. Chem. Chem. Phys., 2023, 25, 17860-17868. DOI: 10.1039/D3CP02178E
   
   for DIPRO refer to:
   * J. Kohn, N. Gildemeister, S. Grimme, D. Fazzi, A. Hansen,
     J. Chem. Phys., 2023, just accepted.
   
   for PTB refer to:
   * S. Grimme, M. Mueller, A. Hansen, J. Chem. Phys., 2023, 158, 124111.
     DOI: 10.1063/5.0137838
   
   with help from (in alphabetical order)
   P. Atkinson, C. Bannwarth, F. Bohle, G. Brandenburg, E. Caldeweyher
   M. Checinski, S. Dohm, S. Ehlert, S. Ehrlich, I. Gerasimov, C. Hölzer
   A. Katbashev, J. Kohn, J. Koopman, C. Lavigne, S. Lehtola, F. März, M. Müller,
   F. Musil, H. Neugebauer, J. Pisarek, C. Plett, P. Pracht, F. Pultar,
   J. Seibert, P. Shushkov, S. Spicher, M. Stahn, M. Steiner, T. Strunk,
   J. Stückrath, T. Rose, and J. Unsleber
   
 * started run on 2025/04/03 at 21:30:27.283     
   ID    Z sym.   atoms
    1    6 C      1-6
    2    8 O      7
    3    1 H      8-19

           -------------------------------------------------
          |                Calculation Setup                |
           -------------------------------------------------

          program call               : /srv/scratch/z5358697/.xtb/bin/xtb solv.coord --gfn2 --sp --chrg 0 --norestart --parallel 1 --alpb water reference -I xtb_sp-xcontrol-inp
          hostname                   : k158
          coordinate file            : solv.coord
          omp threads                :                     1


           -------------------------------------------------
          |                 G F N 2 - x T B                 |
           -------------------------------------------------

        Reference                      10.1021/acs.jctc.8b01176
      * Hamiltonian:
        H0-scaling (s, p, d)           1.850000    2.230000    2.230000
        zeta-weighting                 0.500000
      * Dispersion:
        s8                             2.700000
        a1                             0.520000
        a2                             5.000000
        s9                             5.000000
      * Repulsion:
        kExp                           1.500000    1.000000
        rExp                           1.000000
      * Coulomb:
        alpha                          2.000000
        third order                    shell-resolved
        anisotropic                    true
        a3                             3.000000
        a5                             4.000000
        cn-shift                       1.200000
        cn-exp                         4.000000
        max-rad                        5.000000

      * Solvation model:               ALPB
        Solvent                        water
        Parameter file                 internal GFN2-xTB/ALPB
        Dielectric constant                8.0200E+01
        Reference state                gsolv=reference [X=1]
        Free energy shift                  2.8945E-03 Eh       1.8164E+00 kcal/mol
        Temperature                        2.9815E+02 K
        Density                            1.0000E+00 kg/L
        Solvent mass                       1.8000E+01 g/mol
        Interaction kernel             P16
        Born radius scaling (c1)           1.4744E+00
        Born radii integrator          GBOBC
        Born offset                        0.0000E+00 a0       0.0000E+00 AA
        H-bond correction              true
        Ion screening                  false
        Surface tension                    1.0000E-05 Eh       1.5569E+01 dyn/cm
        Grid points                               974 per atom

          ...................................................
          :                      SETUP                      :
          :.................................................:
          :  # basis functions                  40          :
          :  # atomic orbitals                  40          :
          :  # shells                           26          :
          :  # electrons                        42          :
          :  max. iterations                   250          :
          :  Hamiltonian                  GFN2-xTB          :
          :  restarted?                      false          :
          :  GBSA solvation                   true          :
          :  PC potential                    false          :
          :  electronic temp.          300.0000000     K    :
          :  accuracy                    1.0000000          :
          :  -> integral cutoff          0.2500000E+02      :
          :  -> integral neglect         0.1000000E-07      :
          :  -> SCF convergence          0.1000000E-05 Eh   :
          :  -> wf. convergence          0.1000000E-03 e    :
          :  Broyden damping             0.4000000          :
          :  net charge                          0          :
          :  unpaired electrons                  0          :
          ...................................................

 iter      E             dE          RMSdq      gap      omega  full diag
   1    -23.2968914 -0.232969E+02  0.302E+00   11.95       0.0  T
   2    -23.3281614 -0.312700E-01  0.165E+00   11.86       1.0  T
   3    -23.3289582 -0.796817E-03  0.612E-01   11.86       1.0  T
   4    -23.3291662 -0.208043E-03  0.121E-01   11.84       1.0  T
   5    -23.3292242 -0.580197E-04  0.640E-02   11.86       1.0  T
   6    -23.3292270 -0.274363E-05  0.101E-02   11.86       2.3  T
   7    -23.3292272 -0.223755E-06  0.421E-03   11.86       5.4  T
   8    -23.3292272 -0.321539E-07  0.191E-03   11.86      12.0  T
   9    -23.3292273 -0.520265E-08  0.302E-04   11.86      76.1  T
  10    -23.3292273 -0.331461E-09  0.164E-04   11.86     139.8  T

   *** convergence criteria satisfied after 10 iterations ***

         #    Occupation            Energy/Eh            Energy/eV
      -------------------------------------------------------------
         1        2.0000           -0.6839739             -18.6119
       ...           ...                  ...                  ...
        15        2.0000           -0.4612519             -12.5513
        16        2.0000           -0.4537748             -12.3478
        17        2.0000           -0.4500445             -12.2463
        18        2.0000           -0.4274038             -11.6302
        19        2.0000           -0.4162521             -11.3268
        20        2.0000           -0.4098815             -11.1534
        21        2.0000           -0.3988409             -10.8530 (HOMO)
        22                          0.0369522               1.0055 (LUMO)
        23                          0.0807495               2.1973
        24                          0.0859525               2.3389
        25                          0.0951138               2.5882
        26                          0.1007635               2.7419
       ...                                ...                  ...
        40                          0.3512673               9.5585
      -------------------------------------------------------------
                  HL-Gap            0.4357931 Eh           11.8585 eV
             Fermi-level           -0.1809444 Eh           -4.9237 eV

 SCC (total)                   0 d,  0 h,  0 min,  0.012 sec
 SCC setup                      ...        0 min,  0.001 sec (  9.375%)
 Dispersion                     ...        0 min,  0.000 sec (  0.792%)
 classical contributions        ...        0 min,  0.000 sec (  0.202%)
 integral evaluation            ...        0 min,  0.001 sec ( 11.344%)
 iterations                     ...        0 min,  0.006 sec ( 44.792%)
 molecular gradient             ...        0 min,  0.004 sec ( 31.951%)
 printout                       ...        0 min,  0.000 sec (  1.351%)

         :::::::::::::::::::::::::::::::::::::::::::::::::::::
         ::                     SUMMARY                     ::
         :::::::::::::::::::::::::::::::::::::::::::::::::::::
         :: total energy             -23.044861317258 Eh    ::
         :: total w/o Gsasa/hb       -23.042611187234 Eh    ::
         :: gradient norm              0.000059310686 Eh/a0 ::
         :: HOMO-LUMO gap             11.858533684249 eV    ::
         ::.................................................::
         :: SCC energy               -23.329184530594 Eh    ::
         :: -> isotropic ES            0.035925770228 Eh    ::
         :: -> anisotropic ES          0.003767169076 Eh    ::
         :: -> anisotropic XC          0.008161167409 Eh    ::
         :: -> dispersion             -0.012510015524 Eh    ::
         :: -> Gsolv                  -0.006532644280 Eh    ::
         ::    -> Gelec               -0.004282514257 Eh    ::
         ::    -> Gsasa                0.000330963914 Eh    ::
         ::    -> Ghb                 -0.005475643098 Eh    ::
         ::    -> Gshift               0.002894549160 Eh    ::
         :: repulsion energy           0.284323213336 Eh    ::
         :: add. restraining           0.000000000000 Eh    ::
         :: total charge              -0.000000000000 e     ::
         :::::::::::::::::::::::::::::::::::::::::::::::::::::

           -------------------------------------------------
          |                Property Printout                |
           -------------------------------------------------

    * Orbital Energies and Occupations

         #    Occupation            Energy/Eh            Energy/eV
      -------------------------------------------------------------
         1        2.0000           -0.6839739             -18.6119
       ...           ...                  ...                  ...
         9        2.0000           -0.5265495             -14.3281
        10        2.0000           -0.5142055             -13.9922
        11        2.0000           -0.5095735             -13.8662
        12        2.0000           -0.4882124             -13.2849
        13        2.0000           -0.4689809             -12.7616
        14        2.0000           -0.4617896             -12.5659
        15        2.0000           -0.4612519             -12.5513
        16        2.0000           -0.4537748             -12.3478
        17        2.0000           -0.4500445             -12.2463
        18        2.0000           -0.4274038             -11.6302
        19        2.0000           -0.4162521             -11.3268
        20        2.0000           -0.4098815             -11.1534
        21        2.0000           -0.3988409             -10.8530 (HOMO)
        22                          0.0369522               1.0055 (LUMO)
        23                          0.0807495               2.1973
        24                          0.0859525               2.3389
        25                          0.0951138               2.5882
        26                          0.1007635               2.7419
        27                          0.1127167               3.0672
        28                          0.1257121               3.4208
        29                          0.1429747               3.8905
        30                          0.1677155               4.5638
        31                          0.1927543               5.2451
        32                          0.1989363               5.4133
       ...                                ...                  ...
        40                          0.3512673               9.5585
      -------------------------------------------------------------
                  HL-Gap            0.4357931 Eh           11.8585 eV
             Fermi-level           -0.1809444 Eh           -4.9237 eV

     #   Z          covCN         q      C6AA      α(0)
     1   6 C        3.804    -0.064    21.733     6.637
     2   6 C        3.803    -0.061    21.676     6.628
     3   6 C        3.804    -0.067    21.788     6.645
     4   6 C        3.726     0.119    18.739     6.181
     5   6 C        3.803    -0.075    21.932     6.667
     6   6 C        3.804    -0.063    21.704     6.632
     7   8 O        1.655    -0.521    23.355     6.524
     8   1 H        0.924     0.036     2.509     2.477
     9   1 H        0.924     0.035     2.523     2.484
    10   1 H        0.924     0.040     2.449     2.447
    11   1 H        0.924     0.034     2.527     2.486
    12   1 H        0.924     0.047     2.357     2.401
    13   1 H        0.925     0.039     2.468     2.457
    14   1 H        0.923     0.003     3.003     2.710
    15   1 H        0.924     0.049     2.333     2.389
    16   1 H        0.924     0.032     2.564     2.504
    17   1 H        0.924     0.039     2.467     2.456
    18   1 H        0.924     0.034     2.533     2.489
    19   1 H        0.805     0.347     0.594     1.211

 Mol. C6AA /au·bohr⁶  :       2561.745946
 Mol. C8AA /au·bohr⁸  :      54480.257062
 Mol. α(0) /au        :         74.425077


Wiberg/Mayer (AO) data.
largest (>0.10) Wiberg bond orders for each atom

 ---------------------------------------------------------------------------
     #   Z sym  total        # sym  WBO       # sym  WBO       # sym  WBO
 ---------------------------------------------------------------------------
     1   6 C    3.997 --     2 C    1.005     6 C    1.005     9 H    0.981
                             8 H    0.981
     2   6 C    3.997 --     3 C    1.011     1 C    1.005    10 H    0.979
                            11 H    0.978
     3   6 C    3.996 --     2 C    1.011     4 C    0.991    13 H    0.978
                            12 H    0.974
     4   6 C    3.951 --     3 C    0.991     5 C    0.987     7 O    0.979
                            14 H    0.966
     5   6 C    3.997 --     6 C    1.009     4 C    0.987    16 H    0.979
                            15 H    0.975
     6   6 C    3.997 --     5 C    1.009     1 C    1.005    18 H    0.980
                            17 H    0.979
     7   8 O    1.909 --     4 C    0.979    19 H    0.864
     8   1 H    0.999 --     1 C    0.981
     9   1 H    0.999 --     1 C    0.981
    10   1 H    0.998 --     2 C    0.979
    11   1 H    0.999 --     2 C    0.978
    12   1 H    0.998 --     3 C    0.974
    13   1 H    0.999 --     3 C    0.978
    14   1 H    1.000 --     4 C    0.966
    15   1 H    0.998 --     5 C    0.975
    16   1 H    0.999 --     5 C    0.979
    17   1 H    0.999 --     6 C    0.979
    18   1 H    0.999 --     6 C    0.980
    19   1 H    0.879 --     7 O    0.864
 ---------------------------------------------------------------------------

Topologies differ in total number of bonds
Writing topology from bond orders to xtbtopo.mol

molecular dipole:
                 x           y           z       tot (Debye)
 q only:       -0.228       0.557      -0.091
   full:       -0.170       0.738      -0.169       1.973
molecular quadrupole (traceless):
                xx          xy          yy          xz          yz          zz
 q only:        0.436       4.042       0.322      -0.042       0.969      -0.757
  q+dip:       -0.672       5.540       0.171      -0.603       1.436       0.501
   full:       -0.094       5.528       0.302      -0.366       1.302      -0.208


           -------------------------------------------------
          | TOTAL ENERGY              -23.044861317258 Eh   |
          | GRADIENT NORM               0.000059310686 Eh/α |
          | HOMO-LUMO GAP              11.858533684249 eV   |
           -------------------------------------------------

------------------------------------------------------------------------
 * finished run on 2025/04/03 at 21:30:27.326     
------------------------------------------------------------------------
 total:
 * wall-time:     0 d,  0 h,  0 min,  0.042 sec
 *  cpu-time:     0 d,  0 h,  0 min,  0.022 sec
 * ratio c/w:     0.508 speedup
 SCF:
 * wall-time:     0 d,  0 h,  0 min,  0.013 sec
 *  cpu-time:     0 d,  0 h,  0 min,  0.013 sec
 * ratio c/w:     0.991 speedup

