      -----------------------------------------------------------      
     |                   =====================                   |     
     |                           x T B                           |     
     |                   =====================                   |     
     |                         S. Grimme                         |     
     |          Mulliken Center for Theoretical Chemistry        |     
     |                    University of Bonn                     |     
      -----------------------------------------------------------      

   * xtb version 6.7.1 (edcfbbe) compiled by 'albert@albert-system' on 2024-07-22

   xtb is free software: you can redistribute it and/or modify it under
   the terms of the GNU Lesser General Public License as published by
   the Free Software Foundation, either version 3 of the License, or
   (at your option) any later version.
   
   xtb is distributed in the hope that it will be useful,
   but WITHOUT ANY WARRANTY; without even the implied warranty of
   MERCHANTABILITY or FITNESS FOR A PARTICULAR PURPOSE.  See the
   GNU Lesser General Public License for more details.
   
   Cite this work as:
   * C. Bannwarth, E. Caldeweyher, S. Ehlert, A. Hansen, P. Pracht,
     J. Seibert, S. Spicher, S. Grimme, WIREs Comput. Mol. Sci., 2020, 11,
     e01493. DOI: 10.1002/wcms.1493
   
   for GFN2-xTB:
   * C. Bannwarth, S. Ehlert and S. Grimme., J. Chem. Theory Comput., 2019,
     15, 1652-1671. DOI: 10.1021/acs.jctc.8b01176
   for GFN1-xTB:
   * S. Grimme, C. Bannwarth, P. Shushkov, J. Chem. Theory Comput., 2017,
     13, 1989-2009. DOI: 10.1021/acs.jctc.7b00118
   for GFN0-xTB:
   * P. Pracht, E. Caldeweyher, S. Ehlert, S. Grimme, ChemRxiv, 2019, preprint.
     DOI: 10.26434/chemrxiv.8326202.v1
   for GFN-FF:
   * S. Spicher and S. Grimme, Angew. Chem. Int. Ed., 2020, 59, 15665-15673.
     DOI: 10.1002/anie.202004239
   
   for ALPB and GBSA implicit solvation:
   * S. Ehlert, M. Stahn, S. Spicher, S. Grimme, J. Chem. Theory Comput.,
     2021, 17, 4250-4261. DOI: 10.1021/acs.jctc.1c00471
   
   for ddCOSMO and CPCM-X implicit solvation:
   * M. Stahn, S. Ehlert, S. Grimme, J. Phys. Chem. A,
     2023, XX, XXXX-XXXX. DOI: 10.1021/acs.jpca.3c04382
   
   for DFT-D4:
   * E. Caldeweyher, C. Bannwarth and S. Grimme, J. Chem. Phys., 2017,
     147, 034112. DOI: 10.1063/1.4993215
   * E. Caldeweyher, S. Ehlert, A. Hansen, H. Neugebauer, S. Spicher,
     C. Bannwarth and S. Grimme, J. Chem. Phys., 2019, 150, 154122.
     DOI: 10.1063/1.5090222
   * E. Caldeweyher, J.-M. Mewes, S. Ehlert and S. Grimme, Phys. Chem. Chem. Phys.
     2020, 22, 8499-8512. DOI: 10.1039/D0CP00502A
   
   for sTDA-xTB:
   * S. Grimme and C. Bannwarth, J. Chem. Phys., 2016, 145, 054103.
     DOI: 10.1063/1.4959605
   
   in the mass-spec context:
   * V. Asgeirsson, C. Bauer and S. Grimme, Chem. Sci., 2017, 8, 4879.
     DOI: 10.1039/c7sc00601b
   * J. Koopman and S. Grimme, ACS Omega 2019, 4, 12, 15120-15133.
     DOI: 10.1021/acsomega.9b02011
   
   for metadynamics refer to:
   * S. Grimme, J. Chem. Theory Comput., 2019, 155, 2847-2862
     DOI: 10.1021/acs.jctc.9b00143
   
   for SPH calculations refer to:
   * S. Spicher and S. Grimme, J. Chem. Theory Comput., 2021, 17, 1701-1714
     DOI: 10.1021/acs.jctc.0c01306
   
   for ONIOM refer to:
   * C. Plett, A. Katbashev, S. Ehlert, S. Grimme, M. Bursch,
     Phys. Chem. Chem. Phys., 2023, 25, 17860-17868. DOI: 10.1039/D3CP02178E
   
   for DIPRO refer to:
   * J. Kohn, N. Gildemeister, S. Grimme, D. Fazzi, A. Hansen,
     J. Chem. Phys., 2023, just accepted.
   
   for PTB refer to:
   * S. Grimme, M. Mueller, A. Hansen, J. Chem. Phys., 2023, 158, 124111.
     DOI: 10.1063/5.0137838
   
   with help from (in alphabetical order)
   P. Atkinson, C. Bannwarth, F. Bohle, G. Brandenburg, E. Caldeweyher
   M. Checinski, S. Dohm, S. Ehlert, S. Ehrlich, I. Gerasimov, C. Hölzer
   A. Katbashev, J. Kohn, J. Koopman, C. Lavigne, S. Lehtola, F. März, M. Müller,
   F. Musil, H. Neugebauer, J. Pisarek, C. Plett, P. Pracht, F. Pultar,
   J. Seibert, P. Shushkov, S. Spicher, M. Stahn, M. Steiner, T. Strunk,
   J. Stückrath, T. Rose, and J. Unsleber
   
 * started run on 2025/04/03 at 20:53:52.508     
   ID    Z sym.   atoms
    1    6 C      1
    2   16 S      2
    3    8 O      3, 4
    4   17 Cl     5
    5    1 H      6-8

           -------------------------------------------------
          |                Calculation Setup                |
           -------------------------------------------------

          program call               : /srv/scratch/z5358697/.xtb/bin/xtb solv.coord --gfn2 --sp --chrg 0 --norestart --parallel 1 --alpb water reference -I xtb_sp-xcontrol-inp
          hostname                   : k147
          coordinate file            : solv.coord
          omp threads                :                     1


           -------------------------------------------------
          |                 G F N 2 - x T B                 |
           -------------------------------------------------

        Reference                      10.1021/acs.jctc.8b01176
      * Hamiltonian:
        H0-scaling (s, p, d)           1.850000    2.230000    2.230000
        zeta-weighting                 0.500000
      * Dispersion:
        s8                             2.700000
        a1                             0.520000
        a2                             5.000000
        s9                             5.000000
      * Repulsion:
        kExp                           1.500000    1.000000
        rExp                           1.000000
      * Coulomb:
        alpha                          2.000000
        third order                    shell-resolved
        anisotropic                    true
        a3                             3.000000
        a5                             4.000000
        cn-shift                       1.200000
        cn-exp                         4.000000
        max-rad                        5.000000

      * Solvation model:               ALPB
        Solvent                        water
        Parameter file                 internal GFN2-xTB/ALPB
        Dielectric constant                8.0200E+01
        Reference state                gsolv=reference [X=1]
        Free energy shift                  2.8945E-03 Eh       1.8164E+00 kcal/mol
        Temperature                        2.9815E+02 K
        Density                            1.0000E+00 kg/L
        Solvent mass                       1.8000E+01 g/mol
        Interaction kernel             P16
        Born radius scaling (c1)           1.4744E+00
        Born radii integrator          GBOBC
        Born offset                        0.0000E+00 a0       0.0000E+00 AA
        H-bond correction              true
        Ion screening                  false
        Surface tension                    1.0000E-05 Eh       1.5569E+01 dyn/cm
        Grid points                               974 per atom

          ...................................................
          :                      SETUP                      :
          :.................................................:
          :  # basis functions                  35          :
          :  # atomic orbitals                  33          :
          :  # shells                           15          :
          :  # electrons                        32          :
          :  max. iterations                   250          :
          :  Hamiltonian                  GFN2-xTB          :
          :  restarted?                      false          :
          :  GBSA solvation                   true          :
          :  PC potential                    false          :
          :  electronic temp.          300.0000000     K    :
          :  accuracy                    1.0000000          :
          :  -> integral cutoff          0.2500000E+02      :
          :  -> integral neglect         0.1000000E-07      :
          :  -> SCF convergence          0.1000000E-05 Eh   :
          :  -> wf. convergence          0.1000000E-03 e    :
          :  Broyden damping             0.4000000          :
          :  net charge                          0          :
          :  unpaired electrons                  0          :
          ...................................................

 iter      E             dE          RMSdq      gap      omega  full diag
   1    -19.6865208 -0.196865E+02  0.835E+00    5.94       0.0  T
   2    -19.7124996 -0.259788E-01  0.462E+00    5.68       1.0  T
   3    -19.7161626 -0.366298E-02  0.157E+00    5.84       1.0  T
   4    -19.7175003 -0.133768E-02  0.597E-01    5.85       1.0  T
   5    -19.7179109 -0.410676E-03  0.328E-01    5.86       1.0  T
   6    -19.7180626 -0.151700E-03  0.157E-01    5.86       1.0  T
   7    -19.7181061 -0.435041E-04  0.926E-02    5.87       1.0  T
   8    -19.7181295 -0.233467E-04  0.593E-02    5.86       1.0  T
   9    -19.7181344 -0.493208E-05  0.219E-02    5.85       1.6  T
  10    -19.7181352 -0.759918E-06  0.946E-03    5.85       3.7  T
  11    -19.7181354 -0.231058E-06  0.481E-03    5.85       7.3  T
  12    -19.7181355 -0.686564E-07  0.287E-03    5.85      12.3  T
  13    -19.7181355 -0.204789E-07  0.922E-04    5.85      38.3  T
  14    -19.7181355 -0.187543E-08  0.190E-04    5.85     186.6  T

   *** convergence criteria satisfied after 14 iterations ***

         #    Occupation            Energy/Eh            Energy/eV
      -------------------------------------------------------------
         1        2.0000           -1.0791955             -29.3664
       ...           ...                  ...                  ...
        10        2.0000           -0.5152234             -14.0199
        11        2.0000           -0.4979467             -13.5498
        12        2.0000           -0.4861835             -13.2297
        13        2.0000           -0.4795740             -13.0499
        14        2.0000           -0.4649448             -12.6518
        15        2.0000           -0.4636065             -12.6154
        16        2.0000           -0.4612005             -12.5499 (HOMO)
        17                         -0.2463336              -6.7031 (LUMO)
        18                         -0.1589812              -4.3261
        19                         -0.0937792              -2.5519
        20                         -0.0920991              -2.5061
        21                         -0.0089812              -0.2444
       ...                                ...                  ...
        33                          1.1825608              32.1791
      -------------------------------------------------------------
                  HL-Gap            0.2148670 Eh            5.8468 eV
             Fermi-level           -0.3537671 Eh           -9.6265 eV

 SCC (total)                   0 d,  0 h,  0 min,  0.020 sec
 SCC setup                      ...        0 min,  0.000 sec (  2.383%)
 Dispersion                     ...        0 min,  0.000 sec (  0.162%)
 classical contributions        ...        0 min,  0.000 sec (  0.074%)
 integral evaluation            ...        0 min,  0.014 sec ( 68.166%)
 iterations                     ...        0 min,  0.004 sec ( 17.860%)
 molecular gradient             ...        0 min,  0.002 sec ( 10.678%)
 printout                       ...        0 min,  0.000 sec (  0.602%)

         :::::::::::::::::::::::::::::::::::::::::::::::::::::
         ::                     SUMMARY                     ::
         :::::::::::::::::::::::::::::::::::::::::::::::::::::
         :: total energy             -19.608862913335 Eh    ::
         :: total w/o Gsasa/hb       -19.610144591788 Eh    ::
         :: gradient norm              0.000267919304 Eh/a0 ::
         :: HOMO-LUMO gap              5.846827731776 eV    ::
         ::.................................................::
         :: SCC energy               -19.718133329760 Eh    ::
         :: -> isotropic ES            0.088366833762 Eh    ::
         :: -> anisotropic ES         -0.010846918475 Eh    ::
         :: -> anisotropic XC         -0.002041599644 Eh    ::
         :: -> dispersion             -0.005796087667 Eh    ::
         :: -> Gsolv                  -0.028438609828 Eh    ::
         ::    -> Gelec               -0.029720288281 Eh    ::
         ::    -> Gsasa                0.004244936470 Eh    ::
         ::    -> Ghb                 -0.005857807177 Eh    ::
         ::    -> Gshift               0.002894549160 Eh    ::
         :: repulsion energy           0.109270416424 Eh    ::
         :: add. restraining           0.000000000000 Eh    ::
         :: total charge               0.000000000000 e     ::
         :::::::::::::::::::::::::::::::::::::::::::::::::::::

           -------------------------------------------------
          |                Property Printout                |
           -------------------------------------------------

    * Orbital Energies and Occupations

         #    Occupation            Energy/Eh            Energy/eV
      -------------------------------------------------------------
         1        2.0000           -1.0791955             -29.3664
       ...           ...                  ...                  ...
         4        2.0000           -0.6762147             -18.4007
         5        2.0000           -0.6263532             -17.0439
         6        2.0000           -0.5676245             -15.4458
         7        2.0000           -0.5639073             -15.3447
         8        2.0000           -0.5593877             -15.2217
         9        2.0000           -0.5156951             -14.0328
        10        2.0000           -0.5152234             -14.0199
        11        2.0000           -0.4979467             -13.5498
        12        2.0000           -0.4861835             -13.2297
        13        2.0000           -0.4795740             -13.0499
        14        2.0000           -0.4649448             -12.6518
        15        2.0000           -0.4636065             -12.6154
        16        2.0000           -0.4612005             -12.5499 (HOMO)
        17                         -0.2463336              -6.7031 (LUMO)
        18                         -0.1589812              -4.3261
        19                         -0.0937792              -2.5519
        20                         -0.0920991              -2.5061
        21                         -0.0089812              -0.2444
        22                         -0.0079800              -0.2171
        23                         -0.0002827              -0.0077
        24                          0.0056304               0.1532
        25                          0.0409641               1.1147
        26                          0.1215438               3.3074
        27                          0.1297561               3.5308
       ...                                ...                  ...
        33                          1.1825608              32.1791
      -------------------------------------------------------------
                  HL-Gap            0.2148670 Eh            5.8468 eV
             Fermi-level           -0.3537671 Eh           -9.6265 eV

     #   Z          covCN         q      C6AA      α(0)
     1   6 C        3.749    -0.252    25.650     7.223
     2  16 S        3.584     1.293    98.642    16.716
     3   8 O        0.860    -0.635    26.994     6.966
     4   8 O        0.860    -0.635    27.001     6.967
     5  17 Cl       0.894    -0.292   108.444    15.931
     6   1 H        0.926     0.176     1.227     1.732
     7   1 H        0.926     0.172     1.251     1.749
     8   1 H        0.926     0.172     1.253     1.750

 Mol. C6AA /au·bohr⁶  :       1519.655366
 Mol. C8AA /au·bohr⁸  :      49041.872559
 Mol. α(0) /au        :         59.035315


Wiberg/Mayer (AO) data.
largest (>0.10) Wiberg bond orders for each atom

 ---------------------------------------------------------------------------
     #   Z sym  total        # sym  WBO       # sym  WBO       # sym  WBO
 ---------------------------------------------------------------------------
     1   6 C    3.891 --     8 H    0.952     7 H    0.951     6 H    0.949
                             2 S    0.736     3 O    0.103     4 O    0.103
     2  16 S    4.727 --     3 O    1.591     4 O    1.590     5 Cl   0.772
                             1 C    0.736
     3   8 O    1.888 --     2 S    1.591     4 O    0.105     1 C    0.103
     4   8 O    1.888 --     2 S    1.590     3 O    0.105     1 C    0.103
     5  17 Cl   1.042 --     2 S    0.772
     6   1 H    0.969 --     1 C    0.949
     7   1 H    0.970 --     1 C    0.951
     8   1 H    0.970 --     1 C    0.952
 ---------------------------------------------------------------------------

Topologies differ in total number of bonds
Writing topology from bond orders to xtbtopo.mol

molecular dipole:
                 x           y           z       tot (Debye)
 q only:       -0.708      -2.717       0.003
   full:       -0.745      -2.253       0.002       6.032
molecular quadrupole (traceless):
                xx          xy          yy          xz          yz          zz
 q only:       -0.309       7.282       5.958       0.001      -0.008      -5.650
  q+dip:       -0.793       8.307       5.746      -0.010      -0.012      -4.953
   full:       -0.240       8.450       5.766      -0.009      -0.011      -5.527


           -------------------------------------------------
          | TOTAL ENERGY              -19.608862913335 Eh   |
          | GRADIENT NORM               0.000267919304 Eh/α |
          | HOMO-LUMO GAP               5.846827731776 eV   |
           -------------------------------------------------

------------------------------------------------------------------------
 * finished run on 2025/04/03 at 20:53:52.558     
------------------------------------------------------------------------
 total:
 * wall-time:     0 d,  0 h,  0 min,  0.049 sec
 *  cpu-time:     0 d,  0 h,  0 min,  0.015 sec
 * ratio c/w:     0.318 speedup
 SCF:
 * wall-time:     0 d,  0 h,  0 min,  0.021 sec
 *  cpu-time:     0 d,  0 h,  0 min,  0.009 sec
 * ratio c/w:     0.431 speedup

