
                                 *****************
                                 * O   R   C   A *
                                 *****************

                                            #,                                       
                                            ###                                      
                                            ####                                     
                                            #####                                    
                                            ######                                   
                                           ########,                                 
                                     ,,################,,,,,                         
                               ,,#################################,,                 
                          ,,##########################################,,             
                       ,#########################################, ''#####,          
                    ,#############################################,,   '####,        
                  ,##################################################,,,,####,       
                ,###########''''           ''''###############################       
              ,#####''   ,,,,##########,,,,          '''####'''          '####       
            ,##' ,,,,###########################,,,                        '##       
           ' ,,###''''                  '''############,,,                           
         ,,##''                                '''############,,,,        ,,,,,,###''
      ,#''                                            '''#######################'''  
     '                                                          ''''####''''         
             ,#######,   #######,   ,#######,      ##                                
            ,#'     '#,  ##    ##  ,#'     '#,    #''#        ,####,   ,####,        
            ##       ##  ##   ,#'  ##            #'  '#       #'       #'  '#        
            ##       ##  #######   ##           ,######,      #####,   #    #        
            '#,     ,#'  ##    ##  '#,     ,#' ,#      #,     #,   #   #,  ,#        
             '#######'   ##     ##  '#######'  #'      '#     '####' # '####'        



                #########################################################
                #                        -***-                          #
                #          Department of theory and spectroscopy        #
                #                                                       #
                #                      Frank Neese                      #
                #                                                       #
                #     Directorship, Architecture, Infrastructure        #
                #                    SHARK, DRIVERS                     #
                #        Core code/Algorithms in most modules           #
                #                                                       #
                #        Max Planck Institute fuer Kohlenforschung      #
                #                Kaiser Wilhelm Platz 1                 #
                #                 D-45470 Muelheim/Ruhr                 #
                #                      Germany                          #
                #                                                       #
                #                  All rights reserved                  #
                #                        -***-                          #
                #########################################################


                         Program Version 6.0.0  -   RELEASE  -


 With contributions from (in alphabetic order):
   Daniel Aravena         : Magnetic Suceptibility
   Michael Atanasov       : Ab Initio Ligand Field Theory (pilot matlab implementation)
   Alexander A. Auer      : GIAO ZORA, VPT2 properties, NMR spectrum
   Ute Becker             : All parallelization in ORCA, NUMFREQ, NUMCALC
   Giovanni Bistoni       : ED, misc. LED, open-shell LED, HFLD
   Martin Brehm           : Molecular dynamics
   Dmytro Bykov           : pre 5.0 version of the SCF Hessian
   Marcos Casanova-Páez   : Triplet and SCS-CIS(D). UHF-(DLPNO)-IP/EA/STEOM-CCSD. UHF-CVS-IP/STEOM-CCSD
   Vijay G. Chilkuri      : MRCI spin determinant printing, contributions to CSF-ICE
   Pauline Colinet        : FMM embedding
   Dipayan Datta          : RHF DLPNO-CCSD density
   Achintya Kumar Dutta   : EOM-CC, STEOM-CC
   Nicolas Foglia         : Exact transition moments, OPA infrastructure, MCD improvements
   Dmitry Ganyushin       : Spin-Orbit,Spin-Spin,Magnetic field MRCI
   Miquel Garcia          : C-PCM and meta-GGA Hessian, CCSD/C-PCM, Gaussian charge scheme
   Tiago L. C. Gouveia    : GS-ROHF, GS-ROCIS
   Yang Guo               : DLPNO-NEVPT2, F12-NEVPT2, CIM, IAO-localization
   Andreas Hansen         : Spin unrestricted coupled pair/coupled cluster methods
   Ingolf Harden          : AUTO-CI MPn and infrastructure 
   Benjamin Helmich-Paris : MC-RPA, TRAH-(SCF,CASSCF), AVAS, COSX integrals, SCF dyn. polar.
   Lee Huntington         : MR-EOM, pCC
   Robert Izsak           : Overlap fitted RIJCOSX, COSX-SCS-MP3, EOM
   Riya Kayal             : Wick's Theorem for AUTO-CI, AUTO-CI UHF-CCSDT
   Emily Kempfer          : AUTO-CI, RHF CISDT and CCSDT
   Christian Kollmar      : KDIIS, OOCD, Brueckner-CCSD(T), CCSD density, CASPT2, CASPT2-K, improved NEVPT2
   Axel Koslowski         : Symmetry handling
   Simone Kossmann        : Meta GGA functionals, TD-DFT gradient, OOMP2, (MP2 Hessian; deprecated post 5.0)
   Lucas Lang             : DCDCAS
   Marvin Lechner         : AUTO-CI (C++ implementation), FIC-MRCC
   Spencer Leger          : CASSCF response
   Dagmar Lenk            : GEPOL surface, SMD, ORCA-2-JSON
   Dimitrios Liakos       : Extrapolation schemes; Compound Job, initial MDCI parallelization
   Dimitrios Manganas     : Further ROCIS development; embedding schemes. LFT, Crystal Embedding
   Dimitrios Pantazis     : SARC Basis sets
   Anastasios Papadopoulos: AUTO-CI, single reference methods and gradients
   Taras Petrenko         : pre 6.0 DFT Hessian and TD-DFT gradient, (ASA, deprecated), ECA, 1-Electron XAS/XES, NRVS
   Peter Pinski           : DLPNO-MP2, DLPNO-MP2 Gradient
   Christoph Reimann      : Effective Core Potentials
   Marius Retegan         : Local ZFS, SOC
   Christoph Riplinger    : Optimizer, TS searches, QM/MM, DLPNO-CCSD(T), (RO)-DLPNO pert. Triples
   Michael Roemelt        : Original ROCIS implementation
   Masaaki Saitow         : Open-shell DLPNO-CCSD energy and density
   Barbara Sandhoefer     : DKH picture change effects
   Kantharuban Sivalingam : CASSCF convergence/infrastructure, NEVPT2 and variants, FIC-MRCI
   Bernardo de Souza      : ESD, SOC TD-DFT
   Georgi Stoychev        : AutoAux, RI-MP2 NMR, DLPNO-MP2 response, X2C
   Van Anh Tran           : RI-MP2 g-tensors
   Willem Van den Heuvel  : Paramagnetic NMR
   Zikuan Wang            : NOTCH, Electric field optimization 
   Frank Wennmohs         : Technical directorship and infrastructure
   Hang Xu                : AUTO-CI-Response properties 


 We gratefully acknowledge several colleagues who have allowed us to
 interface, adapt or use parts of their codes:
   Stefan Grimme, W. Hujo, H. Kruse, P. Pracht,  : VdW corrections, initial TS optimization,
                  C. Bannwarth, S. Ehlert,         DFT functionals, gCP, sTDA/sTD-DF
                  L. Wittmann, M. Mueller
   Ed Valeev, F. Pavosevic, A. Kumar             : LibInt (2-el integral package), F12 methods
   Garnet Chan, S. Sharma, J. Yang, R. Olivares  : DMRG
   Ulf Ekstrom                                   : XCFun DFT Library
   Mihaly Kallay                                 : mrcc  (arbitrary order and MRCC methods)
   Frank Weinhold                                : gennbo (NPA and NBO analysis)
   Simon Mueller                                 : openCOSMO-RS
   Christopher J. Cramer and Donald G. Truhlar   : smd solvation model
   Lars Goerigk                                  : TD-DFT with DH, B97 family of functionals
   V. Asgeirsson, H. Jonsson                     : NEB implementation
   FAccTs GmbH                                   : IRC, NEB, NEB-TS, DLPNO-Multilevel, CI-OPT
                                                   MM, QMMM, 2- and 3-layer-ONIOM, Crystal-QMMM,
                                                   LR-CPCM, SF, NACMEs, symmetry and pop. for TD-DFT,
                                                   nearIR, NL-DFT gradient (VV10), updates on ESD,
                                                   ML-optimized integration grids, MBIS, APM,
                                                   GOAT, DOCKER, SOLVATOR, interface openCOSMO-RS
   S Lehtola, MJT Oliveira, MAL Marques          : LibXC Library
   Liviu Ungur et al                             : ANISO software


 Your calculation uses the libint2 library for the computation of 2-el integrals
 For citations please refer to: http://libint.valeyev.net

 Your ORCA version has been built with support for libXC version: 6.2.2
 For citations please refer to: https://libxc.gitlab.io

 This ORCA versions uses:
   CBLAS   interface :  Fast vector & matrix operations
   LAPACKE interface :  Fast linear algebra routines
   SCALAPACK package :  Parallel linear algebra routines
   Shared memory     :  Shared parallel matrices
   BLAS/LAPACK       :  OpenBLAS 0.3.27  USE64BITINT DYNAMIC_ARCH NO_AFFINITY SkylakeX SINGLE_THREADED
        Core in use  :  SkylakeX
   Copyright (c) 2011-2014, The OpenBLAS Project


Your calculation utilizes the geometrical counterpoise correction gCP
Please cite in your paper:
H.Kruse, S. Grimme J.Chem.Phys., 136, (2012), 154101 
   

Your calculation utilizes the atom-pairwise dispersion correction
based on EEQ partial charges (D4)


================================================================================

----- Orbital basis set information -----
Your calculation utilizes the basis: def2-mTZVPP
   Stefan Grimme, Andreas Hansen, Sebastian Ehlert, and Jan-Michael Mewes 
   J. Chem. Phys. 154, 064103 (2021). DOI: 10.1063/5.0040021

----- AuxJ basis set information -----
Your calculation utilizes the auxiliary basis: def2/J
   F. Weigend, Phys. Chem. Chem. Phys. 8, 1057 (2006).

================================================================================
                                        WARNINGS
                       Please study these warnings very carefully!
================================================================================

Using LibXC functional ID 497 : Re-regularized SCAN exchange by Furness et al
[ 1]  J. W. Furness, A. D. Kaplan, J. Ning, J. P. Perdew, and J. Sun.,  J. Phys. Chem. Lett. 11, 8208-8215 (2020)
[ 2]  J. W. Furness, A. D. Kaplan, J. Ning, J. P. Perdew, and J. Sun.,  J. Phys. Chem. Lett. 11, 9248-9248 (2020)
Using LibXC functional ID 498 : Re-regularized SCAN correlation by Furness et al
[ 1]  J. W. Furness, A. D. Kaplan, J. Ning, J. P. Perdew, and J. Sun.,  J. Phys. Chem. Lett. 11, 8208-8215 (2020)
[ 2]  J. W. Furness, A. D. Kaplan, J. Ning, J. P. Perdew, and J. Sun.,  J. Phys. Chem. Lett. 11, 9248-9248 (2020)
Using LibXC functional ID 497 : Re-regularized SCAN exchange by Furness et al
[ 1]  J. W. Furness, A. D. Kaplan, J. Ning, J. P. Perdew, and J. Sun.,  J. Phys. Chem. Lett. 11, 8208-8215 (2020)
[ 2]  J. W. Furness, A. D. Kaplan, J. Ning, J. P. Perdew, and J. Sun.,  J. Phys. Chem. Lett. 11, 9248-9248 (2020)
Using LibXC functional ID 498 : Re-regularized SCAN correlation by Furness et al
[ 1]  J. W. Furness, A. D. Kaplan, J. Ning, J. P. Perdew, and J. Sun.,  J. Phys. Chem. Lett. 11, 8208-8215 (2020)
[ 2]  J. W. Furness, A. D. Kaplan, J. Ning, J. P. Perdew, and J. Sun.,  J. Phys. Chem. Lett. 11, 9248-9248 (2020)

================================================================================
                                       INPUT FILE
================================================================================
NAME = sp_gas.inp
|  1> ! r2scan-3c def2/J RI DEFGRID2 scfconv6 printgap
|  2> %output
|  3>     printlevel normal
|  4> end
|  5> * xyz 0 1
|  6> C -2.9129224418 -0.0009313558 -0.0159564907
|  7> C -1.4129909679 0.0015127117 0.0070580634
|  8> C -0.6963826263 1.1917480284 0.0077155055
|  9> C 0.684083947 1.1974483683 0.0105030229
| 10> C 1.4013001836 -0.0002397927 0.0096645609
| 11> C 0.6826582584 -1.1973306065 0.0104674095
| 12> C -0.6974489387 -1.1899348267 0.0076675584
| 13> N 2.7787015938 -0.001257506 -0.0624365716
| 14> H -3.3073053463 0.9198584089 0.407094565
| 15> H -3.2727516455 -0.0838083601 -1.0420680641
| 16> H -3.3060606699 -0.8449193983 0.5465395868
| 17> H -1.2288135325 2.1327622359 0.0104406644
| 18> H 1.2203419167 2.1358459264 0.0128830882
| 19> H 1.2178183883 -2.1363698397 0.0131264446
| 20> H -1.231601798 -2.1299772449 0.010770617
| 21> H 3.2331984177 -0.8492808451 0.2337764565
| 22> H 3.2348132638 0.8462831951 0.2327630151
| 23> *
| 24> 
| 25>                          ****END OF INPUT****
================================================================================

                       ****************************
                       * Single Point Calculation *
                       ****************************

---------------------------------
CARTESIAN COORDINATES (ANGSTROEM)
---------------------------------
  C     -2.912922   -0.000931   -0.015956
  C     -1.412991    0.001513    0.007058
  C     -0.696383    1.191748    0.007716
  C      0.684084    1.197448    0.010503
  C      1.401300   -0.000240    0.009665
  C      0.682658   -1.197331    0.010467
  C     -0.697449   -1.189935    0.007668
  N      2.778702   -0.001258   -0.062437
  H     -3.307305    0.919858    0.407095
  H     -3.272752   -0.083808   -1.042068
  H     -3.306061   -0.844919    0.546540
  H     -1.228814    2.132762    0.010441
  H      1.220342    2.135846    0.012883
  H      1.217818   -2.136370    0.013126
  H     -1.231602   -2.129977    0.010771
  H      3.233198   -0.849281    0.233776
  H      3.234813    0.846283    0.232763

----------------------------
CARTESIAN COORDINATES (A.U.)
----------------------------
  NO LB      ZA    FRAG     MASS         X           Y           Z
   0 C     6.0000    0    12.011   -5.504626   -0.001760   -0.030153
   1 C     6.0000    0    12.011   -2.670166    0.002859    0.013338
   2 C     6.0000    0    12.011   -1.315972    2.252077    0.014580
   3 C     6.0000    0    12.011    1.292731    2.262849    0.019848
   4 C     6.0000    0    12.011    2.648074   -0.000453    0.018263
   5 C     6.0000    0    12.011    1.290037   -2.262627    0.019781
   6 C     6.0000    0    12.011   -1.317987   -2.248651    0.014490
   7 N     7.0000    0    14.007    5.250985   -0.002376   -0.117988
   8 H     1.0000    0     1.008   -6.249901    1.738280    0.769297
   9 H     1.0000    0     1.008   -6.184604   -0.158375   -1.969223
  10 H     1.0000    0     1.008   -6.247549   -1.596666    1.032810
  11 H     1.0000    0     1.008   -2.322121    4.030337    0.019730
  12 H     1.0000    0     1.008    2.306112    4.036164    0.024346
  13 H     1.0000    0     1.008    2.301343   -4.037154    0.024805
  14 H     1.0000    0     1.008   -2.327390   -4.025074    0.020354
  15 H     1.0000    0     1.008    6.109860   -1.604908    0.441773
  16 H     1.0000    0     1.008    6.112911    1.599243    0.439858

--------------------------------
INTERNAL COORDINATES (ANGSTROEM)
--------------------------------
 C      0   0   0     0.000000000000     0.00000000     0.00000000
 C      1   0   0     1.500110019153     0.00000000     0.00000000
 C      2   1   0     1.389312080348   121.14077122     0.00000000
 C      3   2   1     1.380481156745   121.28758175   180.89178648
 C      4   3   2     1.396014600232   120.67785760     0.14722734
 C      5   4   3     1.396235394805   118.10797425   359.78933386
 C      6   5   4     1.380129853388   120.67020019     0.21128837
 N      5   4   3     1.379287589254   120.91204973   176.37258814
 H      1   2   3     1.087365560365   110.81207783   334.53327447
 H      1   2   3     1.090527677202   110.14999708    94.11085255
 H      1   2   3     1.087784592408   110.77503394   213.48359822
 H      3   2   1     1.081202032501   119.44755358     1.16122354
 H      4   3   2     1.080818325079   119.98303448   180.11749604
 H      6   5   4     1.080832140802   119.34370810   180.19979488
 H      7   6   5     1.081207035718   119.29857729   180.14654690
 H      8   5   4     1.006704079961   115.85487114   161.09825250
 H      8   5   4     1.006730297309   115.88036740    22.35061132

---------------------------
INTERNAL COORDINATES (A.U.)
---------------------------
 C      0   0   0     0.000000000000     0.00000000     0.00000000
 C      1   0   0     2.834797106950     0.00000000     0.00000000
 C      2   1   0     2.625419346406   121.14077122     0.00000000
 C      3   2   1     2.608731319286   121.28758175   180.89178648
 C      4   3   2     2.638085273394   120.67785760     0.14722734
 C      5   4   3     2.638502514668   118.10797425   359.78933386
 C      6   5   4     2.608067452152   120.67020019     0.21128837
 N      5   4   3     2.606475803606   120.91204973   176.37258814
 H      1   2   3     2.054823116547   110.81207783   334.53327447
 H      1   2   3     2.060798651372   110.14999708    94.11085255
 H      1   2   3     2.055614972350   110.77503394   213.48359822
 H      3   2   1     2.043175736866   119.44755358     1.16122354
 H      4   3   2     2.042450634922   119.98303448   180.11749604
 H      6   5   4     2.042476742856   119.34370810   180.19979488
 H      7   6   5     2.043185191576   119.29857729   180.14654690
 H      8   5   4     1.902395009027   115.85487114   161.09825250
 H      8   5   4     1.902444552634   115.88036740    22.35061132

---------------------
BASIS SET INFORMATION
---------------------
There are 3 groups of distinct atoms

 Group   1 Type C   : 11s6p1d contracted to 5s3p1d pattern {62111/411/1}
 Group   2 Type N   : 11s6p2d contracted to 5s3p2d pattern {62111/411/11}
 Group   3 Type H   : 4s1p contracted to 2s1p pattern {31/1}

Atom   0C    basis set group =>   1
Atom   1C    basis set group =>   1
Atom   2C    basis set group =>   1
Atom   3C    basis set group =>   1
Atom   4C    basis set group =>   1
Atom   5C    basis set group =>   1
Atom   6C    basis set group =>   1
Atom   7N    basis set group =>   2
Atom   8H    basis set group =>   3
Atom   9H    basis set group =>   3
Atom  10H    basis set group =>   3
Atom  11H    basis set group =>   3
Atom  12H    basis set group =>   3
Atom  13H    basis set group =>   3
Atom  14H    basis set group =>   3
Atom  15H    basis set group =>   3
Atom  16H    basis set group =>   3
---------------------------------
AUXILIARY/J BASIS SET INFORMATION
---------------------------------
There are 3 groups of distinct atoms

 Group   1 Type C   : 12s5p4d2f1g contracted to 6s4p3d1f1g pattern {711111/2111/211/2/1}
 Group   2 Type N   : 12s5p4d2f1g contracted to 6s4p3d1f1g pattern {711111/2111/211/2/1}
 Group   3 Type H   : 5s2p1d contracted to 3s1p1d pattern {311/2/1}

Atom   0C    basis set group =>   1
Atom   1C    basis set group =>   1
Atom   2C    basis set group =>   1
Atom   3C    basis set group =>   1
Atom   4C    basis set group =>   1
Atom   5C    basis set group =>   1
Atom   6C    basis set group =>   1
Atom   7N    basis set group =>   2
Atom   8H    basis set group =>   3
Atom   9H    basis set group =>   3
Atom  10H    basis set group =>   3
Atom  11H    basis set group =>   3
Atom  12H    basis set group =>   3
Atom  13H    basis set group =>   3
Atom  14H    basis set group =>   3
Atom  15H    basis set group =>   3
Atom  16H    basis set group =>   3

Checking for AutoStart:
The File: sp_gas.gbw exists
Trying to determine its content:
     ... Fine, the file contains calculation information
     ... Fine, the calculation information was read
     ... Fine, the file contains a basis set
     ... Fine, the basis set was read
     ... Fine, the file contains a geometry
     ... Fine, the geometry was read
     ... Fine, the file contains a set of orbitals
     ... Fine, the orbitals can be read
     => possible old guess file was deleted
     => GBW file was renamed to GES file
     => GES file is set as startup file
     => Guess is set to MORead
     ... now leaving AutoStart

------------------------------------------------------------------------------
                             ORCA STARTUP CALCULATIONS
                           -- RI-GTO INTEGRALS CHOSEN --
------------------------------------------------------------------------------
------------------------------------------------------------------------------
                   ___                                                        
                  /   \      - P O W E R E D   B Y -                         
                 /     \                                                     
                 |  |  |   _    _      __       _____    __    __             
                 |  |  |  | |  | |    /  \     |  _  \  |  |  /  |          
                  \  \/   | |  | |   /    \    | | | |  |  | /  /          
                 / \  \   | |__| |  /  /\  \   | |_| |  |  |/  /          
                |  |  |   |  __  | /  /__\  \  |    /   |      \           
                |  |  |   | |  | | |   __   |  |    \   |  |\   \          
                \     /   | |  | | |  |  |  |  | |\  \  |  | \   \       
                 \___/    |_|  |_| |__|  |__|  |_| \__\ |__|  \__/        
                                                                              
                      - O R C A' S   B I G   F R I E N D -                    
                                      &                                       
                       - I N T E G R A L  F E E D E R -                       
                                                                              
 v1 FN, 2020, v2 2021, v3 2022-2024                                           
------------------------------------------------------------------------------


----------------------
SHARK INTEGRAL PACKAGE
----------------------

Number of atoms                             ...     17
Number of basis functions                   ...    202
Number of shells                            ...    100
Maximum angular momentum                    ...      2
Integral batch strategy                     ... SHARK/LIBINT Hybrid
RI-J (if used) integral strategy            ... SPLIT-RIJ (Revised 2003 algorithm where possible)
Printlevel                                  ...      1
Contraction scheme used                     ... SEGMENTED contraction
Prescreening option                         ... SCHWARTZ
   Thresh                                   ... 1.000e-10
   Tcut                                     ... 1.000e-11
   Tpresel                                  ... 1.000e-11 
Coulomb Range Separation                    ... NOT USED
Exchange Range Separation                   ... NOT USED
Multipole approximations                    ... NOT USED
Finite Nucleus Model                        ... NOT USED
CABS basis                                  ... NOT available
Auxiliary Coulomb fitting basis             ... AVAILABLE
   # of basis functions in Aux-J            ...    491
   # of shells in Aux-J                     ...    165
   Maximum angular momentum in Aux-J        ...      4
Auxiliary J/K fitting basis                 ... NOT available
Auxiliary Correlation fitting basis         ... NOT available
Auxiliary 'external' fitting basis          ... NOT available

Checking pre-screening integrals            ... done (  0.0 sec) Dimension = 100
Check shell pair data                       ... done (  0.0 sec)
Shell pair information
Shell pair cut-off parameter TPreSel        ...   1.0e-11
Total number of shell pairs                 ...      5050
Shell pairs after pre-screening             ...      4533
Total number of primitive shell pairs       ...     18348
Primitive shell pairs kept                  ...     11810
          la=0 lb=0:   1495 shell pairs
          la=1 lb=0:   1724 shell pairs
          la=1 lb=1:    514 shell pairs
          la=2 lb=0:    480 shell pairs
          la=2 lb=1:    276 shell pairs
          la=2 lb=2:     44 shell pairs

Calculating one electron integrals          ... done (  0.0 sec)
Calculating RI/J V-Matrix + Cholesky decomp.... done (  0.1 sec)
Calculating Nuclear repulsion               ... done (  0.0 sec) ENN=    344.674619864889 Eh

Diagonalization of the overlap matrix:
Smallest eigenvalue                        ... 2.875e-05
Time for diagonalization                   ...    0.003 sec
Threshold for overlap eigenvalues          ... 1.000e-07
Number of eigenvalues below threshold      ... 0
Time for construction of square roots      ...    0.015 sec
Total time needed                          ...    0.025 sec

-------------------
DFT GRID GENERATION
-------------------

General Integration Accuracy     IntAcc      ... 4.388
Radial Grid Type                 RadialGrid  ... OptM3 with GC (2021)
Angular Grid (max. ang.)         AngularGrid ... 4 (Lebedev-302)
Angular grid pruning method      GridPruning ... 4 (adaptive)
Weight generation scheme         WeightScheme... mBecke (2022)
Basis function cutoff            BFCut       ... 1.0000e-10
Integration weight cutoff        WCut        ... 1.0000e-14
Partially contracted basis set               ... off
Rotationally invariant grid construction     ... off
Angular grids for H and He will be reduced by one unit

Total number of grid points                  ...    77024
Total number of batches                      ...     1210
Average number of points per batch           ...       63
Average number of grid points per atom       ...     4531
Initializing property integral containers    ... done (  0.0 sec)

SHARK setup successfully completed in   1.0 seconds

Maximum memory used throughout the entire STARTUP-calculation: 33.8 MB
-------------------------------------------------------------------------------
                                 ORCA GUESS
                   Start orbitals & Density for SCF / CASSCF
-------------------------------------------------------------------------------

------------
SCF SETTINGS
------------
Hamiltonian:
 Density Functional     Method          .... DFT(GTOs)
  Functional kind                       .... Exchange
  Functional name                       .... Re-regularized SCAN exchange by Furness et al
  Functional family                     .... MGGA
  Functional refs                              
    [ 0] J. W. Furness, A. D. Kaplan, J. Ning, J. P. Perdew, and J. Sun.,  J. Phys. Chem. Lett. 11, 8208-8215 (2020), doi: 10.1021/acs.jpclett.0c02405
    [ 1] J. W. Furness, A. D. Kaplan, J. Ning, J. P. Perdew, and J. Sun.,  J. Phys. Chem. Lett. 11, 9248-9248 (2020), doi: 10.1021/acs.jpclett.0c03077
  Functional external parameters        .... 6
    Parameter  0 _c1        =  6.670000e-01 : c1 parameter        
    Parameter  1 _c2        =  8.000000e-01 : c2 parameter        
    Parameter  2 _d         =  1.240000e+00 : d parameter         
    Parameter  3 _k1        =  6.500000e-02 : k1 parameter        
    Parameter  4 _eta       =  1.000000e-03 : eta parameter       
    Parameter  5 _dp2       =  3.610000e-01 : dp2 parameter       
  Functional kind                       .... Correlation
  Functional name                       .... Re-regularized SCAN correlation by Furness et al
  Functional family                     .... MGGA
  Functional refs                              
    [ 0] J. W. Furness, A. D. Kaplan, J. Ning, J. P. Perdew, and J. Sun.,  J. Phys. Chem. Lett. 11, 8208-8215 (2020), doi: 10.1021/acs.jpclett.0c02405
    [ 1] J. W. Furness, A. D. Kaplan, J. Ning, J. P. Perdew, and J. Sun.,  J. Phys. Chem. Lett. 11, 9248-9248 (2020), doi: 10.1021/acs.jpclett.0c03077
  Functional external parameters        .... 1
    Parameter  0 _eta       =  1.000000e-03 : Regularization parameter
 Gradients option       PostSCFGGA      .... off
 RI-approximation to the Coulomb term is turned on
   Number of AuxJ basis functions       .... 491


General Settings:
 Integral files         IntName         .... sp_gas
 Hartree-Fock type      HFTyp           .... RHF
 Total Charge           Charge          ....    0
 Multiplicity           Mult            ....    1
 Number of Electrons    NEL             ....   58
 Basis Dimension        Dim             ....  202
 Nuclear Repulsion      ENuc            ....    344.6746198649 Eh

Convergence Acceleration:
 AO-DIIS                CNVDIIS         .... on
   Start iteration      DIISMaxIt       ....    12
   Startup error        DIISStart       ....  0.200000
   # of expansion vecs  DIISMaxEq       ....     5
   Bias factor          DIISBfac        ....   1.050
   Max. coefficient     DIISMaxC        ....  10.000
 MO-DIIS                CNVKDIIS        .... off
 Trust-Rad. Augm. Hess. CNVTRAH         .... auto
   Auto Start mean grad. ratio tolernc. ....  1.125000
   Auto Start start iteration           ....     1
   Auto Start num. interpolation iter.  ....    10
   Max. Number of Micro iterations      ....    24
   Max. Number of Macro iterations      .... Maxiter - #DIIS iter
   Number of Davidson start vectors     ....     2
   Converg. threshold    (grad. norm)   ....   3.330e-04
   Grad. Scal. Fac. for Micro threshold ....   0.100
   Minimum threshold for Micro iter.    ....   1.000e-02
   NR start threshold (gradient norm)   ....   1.000e-04
   Initial trust radius                 ....   0.400
   Minimum AH scaling param. (alpha)    ....   1.000
   Maximum AH scaling param. (alpha)    .... 1000.000
   Quad. conv. algorithm                .... NR
   White noise on init. David. guess    .... on
   Maximum white noise                  ....   0.010
   Pseudo random numbers                .... off
   Inactive MOs                         .... canonical
   Orbital update algorithm             .... Taylor
   Preconditioner                       .... Diag
   Full preconditioner red. dimension   ....   250
   COSX micro iterations for RIJONX calc.... off
 SOSCF                  CNVSOSCF        .... on
   Start iteration      SOSCFMaxIt      ....   150
   Startup grad/error   SOSCFStart      ....  0.003300
   Hessian update       SOSCFHessUp     .... L-BFGS
 Level Shifting         CNVShift        .... on
   Level shift para.    LevelShift      ....    0.2500
   Turn off err/grad.   ShiftErr        ....    0.0010
 Zerner damping         CNVZerner       .... off
 Static damping         CNVDamp         .... on
   Fraction old density DampFac         ....    0.7000
   Max. Damping (<1)    DampMax         ....    0.9800
   Min. Damping (>=0)   DampMin         ....    0.0000
   Turn off err/grad.   DampErr         ....    0.1000

SCF Procedure:
 Maximum # iterations   MaxIter         ....   125
 SCF integral mode      SCFMode         .... Direct
   Integral package                     .... SHARK and LIBINT hybrid scheme
 Reset frequency        DirectResetFreq ....    20
 Integral Threshold     Thresh          ....  1.000e-10 Eh
 Primitive CutOff       TCut            ....  1.000e-11 Eh

Convergence Tolerance:
 Convergence Check Mode ConvCheckMode   .... Total+1el-Energy
 Convergence forced     ConvForced      .... 0
 Energy Change          TolE            ....  1.000e-06 Eh
 1-El. energy change                    ....  1.000e-03 Eh
 Orbital Gradient       TolG            ....  3.330e-04
 Orbital Rotation angle TolX            ....  3.330e-04
 DIIS Error             TolErr          ....  1.000e-06

---------------------
INITIAL GUESS: MOREAD
---------------------
Guess MOs are being read from file: sp_gas.ges
Input Geometry matches current geometry (good)
Atom 0: N(Shells)= 9 and 6 - projection required
Input basis set needs projection
NBasis(read)= 130
NBasis(calc)= 202
Basis set overlap was calculated
Using GuessMode=FMatrix for the initial guess
C*T matrix was formed
Effective Fockian was calculated
Effective Fockian was diagonalized
Initial density was built
                      ------------------
                      INITIAL GUESS DONE (   0.0 sec)
                      ------------------
             **** ENERGY FILE WAS UPDATED (sp_gas.en.tmp) ****
Finished Guess after   0.2 sec
Maximum memory used throughout the entire GUESS-calculation: 13.9 MB

-------------------------------------------------------------------------------------------
                                      ORCA LEAN-SCF
                              memory conserving SCF solver
-------------------------------------------------------------------------------------------

----------------------------------------D-I-I-S--------------------------------------------
Iteration    Energy (Eh)           Delta-E    RMSDP     MaxDP     DIISErr   Damp  Time(sec)
-------------------------------------------------------------------------------------------
               ***  Starting incremental Fock matrix formation  ***
    1    -326.6694201094152277     0.00e+00  1.33e-02  3.94e-01  4.35e-01  0.700   2.1
    2    -326.7173497485573535    -4.79e-02  9.90e-03  2.90e-01  3.06e-01  0.700   1.9
    3    -326.7512614348042916    -3.39e-02  7.04e-03  2.05e-01  2.14e-01  0.700   1.9
                               ***Turning on AO-DIIS***
    4    -326.7750813237561260    -2.38e-02  4.98e-03  1.44e-01  1.50e-01  0.700   1.8
    5    -326.7917915187899780    -1.67e-02  3.49e-03  1.01e-01  1.05e-01  0.700   1.8
    6    -326.8035170640216620    -1.17e-02  2.45e-03  7.06e-02  7.33e-02  0.700   1.8
    7    -326.8117387053013090    -8.22e-03  5.71e-03  1.65e-01  5.14e-02  0.000   1.7
                              *** Initializing SOSCF ***
---------------------------------------S-O-S-C-F--------------------------------------
Iteration    Energy (Eh)           Delta-E    RMSDP     MaxDP     MaxGrad    Time(sec)
--------------------------------------------------------------------------------------
    8    -326.8309616516565939    -1.92e-02  2.27e-05  4.80e-04  6.43e-04     1.8
               *** Restarting incremental Fock matrix formation ***
    9    -326.8309618376125627    -1.86e-07  2.66e-05  6.33e-04  1.52e-04     2.1
   10    -326.8309598766144290     1.96e-06  1.74e-05  4.24e-04  3.39e-04     1.6
   11    -326.8309626181462590    -2.74e-06  8.30e-06  2.41e-04  5.98e-05     1.6
                  *** Gradient check signals convergence ***

               *****************************************************
               *                     SUCCESS                       *
               *           SCF CONVERGED AFTER  11 CYCLES          *
               *****************************************************

             **** ENERGY FILE WAS UPDATED (sp_gas.en.tmp) ****

----------------
TOTAL SCF ENERGY
----------------

Total Energy       :       -326.83096261814626 Eh           -8893.52263 eV

Components:
Nuclear Repulsion  :        344.67461986488877 Eh            9379.07323 eV
Electronic Energy  :       -671.50558248303491 Eh          -18272.59586 eV
One Electron Energy:      -1123.14940972305772 Eh          -30562.44920 eV
Two Electron Energy:        451.64382724002274 Eh           12289.85334 eV

Virial components:
Potential Energy   :       -652.34903664596516 Eh          -17751.31975 eV
Kinetic Energy     :        325.51807402781890 Eh            8857.79712 eV
Virial Ratio       :          2.00403322793749

DFT components:
N(Alpha)           :       28.999975829872 electrons
N(Beta)            :       28.999975829872 electrons
N(Total)           :       57.999951659745 electrons
E(X)               :      -46.341595866157 Eh       
E(C)               :       -1.856656898124 Eh       
E(XC)              :      -48.198252764281 Eh       

---------------
SCF CONVERGENCE
---------------

  Last Energy change         ...    2.7415e-06  Tolerance :   1.0000e-06
  Last MAX-Density change    ...    2.4061e-04  Tolerance :   1.0000e-05
  Last RMS-Density change    ...    8.2971e-06  Tolerance :   1.0000e-06
  Last DIIS Error            ...    6.4339e-04  Tolerance :   1.0000e-06
  Last Orbital Gradient      ...    5.9791e-05  Tolerance :   3.3300e-04
  Last Orbital Rotation      ...    2.8601e-04  Tolerance :   3.3300e-04


----------------
ORBITAL ENERGIES
----------------

  NO   OCC          E(Eh)            E(eV) 
   0   2.0000     -14.164444      -385.4341 
   1   2.0000     -10.066895      -273.9341 
   2   2.0000     -10.024411      -272.7781 
   3   2.0000     -10.023003      -272.7398 
   4   2.0000     -10.022917      -272.7375 
   5   2.0000     -10.021361      -272.6951 
   6   2.0000     -10.021079      -272.6874 
   7   2.0000     -10.018184      -272.6086 
   8   2.0000      -0.887697       -24.1555 
   9   2.0000      -0.806340       -21.9416 
  10   2.0000      -0.719739       -19.5851 
  11   2.0000      -0.707858       -19.2618 
  12   2.0000      -0.637465       -17.3463 
  13   2.0000      -0.579186       -15.7604 
  14   2.0000      -0.547243       -14.8912 
  15   2.0000      -0.486855       -13.2480 
  16   2.0000      -0.482190       -13.1210 
  17   2.0000      -0.425767       -11.5857 
  18   2.0000      -0.406281       -11.0555 
  19   2.0000      -0.390890       -10.6367 
  20   2.0000      -0.383029       -10.4227 
  21   2.0000      -0.381378       -10.3778 
  22   2.0000      -0.347622        -9.4593 
  23   2.0000      -0.344227        -9.3669 
  24   2.0000      -0.314780        -8.5656 
  25   2.0000      -0.298822        -8.1313 
  26   2.0000      -0.274113        -7.4590 
  27   2.0000      -0.228060        -6.2058 
  28   2.0000      -0.175404        -4.7730 
  29   0.0000      -0.024270        -0.6604 
  30   0.0000      -0.002560        -0.0697 
  31   0.0000       0.075080         2.0430 
  32   0.0000       0.085557         2.3281 
  33   0.0000       0.113305         3.0832 
  34   0.0000       0.113781         3.0961 
  35   0.0000       0.127238         3.4623 
  36   0.0000       0.144069         3.9203 
  37   0.0000       0.154040         4.1916 
  38   0.0000       0.156461         4.2575 
  39   0.0000       0.176285         4.7969 
*Only the first 10 virtual orbitals were printed.

                    ********************************
                    * MULLIKEN POPULATION ANALYSIS *
                    ********************************

-----------------------
MULLIKEN ATOMIC CHARGES
-----------------------
   0 C :   -0.525885
   1 C :    0.157210
   2 C :   -0.189808
   3 C :   -0.387860
   4 C :    0.530830
   5 C :   -0.388196
   6 C :   -0.185310
   7 N :   -0.537880
   8 H :    0.146889
   9 H :    0.163443
  10 H :    0.147509
  11 H :    0.144974
  12 H :    0.135705
  13 H :    0.135773
  14 H :    0.145057
  15 H :    0.253791
  16 H :    0.253757
Sum of atomic charges:   -0.0000000

--------------------------------
MULLIKEN REDUCED ORBITAL CHARGES
--------------------------------
  0 C s       :     3.363048  s :     3.363048
      pz      :     1.100528  p :     3.135216
      px      :     0.928957
      py      :     1.105731
      dz2     :     0.005250  d :     0.027621
      dxz     :     0.006261
      dyz     :     0.003649
      dx2y2   :     0.007161
      dxy     :     0.005300

  1 C s       :     3.102283  s :     3.102283
      pz      :     1.000010  p :     2.693256
      px      :     0.813564
      py      :     0.879681
      dz2     :     0.003581  d :     0.047252
      dxz     :     0.006439
      dyz     :     0.006480
      dx2y2   :     0.014912
      dxy     :     0.015839

  2 C s       :     3.163998  s :     3.163998
      pz      :     0.999846  p :     2.987358
      px      :     0.986513
      py      :     1.000999
      dz2     :     0.003306  d :     0.038451
      dxz     :     0.006855
      dyz     :     0.003465
      dx2y2   :     0.011968
      dxy     :     0.012858

  3 C s       :     3.253341  s :     3.253341
      pz      :     1.068394  p :     3.098326
      px      :     1.035689
      py      :     0.994243
      dz2     :     0.003387  d :     0.036193
      dxz     :     0.005763
      dyz     :     0.003074
      dx2y2   :     0.010407
      dxy     :     0.013563

  4 C s       :     3.064033  s :     3.064033
      pz      :     0.931087  p :     2.340802
      px      :     0.786633
      py      :     0.623083
      dz2     :     0.004549  d :     0.064335
      dxz     :     0.015823
      dyz     :     0.006938
      dx2y2   :     0.020274
      dxy     :     0.016751

  5 C s       :     3.252969  s :     3.252969
      pz      :     1.067655  p :     3.099007
      px      :     1.036473
      py      :     0.994879
      dz2     :     0.003386  d :     0.036220
      dxz     :     0.005780
      dyz     :     0.003071
      dx2y2   :     0.010403
      dxy     :     0.013580

  6 C s       :     3.169139  s :     3.169139
      pz      :     0.999050  p :     2.977766
      px      :     0.978528
      py      :     1.000188
      dz2     :     0.003303  d :     0.038405
      dxz     :     0.006821
      dyz     :     0.003465
      dx2y2   :     0.011947
      dxy     :     0.012868

  7 N s       :     3.460844  s :     3.460844
      pz      :     1.715375  p :     4.028381
      px      :     1.073175
      py      :     1.239831
      dz2     :     0.003518  d :     0.048655
      dxz     :     0.013585
      dyz     :     0.006820
      dx2y2   :     0.007666
      dxy     :     0.017065

  8 H s       :     0.834851  s :     0.834851
      pz      :     0.004883  p :     0.018259
      px      :     0.004556
      py      :     0.008821

  9 H s       :     0.818266  s :     0.818266
      pz      :     0.010040  p :     0.018291
      px      :     0.004465
      py      :     0.003786

 10 H s       :     0.834204  s :     0.834204
      pz      :     0.005733  p :     0.018288
      px      :     0.004573
      py      :     0.007982

 11 H s       :     0.835536  s :     0.835536
      pz      :     0.004252  p :     0.019490
      px      :     0.005339
      py      :     0.009899

 12 H s       :     0.844521  s :     0.844521
      pz      :     0.004676  p :     0.019774
      px      :     0.005097
      py      :     0.010000

 13 H s       :     0.844459  s :     0.844459
      pz      :     0.004668  p :     0.019768
      px      :     0.005090
      py      :     0.010010

 14 H s       :     0.835470  s :     0.835470
      pz      :     0.004244  p :     0.019473
      px      :     0.005352
      py      :     0.009877

 15 H s       :     0.713457  s :     0.713457
      pz      :     0.010984  p :     0.032752
      px      :     0.007310
      py      :     0.014458

 16 H s       :     0.713492  s :     0.713492
      pz      :     0.010976  p :     0.032751
      px      :     0.007330
      py      :     0.014445


------------------------
MULLIKEN OVERLAP CHARGES
------------------------
B(  0-C ,  1-C ) :   0.3232 B(  0-C ,  2-C ) :  -0.0869 B(  0-C ,  6-C ) :  -0.0899 
B(  0-C ,  8-H ) :   0.8632 B(  0-C ,  9-H ) :   0.8325 B(  0-C , 10-H ) :   0.8605 
B(  1-C ,  2-C ) :   1.0519 B(  1-C ,  3-C ) :  -0.2028 B(  1-C ,  4-C ) :  -0.0523 
B(  1-C ,  5-C ) :  -0.1957 B(  1-C ,  6-C ) :   1.0396 B(  1-C ,  8-H ) :  -0.1398 
B(  1-C ,  9-H ) :  -0.0839 B(  1-C , 10-H ) :  -0.1333 B(  1-C , 11-H ) :  -0.0762 
B(  1-C , 14-H ) :  -0.0788 B(  2-C ,  3-C ) :   0.7379 B(  2-C ,  4-C ) :  -0.1126 
B(  2-C ,  5-C ) :  -0.0854 B(  2-C ,  6-C ) :  -0.0760 B(  2-C , 11-H ) :   0.7690 
B(  3-C ,  4-C ) :   0.9428 B(  3-C ,  5-C ) :  -0.3753 B(  3-C ,  6-C ) :  -0.0877 
B(  3-C ,  7-N ) :  -0.0753 B(  3-C , 12-H ) :   0.7660 B(  4-C ,  5-C ) :   0.9414 
B(  4-C ,  6-C ) :  -0.1126 B(  4-C ,  7-N ) :   0.4744 B(  4-C , 12-H ) :  -0.0796 
B(  4-C , 13-H ) :  -0.0794 B(  4-C , 15-H ) :  -0.1266 B(  4-C , 16-H ) :  -0.1269 
B(  5-C ,  6-C ) :   0.7542 B(  5-C ,  7-N ) :  -0.0740 B(  5-C , 13-H ) :   0.7656 
B(  6-C , 14-H ) :   0.7740 B(  7-N , 15-H ) :   0.7333 B(  7-N , 16-H ) :   0.7334 



                     *******************************
                     * LOEWDIN POPULATION ANALYSIS *
                     *******************************

----------------------
LOEWDIN ATOMIC CHARGES
----------------------
   0 C :   -0.392245
   1 C :   -0.130912
   2 C :   -0.155129
   3 C :   -0.162795
   4 C :    0.119682
   5 C :   -0.161994
   6 C :   -0.154141
   7 N :   -0.610544
   8 H :    0.158005
   9 H :    0.161348
  10 H :    0.158680
  11 H :    0.167408
  12 H :    0.167017
  13 H :    0.167015
  14 H :    0.167728
  15 H :    0.250422
  16 H :    0.250456

-------------------------------
LOEWDIN REDUCED ORBITAL CHARGES
-------------------------------
  0 C s       :     2.955385  s :     2.955385
      pz      :     1.155244  p :     3.372475
      px      :     1.063370
      py      :     1.153861
      dz2     :     0.012844  d :     0.064386
      dxz     :     0.013362
      dyz     :     0.009567
      dx2y2   :     0.016622
      dxy     :     0.011991

  1 C s       :     2.864375  s :     2.864375
      pz      :     0.998649  p :     3.168685
      px      :     1.059766
      py      :     1.110269
      dz2     :     0.006516  d :     0.097853
      dxz     :     0.010359
      dyz     :     0.011761
      dx2y2   :     0.034119
      dxy     :     0.035098

  2 C s       :     2.895927  s :     2.895927
      pz      :     0.987401  p :     3.175174
      px      :     1.093393
      py      :     1.094380
      dz2     :     0.005654  d :     0.084028
      dxz     :     0.012737
      dyz     :     0.005886
      dx2y2   :     0.028614
      dxy     :     0.031137

  3 C s       :     2.889579  s :     2.889579
      pz      :     1.045950  p :     3.194732
      px      :     1.080483
      py      :     1.068299
      dz2     :     0.005611  d :     0.078484
      dxz     :     0.010199
      dyz     :     0.004990
      dx2y2   :     0.025982
      dxy     :     0.031703

  4 C s       :     2.786181  s :     2.786181
      pz      :     0.897685  p :     2.955529
      px      :     0.975883
      py      :     1.081960
      dz2     :     0.009143  d :     0.138608
      dxz     :     0.030947
      dyz     :     0.012218
      dx2y2   :     0.045381
      dxy     :     0.040919

  5 C s       :     2.889582  s :     2.889582
      pz      :     1.044930  p :     3.193864
      px      :     1.080591
      py      :     1.068343
      dz2     :     0.005608  d :     0.078548
      dxz     :     0.010231
      dyz     :     0.004984
      dx2y2   :     0.025989
      dxy     :     0.031736

  6 C s       :     2.895850  s :     2.895850
      pz      :     0.986900  p :     3.174371
      px      :     1.092809
      py      :     1.094661
      dz2     :     0.005648  d :     0.083920
      dxz     :     0.012667
      dyz     :     0.005886
      dx2y2   :     0.028550
      dxy     :     0.031170

  7 N s       :     3.159317  s :     3.159317
      pz      :     1.683707  p :     4.147973
      px      :     1.229434
      py      :     1.234833
      dz2     :     0.028270  d :     0.303254
      dxz     :     0.074633
      dyz     :     0.015844
      dx2y2   :     0.065405
      dxy     :     0.119101

  8 H s       :     0.798853  s :     0.798853
      pz      :     0.011164  p :     0.043142
      px      :     0.010087
      py      :     0.021891

  9 H s       :     0.795099  s :     0.795099
      pz      :     0.025214  p :     0.043553
      px      :     0.010097
      py      :     0.008242

 10 H s       :     0.798100  s :     0.798100
      pz      :     0.013468  p :     0.043220
      px      :     0.010134
      py      :     0.019618

 11 H s       :     0.788401  s :     0.788401
      pz      :     0.009137  p :     0.044191
      px      :     0.011936
      py      :     0.023118

 12 H s       :     0.788320  s :     0.788320
      pz      :     0.010306  p :     0.044663
      px      :     0.011664
      py      :     0.022692

 13 H s       :     0.788337  s :     0.788337
      pz      :     0.010281  p :     0.044648
      px      :     0.011643
      py      :     0.022724

 14 H s       :     0.788093  s :     0.788093
      pz      :     0.009115  p :     0.044179
      px      :     0.011974
      py      :     0.023089

 15 H s       :     0.662926  s :     0.662926
      pz      :     0.028420  p :     0.086651
      px      :     0.019911
      py      :     0.038321

 16 H s       :     0.662903  s :     0.662903
      pz      :     0.028391  p :     0.086642
      px      :     0.019964
      py      :     0.038286


---------------------------------
LOEWDIN BOND ORDERS (THRESH 0.050000)
---------------------------------
B(  0-C ,  1-C ) :   1.1116 B(  0-C ,  2-C ) :   0.0881 B(  0-C ,  6-C ) :   0.0876 
B(  0-C ,  8-H ) :   0.9200 B(  0-C ,  9-H ) :   0.9126 B(  0-C , 10-H ) :   0.9190 
B(  1-C ,  2-C ) :   1.4370 B(  1-C ,  3-C ) :   0.0935 B(  1-C ,  4-C ) :   0.0999 
B(  1-C ,  5-C ) :   0.0934 B(  1-C ,  6-C ) :   1.4339 B(  1-C , 11-H ) :   0.0519 
B(  1-C , 14-H ) :   0.0519 B(  2-C ,  3-C ) :   1.5245 B(  2-C ,  4-C ) :   0.0904 
B(  2-C ,  5-C ) :   0.1212 B(  2-C ,  6-C ) :   0.0866 B(  2-C , 11-H ) :   0.8671 
B(  2-C , 12-H ) :   0.0550 B(  3-C ,  4-C ) :   1.3002 B(  3-C ,  5-C ) :   0.0844 
B(  3-C ,  6-C ) :   0.1219 B(  3-C ,  7-N ) :   0.2294 B(  3-C , 11-H ) :   0.0557 
B(  3-C , 12-H ) :   0.8659 B(  4-C ,  5-C ) :   1.2977 B(  4-C ,  6-C ) :   0.0905 
B(  4-C ,  7-N ) :   1.4890 B(  4-C , 12-H ) :   0.0534 B(  4-C , 13-H ) :   0.0533 
B(  5-C ,  6-C ) :   1.5286 B(  5-C ,  7-N ) :   0.2285 B(  5-C , 13-H ) :   0.8659 
B(  5-C , 14-H ) :   0.0557 B(  6-C , 13-H ) :   0.0551 B(  6-C , 14-H ) :   0.8669 
B(  7-N , 15-H ) :   0.9177 B(  7-N , 16-H ) :   0.9177 

------------------------------------------
LOEWDIN REDUCED ORBITAL POPULATIONS PER MO
-------------------------------------------
THRESHOLD FOR PRINTING IS 0.1%%
                      0         1         2         3         4         5   
                 -14.16444 -10.06689 -10.02441 -10.02300 -10.02292 -10.02136
                   2.00000   2.00000   2.00000   2.00000   2.00000   2.00000
                  --------  --------  --------  --------  --------  --------
 1 C  s               0.0       0.0      95.0       0.3       4.3       0.0
 1 C  py              0.0       0.0       0.0       0.2       0.0       0.0
 2 C  s               0.0       0.0       2.2      26.0      69.7       0.0
 3 C  s               0.0       0.0       0.0       0.5       1.2       0.0
 4 C  s               0.0      99.2       0.0       0.0       0.0       0.0
 5 C  s               0.0       0.0       0.0       1.7       0.6      97.3
 6 C  s               0.0       0.0       2.3      71.1      23.9       2.3
 6 C  px              0.0       0.0       0.0       0.0       0.0       0.1
 7 N  s              99.8       0.0       0.0       0.0       0.0       0.0
 7 N  px              0.0       0.1       0.0       0.0       0.0       0.0
 7 N  dx2y2           0.0       0.2       0.0       0.0       0.0       0.0

                      6         7         8         9        10        11   
                 -10.02108 -10.01818  -0.88770  -0.80634  -0.71974  -0.70786
                   2.00000   2.00000   2.00000   2.00000   2.00000   2.00000
                  --------  --------  --------  --------  --------  --------
 0 C  s               0.0      99.7       0.0       3.9      18.5       0.0
 0 C  px              0.0       0.0       0.1       1.9       1.1       0.0
 0 C  py              0.0       0.0       0.0       0.0       0.0       0.2
 1 C  s               0.0       0.0       0.5      17.2      12.0       0.0
 1 C  px              0.0       0.1       0.3       1.2       5.2       0.0
 1 C  py              0.0       0.0       0.0       0.0       0.0       9.2
 1 C  dz2             0.0       0.0       0.0       0.2       0.1       0.0
 1 C  dxy             0.0       0.0       0.0       0.0       0.0       0.2
 2 C  s               1.7       0.0       0.8      12.8       0.3      13.6
 2 C  px              0.1       0.0       0.4       0.1       6.1       2.0
 2 C  py              0.0       0.0       0.1       2.5       0.9       0.7
 2 C  dz2             0.0       0.0       0.0       0.1       0.0       0.1
 2 C  dx2y2           0.0       0.0       0.0       0.0       0.1       0.1
 3 C  s              97.9       0.0       3.5       6.8       5.7      14.6
 3 C  px              0.0       0.0       0.8       2.4       0.5       1.6
 3 C  py              0.0       0.0       1.7       0.6       0.9       0.7
 4 C  s               0.0       0.0      17.6       1.5       6.0       0.0
 4 C  px              0.0       0.0       5.1       8.1       4.8       0.0
 4 C  py              0.1       0.0       0.0       0.0       0.0      10.8
 4 C  dz2             0.0       0.0       0.4       0.0       0.0       0.0
 4 C  dx2y2           0.0       0.0       0.3       0.1       0.1       0.0
 4 C  dxy             0.0       0.0       0.0       0.0       0.0       0.3
 5 C  s               0.0       0.0       3.5       6.8       5.8      14.6
 5 C  px              0.0       0.0       0.8       2.4       0.5       1.6
 5 C  py              0.0       0.0       1.7       0.6       0.9       0.7
 6 C  s               0.0       0.0       0.8      12.8       0.3      13.6
 6 C  px              0.0       0.0       0.4       0.1       6.1       2.0
 6 C  py              0.0       0.0       0.1       2.5       0.9       0.7
 6 C  dz2             0.0       0.0       0.0       0.1       0.0       0.1
 6 C  dx2y2           0.0       0.0       0.0       0.0       0.1       0.1
 7 N  s               0.0       0.0      41.6       5.8       4.0       0.0
 7 N  pz              0.0       0.0       0.4       0.1       0.1       0.0
 7 N  px              0.0       0.0       1.6       0.5       2.8       0.0
 7 N  py              0.0       0.0       0.0       0.0       0.0       0.5
 7 N  dz2             0.0       0.0       0.4       0.0       0.2       0.0
 7 N  dx2y2           0.0       0.0       0.3       0.1       0.6       0.0
 7 N  dxy             0.0       0.0       0.0       0.0       0.0       0.4
 8 H  s               0.0       0.0       0.0       0.5       3.1       0.0
 8 H  py              0.0       0.0       0.0       0.0       0.2       0.0
 9 H  s               0.0       0.0       0.0       0.4       3.0       0.0
 9 H  pz              0.0       0.0       0.0       0.0       0.2       0.0
10 H  s               0.0       0.0       0.0       0.5       3.1       0.0
10 H  py              0.0       0.0       0.0       0.0       0.2       0.0
11 H  s               0.0       0.0       0.1       1.2       0.1       2.4
11 H  py              0.0       0.0       0.0       0.1       0.0       0.2
12 H  s               0.0       0.0       0.3       0.6       0.8       2.7
12 H  py              0.0       0.0       0.0       0.0       0.1       0.2
13 H  s               0.0       0.0       0.3       0.6       0.8       2.7
13 H  py              0.0       0.0       0.0       0.0       0.1       0.2
14 H  s               0.0       0.0       0.1       1.3       0.1       2.4
14 H  py              0.0       0.0       0.0       0.1       0.0       0.2
15 H  s               0.0       0.0       6.9       1.2       1.4       0.1
15 H  px              0.0       0.0       0.3       0.0       0.0       0.0
15 H  py              0.0       0.0       0.7       0.2       0.2       0.0
16 H  s               0.0       0.0       6.8       1.2       1.4       0.1
16 H  px              0.0       0.0       0.3       0.0       0.0       0.0
16 H  py              0.0       0.0       0.7       0.2       0.2       0.0

                     12        13        14        15        16        17   
                  -0.63746  -0.57919  -0.54724  -0.48685  -0.48219  -0.42577
                   2.00000   2.00000   2.00000   2.00000   2.00000   2.00000
                  --------  --------  --------  --------  --------  --------
 0 C  s              20.6       0.0       3.1       0.4       0.0       0.4
 0 C  px              1.6       0.0       4.0       1.4       0.0      13.6
 0 C  py              0.0       1.2       0.0       0.0       2.2       0.0
 0 C  dx2y2           0.0       0.0       0.1       0.0       0.0       0.2
 1 C  s               1.3       0.0       7.0       0.1       0.0       5.3
 1 C  px             11.9       0.0       0.9       1.1       0.0       4.3
 1 C  py              0.0      13.2       0.0       0.0       6.6       0.0
 1 C  dx2y2           0.3       0.0       0.0       0.1       0.0       0.0
 1 C  dxy             0.0       0.2       0.0       0.0       0.0       0.0
 2 C  s               4.7       6.8       0.8       1.5       0.3       1.9
 2 C  px              0.1       3.9       4.4       2.4       6.2       0.7
 2 C  py              0.2       0.3       7.8       6.7       0.2       1.4
 2 C  dx2y2           0.0       0.0       0.2       0.0       0.1       0.0
 2 C  dxy             0.0       0.0       0.0       0.0       0.0       0.3
 3 C  s               0.7       4.7       3.7       0.1       1.6       2.0
 3 C  px              4.5       6.7       1.9       0.5       1.4       7.3
 3 C  py              1.1       0.1       6.4       6.5       1.1       5.4
 3 C  dx2y2           0.1       0.0       0.0       0.1       0.0       0.2
 3 C  dxy             0.1       0.0       0.0       0.0       0.0       0.2
 4 C  s               7.2       0.0       4.6       0.2       0.0       0.7
 4 C  pz              0.0       0.0       0.0       0.2       0.0       0.2
 4 C  px              0.6       0.0       0.7      16.0       0.0       1.1
 4 C  py              0.0      16.1       0.0       0.0       1.9       0.0
 4 C  dx2y2           0.1       0.0       0.0       0.0       0.0       0.7
 4 C  dxy             0.0       0.1       0.0       0.0       0.4       0.0
 5 C  s               0.7       4.7       3.7       0.1       1.6       2.0
 5 C  px              4.5       6.7       1.9       0.5       1.4       7.4
 5 C  py              1.1       0.1       6.4       6.6       1.0       5.4
 5 C  dx2y2           0.1       0.0       0.0       0.1       0.0       0.2
 5 C  dxy             0.1       0.0       0.0       0.0       0.0       0.2
 6 C  s               4.7       6.8       0.8       1.5       0.3       1.9
 6 C  px              0.1       3.9       4.4       2.3       6.2       0.7
 6 C  py              0.2       0.2       7.8       6.7       0.2       1.5
 6 C  dx2y2           0.0       0.0       0.2       0.0       0.1       0.0
 6 C  dxy             0.0       0.0       0.0       0.0       0.0       0.3
 7 N  s               2.3       0.0       0.4       0.2       0.0       0.3
 7 N  pz              0.2       0.0       0.3       0.9       0.0       0.4
 7 N  px              6.5       0.0      10.2      23.0       0.0       4.9
 7 N  py              0.0       6.9       0.0       0.0      41.3       0.0
 7 N  dz2             0.1       0.0       0.0       0.0       0.0       0.2
 7 N  dyz             0.0       0.1       0.0       0.0       0.4       0.0
 7 N  dx2y2           0.7       0.0       0.6       0.2       0.0       0.2
 7 N  dxy             0.0       0.6       0.0       0.0       0.5       0.0
 8 H  s               5.4       0.1       1.7       0.2       0.4       1.5
 8 H  py              0.3       0.0       0.1       0.0       0.0       0.1
 9 H  s               5.4       0.0       1.6       0.4       0.0       1.2
 9 H  pz              0.4       0.0       0.1       0.0       0.0       0.1
10 H  s               5.4       0.1       1.7       0.3       0.3       1.5
10 H  pz              0.1       0.0       0.0       0.0       0.0       0.0
10 H  py              0.3       0.0       0.1       0.0       0.0       0.1
11 H  s               0.9       3.5       1.2       4.8       0.6       1.9
11 H  py              0.1       0.2       0.0       0.2       0.1       0.0
12 H  s               0.2       2.9       3.0       1.5       0.7       9.2
12 H  px              0.0       0.0       0.1       0.0       0.1       0.0
12 H  py              0.0       0.2       0.1       0.0       0.0       0.3
13 H  s               0.2       2.9       3.0       1.5       0.7       9.3
13 H  px              0.0       0.0       0.1       0.0       0.1       0.0
13 H  py              0.0       0.2       0.1       0.0       0.0       0.3
14 H  s               0.9       3.5       1.2       4.8       0.6       1.9
14 H  py              0.1       0.2       0.0       0.2       0.1       0.0
15 H  s               1.6       1.2       1.5       2.7      10.2       0.4
15 H  pz              0.0       0.0       0.0       0.0       0.1       0.0
15 H  px              0.0       0.0       0.0       0.0       0.3       0.0
15 H  py              0.2       0.0       0.1       0.2       0.1       0.0
16 H  s               1.6       1.2       1.5       2.7      10.2       0.5
16 H  pz              0.0       0.0       0.0       0.0       0.1       0.0
16 H  px              0.0       0.0       0.0       0.0       0.3       0.0
16 H  py              0.2       0.0       0.1       0.2       0.1       0.0

                     18        19        20        21        22        23   
                  -0.40628  -0.39089  -0.38303  -0.38138  -0.34762  -0.34423
                   2.00000   2.00000   2.00000   2.00000   2.00000   2.00000
                  --------  --------  --------  --------  --------  --------
 0 C  s               0.0       0.2       0.0       0.0       0.0       0.0
 0 C  pz              0.0       5.1      38.4       0.0       9.0       0.0
 0 C  px              0.0       4.5       1.5       0.0       0.7       0.0
 0 C  py             14.2       0.0       0.0       0.8       0.0      36.3
 0 C  dz2             0.0       0.1       0.1       0.0       0.1       0.0
 0 C  dyz             0.1       0.0       0.0       0.0       0.0       0.3
 0 C  dx2y2           0.0       0.0       0.1       0.0       0.0       0.0
 0 C  dxy             0.0       0.0       0.0       0.0       0.0       0.3
 1 C  s               0.0       0.2       0.0       0.0       0.0       0.0
 1 C  pz              0.0       1.9      12.5       0.0       0.4       0.0
 1 C  px              0.0       7.2       1.6       0.0       0.8       0.0
 1 C  py              8.5       0.0       0.0       2.6       0.0       1.1
 1 C  dxz             0.0       0.0       0.1       0.0       0.1       0.0
 1 C  dxy             0.0       0.0       0.0       0.6       0.0       0.2
 2 C  s               0.4       0.1       0.0       0.6       0.0       0.3
 2 C  pz              0.0       0.7       3.5       0.0       3.6       0.0
 2 C  px              5.6       4.0       0.5       3.2       0.0       5.3
 2 C  py              2.7       7.6       1.5      10.6       0.1       0.2
 2 C  dx2y2           0.0       0.0       0.0       0.2       0.0       0.1
 2 C  dxy             0.0       0.2       0.0       0.0       0.0       0.0
 3 C  s               0.3       0.1       0.0       0.5       0.0       0.1
 3 C  pz              0.0       0.7       1.3       0.0      11.8       0.0
 3 C  px              9.0       0.8       0.1       3.6       0.0       3.7
 3 C  py              0.8       4.4       0.6      13.8       0.1       1.2
 3 C  dyz             0.0       0.0       0.0       0.0       0.1       0.0
 3 C  dx2y2           0.1       0.2       0.0       0.2       0.0       0.0
 3 C  dxy             0.0       0.3       0.0       0.0       0.0       0.1
 4 C  s               0.0       1.8       0.2       0.0       0.0       0.0
 4 C  pz              0.0       1.8       1.2       0.0      27.3       0.0
 4 C  px              0.0       8.5       1.6       0.0       0.6       0.0
 4 C  py              7.2       0.0       0.0       3.8       0.0       4.3
 4 C  dx2y2           0.0       0.2       0.0       0.0       0.0       0.0
 4 C  dxy             0.4       0.0       0.0       0.5       0.0       0.1
 5 C  s               0.3       0.1       0.0       0.5       0.0       0.1
 5 C  pz              0.0       0.7       1.4       0.0      11.8       0.0
 5 C  px              8.7       1.0       0.1       3.6       0.0       3.8
 5 C  py              0.8       4.6       0.9      13.4       0.1       1.1
 5 C  dyz             0.0       0.0       0.0       0.0       0.1       0.0
 5 C  dx2y2           0.1       0.2       0.0       0.2       0.0       0.0
 5 C  dxy             0.0       0.3       0.0       0.0       0.0       0.0
 6 C  s               0.4       0.1       0.0       0.6       0.0       0.3
 6 C  pz              0.0       0.7       3.6       0.0       3.5       0.0
 6 C  px              5.3       4.2       0.4       3.4       0.0       5.4
 6 C  py              2.8       7.3       1.2      11.0       0.1       0.1
 6 C  dx2y2           0.0       0.0       0.0       0.2       0.0       0.1
 6 C  dxy             0.0       0.2       0.0       0.0       0.0       0.0
 7 N  s               0.0       0.3       0.0       0.0       0.6       0.0
 7 N  pz              0.0       1.7       0.2       0.0      18.8       0.0
 7 N  px              0.0       5.5       1.2       0.0       1.2       0.0
 7 N  py             11.6       0.0       0.0       0.1       0.0       1.2
 7 N  dxz             0.0       0.0       0.1       0.0       1.2       0.0
 7 N  dyz             0.1       0.0       0.0       0.0       0.0       0.0
 7 N  dx2y2           0.0       0.3       0.1       0.0       0.0       0.0
 7 N  dxy             2.7       0.0       0.0       0.0       0.0       1.0
 8 H  s               3.9       0.0       3.7       0.3       0.4      14.9
 8 H  pz              0.0       0.0       0.1       0.0       0.0       0.1
 8 H  py              0.0       0.0       0.2       0.0       0.0       0.1
 9 H  s               0.0       4.4      12.0       0.0       5.1       0.1
 9 H  pz              0.0       0.1       0.1       0.0       0.1       0.0
 9 H  px              0.0       0.0       0.2       0.0       0.0       0.0
 9 H  py              0.1       0.0       0.0       0.0       0.0       0.3
10 H  s               3.3       0.0       6.2       0.2       0.9      12.2
10 H  pz              0.1       0.0       0.0       0.0       0.0       0.2
10 H  py              0.0       0.0       0.3       0.0       0.0       0.0
11 H  s               0.3       6.4       1.0       5.1       0.0       1.9
11 H  px              0.1       0.0       0.0       0.0       0.0       0.0
11 H  py              0.0       0.1       0.0       0.0       0.0       0.1
12 H  s               0.6       1.4       0.2       7.4       0.0       0.0
13 H  s               0.6       1.4       0.3       7.3       0.0       0.0
14 H  s               0.3       6.3       0.9       5.4       0.0       1.9
14 H  px              0.1       0.0       0.0       0.0       0.0       0.0
14 H  py              0.0       0.1       0.0       0.0       0.0       0.1
15 H  s               3.9       0.6       0.1       0.0       0.0       0.6
15 H  pz              0.0       0.0       0.0       0.0       0.2       0.0
16 H  s               3.9       0.6       0.1       0.0       0.0       0.6
16 H  pz              0.0       0.0       0.0       0.0       0.2       0.0

                     24        25        26        27        28        29   
                  -0.31478  -0.29882  -0.27411  -0.22806  -0.17540  -0.02427
                   2.00000   2.00000   2.00000   2.00000   2.00000   0.00000
                  --------  --------  --------  --------  --------  --------
 0 C  s               0.8       0.0       0.0       0.0       0.0       0.0
 0 C  pz              0.0       0.0       4.4       0.0       0.9       0.0
 0 C  px             22.8       0.0       0.0       0.0       0.0       0.0
 0 C  py              0.0       2.7       0.0       0.0       0.0       0.2
 0 C  dxz             0.0       0.0       0.2       0.0       0.3       0.0
 0 C  dx2y2           0.2       0.0       0.0       0.0       0.0       0.0
 0 C  dxy             0.0       0.2       0.0       0.0       0.0       0.0
 1 C  pz              0.2       0.0      14.2       0.0      20.8       0.0
 1 C  px             18.4       0.0       0.0       0.0       0.0       0.0
 1 C  py              0.0      14.2       0.0       0.0       0.0       0.0
 1 C  dxz             0.0       0.0       0.3       0.0       0.0       0.0
 1 C  dyz             0.0       0.0       0.0       0.6       0.0       1.4
 1 C  dx2y2           1.1       0.0       0.0       0.0       0.0       0.0
 1 C  dxy             0.0       0.5       0.0       0.0       0.0       0.0
 2 C  s               0.2       0.2       0.0       0.0       0.0       0.0
 2 C  pz              0.3       0.0      14.5      23.8       3.0      22.3
 2 C  px              9.1       0.5       0.1       0.0       0.0       0.0
 2 C  py              0.4      10.8       0.0       0.0       0.0       0.0
 2 C  dxz             0.0       0.0       0.0       0.2       0.4       0.5
 2 C  dyz             0.0       0.0       0.1       0.0       0.1       0.0
 2 C  dx2y2           0.6       0.0       0.0       0.0       0.0       0.0
 2 C  dxy             0.0       0.8       0.0       0.0       0.0       0.0
 3 C  s               0.2       0.1       0.0       0.0       0.0       0.0
 3 C  pz              0.3       0.0       2.0      24.4      11.7      22.2
 3 C  px              8.6       0.3       0.1       0.0       0.0       0.0
 3 C  py              0.1       8.0       0.0       0.0       0.0       0.0
 3 C  dxz             0.0       0.0       0.2       0.2       0.1       0.5
 3 C  dx2y2           0.1       0.0       0.0       0.0       0.0       0.0
 3 C  dxy             0.0       0.8       0.0       0.0       0.0       0.0
 4 C  s               0.1       0.0       0.0       0.0       0.0       0.0
 4 C  pz              0.2       0.0       4.1       0.0       9.9       0.0
 4 C  px              1.1       0.0       0.4       0.0       0.1       0.0
 4 C  py              0.0       9.9       0.0       0.0       0.0       0.0
 4 C  dxz             0.0       0.0       0.5       0.0       1.0       0.0
 4 C  dyz             0.0       0.0       0.0       0.6       0.0       1.3
 4 C  dx2y2           0.6       0.0       0.0       0.0       0.0       0.0
 4 C  dxy             0.0       0.3       0.0       0.0       0.0       0.0
 5 C  s               0.2       0.1       0.0       0.0       0.0       0.0
 5 C  pz              0.3       0.0       1.9      24.7      11.4      21.7
 5 C  px              8.5       0.3       0.1       0.0       0.0       0.0
 5 C  py              0.1       8.0       0.0       0.0       0.0       0.0
 5 C  dxz             0.0       0.0       0.2       0.2       0.1       0.6
 5 C  dx2y2           0.1       0.0       0.0       0.0       0.0       0.0
 5 C  dxy             0.0       0.8       0.0       0.0       0.0       0.0
 6 C  s               0.2       0.2       0.0       0.0       0.0       0.0
 6 C  pz              0.3       0.0      14.2      23.9       3.0      23.7
 6 C  px              8.9       0.5       0.1       0.0       0.0       0.0
 6 C  py              0.5      10.9       0.0       0.0       0.0       0.0
 6 C  dxz             0.0       0.0       0.0       0.2       0.4       0.5
 6 C  dyz             0.0       0.0       0.1       0.0       0.1       0.0
 6 C  dx2y2           0.6       0.0       0.0       0.0       0.0       0.0
 6 C  dxy             0.0       0.8       0.0       0.0       0.0       0.0
 7 N  s               0.4       0.0       1.0       0.0       1.0       0.0
 7 N  pz              0.0       0.0      33.3       0.0      27.8       0.0
 7 N  px              2.1       0.0       1.2       0.0       0.6       0.0
 7 N  py              0.0       0.3       0.0       0.0       0.0       0.1
 7 N  dz2             0.2       0.0       0.0       0.0       0.0       0.0
 7 N  dxz             0.0       0.0       0.1       0.0       2.2       0.0
 7 N  dyz             0.0       0.0       0.0       0.2       0.0       1.8
 7 N  dxy             0.0       0.7       0.0       0.0       0.0       0.0
 8 H  s               1.3       1.6       0.5       0.0       0.3       0.1
 8 H  px              0.2       0.0       0.0       0.0       0.0       0.0
 9 H  s               0.6       0.0       3.6       0.0       1.9       0.0
 9 H  px              0.2       0.0       0.0       0.0       0.0       0.0
10 H  s               1.4       1.4       1.0       0.0       0.6       0.2
10 H  px              0.2       0.0       0.0       0.0       0.0       0.0
11 H  s               1.7       6.2       0.0       0.0       0.0       0.0
11 H  pz              0.0       0.0       0.1       0.3       0.0       0.7
12 H  s               1.8       5.9       0.0       0.0       0.0       0.0
12 H  pz              0.0       0.0       0.0       0.3       0.2       0.7
13 H  s               1.8       5.9       0.0       0.0       0.0       0.0
13 H  pz              0.0       0.0       0.0       0.3       0.1       0.6
14 H  s               1.6       6.2       0.0       0.0       0.0       0.0
14 H  pz              0.0       0.0       0.1       0.3       0.0       0.7
15 H  s               0.2       0.3       0.1       0.0       0.2       0.0
15 H  pz              0.0       0.0       0.4       0.0       0.5       0.0
16 H  s               0.2       0.3       0.1       0.0       0.2       0.0
16 H  pz              0.0       0.0       0.4       0.0       0.5       0.0

                     30        31        32        33        34        35   
                  -0.00256   0.07508   0.08556   0.11331   0.11378   0.12724
                   0.00000   0.00000   0.00000   0.00000   0.00000   0.00000
                  --------  --------  --------  --------  --------  --------
 0 C  s               0.0       0.1       7.3       6.8      19.2       1.2
 0 C  pz              0.1       0.1       0.1       0.0       0.1       4.7
 0 C  px              0.0       0.3       5.4       0.9       2.6       0.5
 0 C  py              0.0       0.0       0.0       5.4       1.7       0.0
 0 C  dz2             0.1       0.0       0.1       0.0       0.0       0.2
 0 C  dxz             0.9       0.0       0.0       0.0       0.0       0.8
 0 C  dx2y2           0.0       0.0       0.5       0.0       0.0       0.1
 0 C  dxy             0.0       0.0       0.0       0.1       0.0       0.0
 1 C  s               0.0       0.4       2.3       0.9       2.9       0.4
 1 C  pz             28.2       0.4       0.0       0.0       0.1      10.2
 1 C  px              0.0       0.5       1.9       0.3       0.7       0.1
 1 C  py              0.0       0.0       0.0       1.4       0.5       0.0
 1 C  dz2             0.0       0.0       0.0       0.1       0.4       0.1
 1 C  dxz             0.2       0.0       0.0       0.0       0.0       0.5
 1 C  dx2y2           0.0       0.0       0.9       0.1       0.3       0.0
 1 C  dxy             0.0       0.0       0.0       0.4       0.2       0.0
 2 C  s               0.0       1.1       5.4       4.6       0.1       0.0
 2 C  pz              8.3       0.4       0.0       0.1       0.0      10.8
 2 C  px              0.0       0.5       3.1       2.6       0.8       0.0
 2 C  py              0.0       0.6       8.0       3.8       2.3       0.0
 2 C  dz2             0.0       0.1       0.1       0.1       0.1       0.0
 2 C  dxz             0.4       0.0       0.0       0.0       0.0       0.1
 2 C  dyz             0.6       0.0       0.0       0.0       0.0       0.3
 2 C  dx2y2           0.0       0.0       0.1       0.0       0.4       0.0
 2 C  dxy             0.0       0.0       0.5       0.2       0.6       0.0
 3 C  s               0.0       4.1       2.1       3.1       2.2       0.3
 3 C  pz              4.1       0.2       0.0       0.1       0.0      12.9
 3 C  px              0.0       5.3       0.5       1.6       2.3       0.4
 3 C  py              0.0       0.3       3.4       2.0      13.5       0.0
 3 C  dz2             0.0       0.0       0.0       0.1       0.3       0.0
 3 C  dxz             0.6       0.0       0.0       0.0       0.0       0.1
 3 C  dyz             0.6       0.0       0.0       0.0       0.0       0.5
 3 C  dx2y2           0.0       0.3       0.4       0.0       0.2       0.0
 3 C  dxy             0.0       0.0       0.6       0.2       0.5       0.0
 4 C  s               0.0       6.5       0.4       0.3       0.8       0.7
 4 C  pz             26.0       0.3       0.1       0.0       0.0      15.2
 4 C  px              0.0       5.0       2.7       0.4       1.1       0.4
 4 C  py              0.0       0.0       0.0       2.0       0.7       0.0
 4 C  dz2             0.0       0.5       0.0       0.0       0.1       0.0
 4 C  dx2y2           0.0       0.1       1.1       0.2       0.4       0.0
 4 C  dxy             0.0       0.0       0.0       0.6       0.2       0.0
 5 C  s               0.0       4.1       2.0       2.3       3.2       0.3
 5 C  pz              4.9       0.2       0.0       0.0       0.1      12.6
 5 C  px              0.0       5.3       0.5       3.4       0.4       0.3
 5 C  py              0.0       0.3       3.2      15.1       0.6       0.1
 5 C  dz2             0.0       0.0       0.0       0.1       0.4       0.0
 5 C  dxz             0.5       0.0       0.0       0.0       0.0       0.1
 5 C  dyz             0.6       0.0       0.0       0.0       0.0       0.5
 5 C  dx2y2           0.0       0.3       0.4       0.1       0.1       0.0
 5 C  dxy             0.0       0.0       0.5       0.7       0.0       0.0
 6 C  s               0.0       1.1       5.3       0.7       4.3       0.0
 6 C  pz              7.0       0.3       0.0       0.0       0.1      10.5
 6 C  px              0.0       0.5       3.0       0.1       3.1       0.0
 6 C  py              0.0       0.6       7.6       5.3       1.0       0.0
 6 C  dz2             0.0       0.1       0.1       0.0       0.2       0.0
 6 C  dxz             0.5       0.0       0.0       0.0       0.0       0.1
 6 C  dyz             0.6       0.0       0.0       0.0       0.0       0.3
 6 C  dx2y2           0.0       0.0       0.1       0.2       0.2       0.0
 6 C  dxy             0.0       0.0       0.5       0.8       0.0       0.0
 7 N  s               0.4      15.1       0.7       0.2       0.5       0.3
 7 N  pz              4.7       1.2       0.0       0.0       0.0       1.0
 7 N  px              0.3       5.6       0.9       0.3       0.7       0.3
 7 N  py              0.0       0.0       0.0       4.6       1.7       0.0
 7 N  dz2             0.1       0.2       0.1       0.2       0.5       0.3
 7 N  dxz             4.8       0.4       0.0       0.0       0.0       2.5
 7 N  dyz             0.0       0.0       0.0       0.5       0.2       0.0
 7 N  dx2y2           0.0       4.7       0.8       0.2       0.5       0.0
 7 N  dxy             0.0       0.0       0.0       2.1       0.8       0.0
 8 H  s               0.5       0.1       1.7       2.1       1.0       0.6
 8 H  pz              0.0       0.0       0.1       0.2       0.2       0.0
 8 H  px              0.0       0.0       0.1       0.3       0.0       0.0
 8 H  py              0.0       0.0       0.7       0.8       0.6       0.1
 9 H  s               2.0       0.1       0.6       0.7       2.3       3.7
 9 H  pz              0.0       0.0       0.4       0.4       1.2       0.8
 9 H  px              0.1       0.0       0.1       0.0       0.1       0.4
10 H  s               0.7       0.1       1.3       0.1       3.2       0.9
10 H  pz              0.0       0.0       0.1       0.1       0.5       0.0
[...]
14 H  px              0.1       0.2       0.5       1.3       0.4       1.3
14 H  py              0.2       0.3       0.6       3.3       4.2       3.4
15 H  s               0.0       0.0       0.1       1.2       0.4       2.2
15 H  pz              0.0       0.1       0.0       0.6       0.3       0.5
15 H  px              0.0       0.0       0.8       1.1       0.3       1.1
15 H  py              0.1       0.0       0.1       3.2       1.5       3.5
16 H  s               0.0       0.0       0.0       1.4       0.3       2.2
16 H  pz              0.0       0.0       0.1       0.7       0.1       0.5
16 H  px              0.0       0.1       0.6       1.1       0.3       1.1
16 H  py              0.1       0.0       0.0       4.1       0.6       3.5

                    192       193       194       195       196       197   
                   4.18786   4.30870  21.40448  21.86994  21.96798  22.05948
                   0.00000   0.00000   0.00000   0.00000   0.00000   0.00000
                  --------  --------  --------  --------  --------  --------
 0 C  s               0.0       0.0       1.4      37.9       0.0      58.4
 0 C  px              0.2       0.0       0.0       0.0       0.0       0.0
 0 C  dx2y2           0.4       0.0       0.0       0.0       0.0       0.0
 1 C  s               0.2       0.0      24.3      21.7       0.0      12.1
 1 C  px              0.3       0.0       0.0       0.0       0.0       0.1
 1 C  py              0.0       0.0       0.0       0.0       0.1       0.0
 1 C  dx2y2           2.0       0.0       0.0       0.0       0.0       0.0
 2 C  s               0.1       0.0      19.5       0.5      25.0       3.6
 2 C  px              0.2       0.0       0.0       0.0       0.0       0.0
 2 C  py              0.3       0.0       0.0       0.0       0.0       0.0
 2 C  dx2y2           1.0       0.0       0.0       0.0       0.0       0.0
 2 C  dxy             2.6       0.0       0.0       0.0       0.0       0.0
 3 C  s               0.1       0.2      13.6      10.6      24.6       3.3
 3 C  px              0.3       0.0       0.0       0.0       0.0       0.0
 3 C  py              0.8       0.1       0.0       0.0       0.0       0.0
 3 C  dx2y2           1.4       0.0       0.0       0.0       0.0       0.0
 3 C  dxy             3.7       0.1       0.0       0.0       0.0       0.0
 4 C  s               1.2       0.0       8.4      17.4       0.0      15.2
 4 C  px              4.8       0.0       0.0       0.0       0.0       0.0
 4 C  py              0.0       0.5       0.0       0.0       0.1       0.0
 4 C  dz2             0.7       0.0       0.0       0.0       0.0       0.0
 4 C  dyz             0.0       0.1       0.0       0.0       0.0       0.0
 4 C  dx2y2          11.4       0.0       0.0       0.0       0.0       0.0
 4 C  dxy             0.0       0.4       0.0       0.0       0.0       0.0
 5 C  s               0.1       0.2      13.5      10.8      24.5       3.3
 5 C  px              0.3       0.0       0.0       0.0       0.0       0.0
 5 C  py              0.8       0.1       0.0       0.0       0.0       0.0
 5 C  dx2y2           1.4       0.0       0.0       0.0       0.0       0.0
 5 C  dxy             3.7       0.1       0.0       0.0       0.0       0.0
 6 C  s               0.1       0.0      19.2       0.4      25.3       3.5
 6 C  px              0.2       0.0       0.0       0.0       0.0       0.0
 6 C  py              0.3       0.0       0.0       0.0       0.0       0.0
 6 C  dx2y2           1.0       0.0       0.0       0.0       0.0       0.0
 6 C  dxy             2.6       0.0       0.0       0.0       0.0       0.0
 7 N  s               0.6       0.0       0.1       0.1       0.0       0.1
 7 N  pz              0.2       0.0       0.0       0.0       0.0       0.0
 7 N  px             11.4       0.0       0.0       0.0       0.0       0.0
 7 N  py              0.0      18.1       0.0       0.0       0.0       0.0
 7 N  dxz             1.5       0.0       0.0       0.0       0.0       0.0
 7 N  dyz             0.0      14.8       0.0       0.0       0.0       0.0
 7 N  dx2y2          23.5       0.0       0.0       0.0       0.0       0.0
 7 N  dxy             0.0      27.1       0.0       0.0       0.0       0.0
11 H  s               0.7       0.0       0.0       0.0       0.0       0.0
11 H  px              0.2       0.0       0.0       0.0       0.0       0.0
11 H  py              1.0       0.0       0.0       0.0       0.0       0.0
12 H  s               1.3       0.0       0.0       0.0       0.0       0.0
12 H  px              0.6       0.0       0.0       0.0       0.0       0.0
12 H  py              1.8       0.0       0.0       0.0       0.0       0.0
13 H  s               1.3       0.0       0.0       0.0       0.0       0.0
13 H  px              0.6       0.0       0.0       0.0       0.0       0.0
13 H  py              1.8       0.0       0.0       0.0       0.0       0.0
14 H  s               0.7       0.0       0.0       0.0       0.0       0.0
14 H  px              0.2       0.0       0.0       0.0       0.0       0.0
14 H  py              1.0       0.0       0.0       0.0       0.0       0.0
15 H  s               1.7       8.3       0.0       0.0       0.0       0.0
15 H  pz              0.3       0.8       0.0       0.0       0.0       0.0
15 H  px              0.7       2.0       0.0       0.0       0.0       0.0
15 H  py              1.7       7.8       0.0       0.0       0.0       0.0
16 H  s               1.7       8.3       0.0       0.0       0.0       0.0
16 H  pz              0.3       0.8       0.0       0.0       0.0       0.0
16 H  px              0.7       2.0       0.0       0.0       0.0       0.0
16 H  py              1.7       7.8       0.0       0.0       0.0       0.0

                    198       199       200       201   
                  22.18851  22.20139  22.34362  31.90817
                   0.00000   0.00000   0.00000   0.00000
                  --------  --------  --------  --------
 0 C  s               1.7       0.0       0.1       0.0
 1 C  s              25.4       0.0      16.3       0.0
 2 C  s               8.4      23.8      18.9       0.0
 3 C  s               5.6      25.8      16.0       0.0
 4 C  s              44.6       0.0      13.6       0.1
 5 C  s               7.0      24.4      16.0       0.0
 6 C  s               6.8      25.5      18.9       0.0
 7 N  s               0.1       0.0       0.0      99.7


                      *****************************
                      * MAYER POPULATION ANALYSIS *
                      *****************************

  NA   - Mulliken gross atomic population
  ZA   - Total nuclear charge
  QA   - Mulliken gross atomic charge
  VA   - Mayer's total valence
  BVA  - Mayer's bonded valence
  FA   - Mayer's free valence

  ATOM       NA         ZA         QA         VA         BVA        FA
  0 C      6.5259     6.0000    -0.5259     3.7979     3.7979     0.0000
  1 C      5.8428     6.0000     0.1572     3.5049     3.5049    -0.0000
  2 C      6.1898     6.0000    -0.1898     3.9443     3.9443    -0.0000
  3 C      6.3879     6.0000    -0.3879     3.8993     3.8993    -0.0000
  4 C      5.4692     6.0000     0.5308     3.5065     3.5065    -0.0000
  5 C      6.3882     6.0000    -0.3882     3.8967     3.8967    -0.0000
  6 C      6.1853     6.0000    -0.1853     3.9369     3.9369    -0.0000
  7 N      7.5379     7.0000    -0.5379     3.0212     3.0212     0.0000
  8 H      0.8531     1.0000     0.1469     0.9651     0.9651    -0.0000
  9 H      0.8366     1.0000     0.1634     0.9541     0.9541     0.0000
 10 H      0.8525     1.0000     0.1475     0.9636     0.9636    -0.0000
 11 H      0.8550     1.0000     0.1450     0.9702     0.9702    -0.0000
 12 H      0.8643     1.0000     0.1357     0.9752     0.9752    -0.0000
 13 H      0.8642     1.0000     0.1358     0.9752     0.9752    -0.0000
 14 H      0.8549     1.0000     0.1451     0.9701     0.9701    -0.0000
 15 H      0.7462     1.0000     0.2538     0.9279     0.9279     0.0000
 16 H      0.7462     1.0000     0.2538     0.9279     0.9279     0.0000

  Mayer bond orders larger than 0.100000
B(  0-C ,  1-C ) :   0.7903 B(  0-C ,  8-H ) :   0.9948 B(  0-C ,  9-H ) :   0.9699 
B(  0-C , 10-H ) :   0.9915 B(  1-C ,  2-C ) :   1.4198 B(  1-C ,  6-C ) :   1.4116 
B(  2-C ,  3-C ) :   1.4548 B(  2-C , 11-H ) :   0.9346 B(  3-C ,  4-C ) :   1.3394 
B(  3-C , 12-H ) :   0.9483 B(  4-C ,  5-C ) :   1.3357 B(  4-C ,  7-N ) :   0.9407 
B(  5-C ,  6-C ) :   1.4584 B(  5-C , 13-H ) :   0.9480 B(  6-C , 14-H ) :   0.9371 
B(  7-N , 15-H ) :   0.9270 B(  7-N , 16-H ) :   0.9271 

-------
TIMINGS
-------

Total SCF time: 0 days 0 hours 0 min 20 sec 

Total time                  ....      20.330 sec
Sum of individual times     ....      19.822 sec  ( 97.5%)

SCF preparation             ....       0.164 sec  (  0.8%)
Fock matrix formation       ....      18.767 sec  ( 92.3%)
  Startup                   ....       0.053 sec  (  0.3% of F)
  Split-RI-J                ....       3.593 sec  ( 19.1% of F)
  XC integration            ....      14.561 sec  ( 77.6% of F)
    XC Preparation          ....       0.000 sec  (  0.0% of XC)
    Basis function eval.    ....       2.526 sec  ( 17.3% of XC)
    Density eval.           ....       4.437 sec  ( 30.5% of XC)
    XC-Functional eval.     ....       1.743 sec  ( 12.0% of XC)
    XC-Potential eval.      ....       4.971 sec  ( 34.1% of XC)
Diagonalization             ....       0.000 sec  (  0.0%)
Density matrix formation    ....       0.243 sec  (  1.2%)
Total Energy calculation    ....       0.034 sec  (  0.2%)
Population analysis         ....       0.089 sec  (  0.4%)
Orbital Transformation      ....       0.053 sec  (  0.3%)
Orbital Orthonormalization  ....       0.000 sec  (  0.0%)
DIIS solution               ....       0.346 sec  (  1.7%)
  MO trafo                  ....       0.000 sec  (  0.0 % of DIIS)
  Orb grad                  ....       0.000 sec  (  0.0 % of DIIS)
  Energy W gradient         ....       0.000 sec  (  0.0 % of DIIS)
  DIIS error                ....       0.008 sec  (  2.4 % of DIIS)
  DIIS work                 ....       0.296 sec  ( 85.5 % of DIIS)
  Form Q                    ....       0.000 sec  (  0.0 % of DIIS)
  Form QpQm                 ....       0.000 sec  (  0.0 % of DIIS)
  Exp/Cayley                ....       0.000 sec  (  0.0 % of DIIS)
  Orb update                ....       0.000 sec  (  0.0 % of DIIS)
  Wake-sleep                ....       0.017 sec  (  4.8 % of DIIS)
SOSCF solution              ....       0.125 sec  (  0.6%)
  MO trafo                  ....       0.052 sec  ( 41.3 % of SOSCF)
  Orb grad                  ....       0.002 sec  (  1.3 % of SOSCF)
  Rot update                ....       0.040 sec  ( 32.1 % of SOSCF)
  Step                      ....       0.032 sec  ( 25.2 % of SOSCF)
Finished LeanSCF after  20.4 sec

Maximum memory used throughout the entire LEANSCF-calculation: 21.6 MB


-------------------------------------------------------------------------------
                          DFT DISPERSION CORRECTION                            
                                                                               
                                DFTD4 V3.4.0                                   
-------------------------------------------------------------------------------
The R2SCAN3C composite method is recognized
Using three-body term ABC
Active option DFTDOPT                   ...         5   

-------------------------   ----------------
Dispersion correction           -0.005301070
-------------------------   ----------------

------------------   -----------------
gCP correction             0.007222993
------------------   -----------------

-------------------------   --------------------
FINAL SINGLE POINT ENERGY      -326.829040695558
-------------------------   --------------------


------------------------------------------------------------------------------
                              ORCA PROPERTY CALCULATIONS
------------------------------------------------------------------------------

GBWName                                 ... sp_gas.gbw
Number of atoms                         ...     17
Number of basis functions               ...    202
Max core memory                         ...   1024 MB

Electric properties:
Dipole moment                           ... YES
Quadrupole moment                       ...  NO
Static polarizability (Dipole/Dipole)   ...  NO
Static polarizability (Dipole/Quad.)    ...  NO
Static polarizability (Quad./Quad.)     ...  NO
Static polarizability (Velocity)        ...  NO

Atomic electric properties:
Dipole moment                           ...  NO
Quadrupole moment                       ...  NO
Static polarizability                   ...  NO

Choice of electric origin               ... Center of mass
Position of electric origin             ...     0.000009    -0.000000     0.000000

General magnetic properties:
Magnetizability                         ...  NO

EPR properties:
g-Tensor (aka g-matrix)                 ...  NO
Zero-Field splitting spin-orbit         ...  NO
Zero-field splitting spin-spin          ...  NO
Hyperfine couplings                     ...  NO (   0 nuclei)
Quadrupole couplings                    ...  NO (   0 nuclei)
Contact density                         ...  NO (   0 nuclei)

NMR properties:
Chemical shifts                         ...  NO (   0 nuclei)
Spin-rotation constants                 ...  NO (   0 nuclei)
Spin-spin couplings                     ...  NO (   0 nuclei,    0 pairs)

Choice of magnetic origin               ... GIAO
Position of magnetic origin             ...     0.000000     0.000000     0.000000

Properties with geometric perturbations:
SCF Hessian                             ...  NO
IR spectrum                             ...  NO
VCD spectrum                            ...  NO
X-ray spectroscopy properties:
SCF XES/XAS/RIXS spectra                ...  NO


-------------
DIPOLE MOMENT
-------------

Method             : SCF
Type of density    : Electron Density
Multiplicity       :   1
Irrep              :   0
Energy             :  -326.8309626181462590 Eh
Relativity type    : 
Basis              : AO
                                X                 Y                 Z
Electronic contribution:      3.684392101       0.003006124      -0.098906865
Nuclear contribution   :     -3.212402815      -0.009018868       0.398685480
                        -----------------------------------------
Total Dipole Moment    :      0.471989286      -0.006012745       0.299778615
                        -----------------------------------------
Magnitude (a.u.)       :      0.559175516
Magnitude (Debye)      :      1.421311208



--------------------
Rotational spectrum 
--------------------
 
Rotational constants in cm-1:             0.183977             0.049259             0.039169 
Rotational constants in MHz :          5515.485272          1476.746326          1174.259933 

Dipole components along the rotational axes: 
x,y,z [a.u.] :    -0.471989    -0.006013     0.299778 
x,y,z [Debye]:    -1.199702    -0.015283     0.761976 

 

Dipole moment calculation done in   0.0 sec 

Maximum memory used throughout the entire PROP-calculation: 12.5 MB

--------------------------------
SUGGESTED CITATIONS FOR THIS RUN
--------------------------------

Below you find a list of papers that are relevant to this ORCA run
We neither can nor want to force you to cite these papers, but we appreciate if you do
You receive ORCA, which is the product of decades of hard work by many enthusiastic individuals, for free
The only thing we kindly ask in return is that you cite our papers,
We deeply appreciate it, if you show your appreciation for ORCA by not just citing the generic ORCA reference.

Please note that relegating all ORCA citations to the supporting information does *not* help us.
SI sections are not indexed - citations you put there will not count into any citation statistics
But we need these citations in order to attract the funding resources that allow us to do what we are doing

Therefore, if you are a happy ORCA user, please consider citing a few of the papers listed below in the main body of your paper

In addition to the list printed below, the program has created the file sp_gas.bibtex that contains the list in bibtex format
You can import this file easily into all common literature databanks and citation aid programs


List of essential papers. We consider these as the minimum necessary citations

  1. Neese,F.
     Software update: the ORCA program system, version 5.0
     WIRES Comput. Molec. Sci., 2022 12(1)e1606
     doi.org/10.1002/wcms.1606
  2. Grimme,S.; Hansen,A.; Ehlert,S.; Mewes,J.
     r2SCAN-3c: A 'Swiss army knife' composite electronic-structure method
     J. Chem. Phys., 2021 154 064103
     doi.org/10.1063/5.0040021

List of papers to cite with high priority. The work reported in these papers was absolutely
necessary for this run to complete.
Our perspective: the developers of density functionals and basis sets usually get cited in chemistry papers
Good! But without the algorithms to do something with them, the functionals or basis sets would not do anything.
Hence, in our opinion, the algorithm design and method developments papers are equally worthy of getting cited

  1. Neese,F.
     An improvement of the resolution of the identity approximation for the formation of the Coulomb matrix
     J. Comp. Chem., 2003 24(14)1740-1747
     doi.org/10.1002/jcc.10318
  2. Neese,F.
     The SHARK Integral Generation and Digestion System
     J. Comp. Chem., 2022  1-16
     doi.org/10.1002/jcc.26942
  3. Lehtola,S.; Steigemann,C.; Oliveira,M.; Marques,M.
     Recent developments in Libxc - A comprehensive library of functionals for density functional theory
     Software X, 2018 7 
     doi.org/10.1016/j.softx.2017.11.002
  4. Caldeweyher,E.; Bannwarth,C.; Grimme,S.
     Extension of the D3 dispersion coefficient model
     J. Chem. Phys., 2017 147 034112-XXXX
     doi.org/10.1063/1.4993215
  5. Caldeweyher,E.; Ehlert,S.; Hansen,A.; Neugebauer,H.; Spicher,S.; Bannwarth,C.; Grimme,S.
     A generally applicable atomic-charge dependent London dispersion correction
     J. Chem. Phys., 2019 150 154122-XXXX
     doi.org/10.1063/1.5090222
  6. Caldeweyher,E.; Mewes,J.; Ehlert,S.; Grimme,S.
     Extension and evaluation of the D4 London-dispersion model for periodic systems
     Phys. Chem. Chem. Phys., 2020 22(16)8499-8512
     doi.org/10.1039/D0CP00502A

List of suggested additional citations. These are papers that are important in the 'surrounding' of 
of this run, or papers that preceded the highly important papers. If you like your results we are grateful for a citation.

  1. Neese,F.
     The ORCA program system
     WIRES Comput. Molec. Sci., 2012 2(1)73-78
     doi.org/10.1002/wcms.81
  2. Neese,F.
     Software update: the ORCA program system, version 4.0
     WIRES Comput. Molec. Sci., 2018 8(1)1-6
     doi.org/10.1002/wcms.1327
  3. Neese,F.; Wennmohs,F.; Becker,U.; Riplinger,C.
     The ORCA quantum chemistry program package
     J. Chem. Phys., 2020 152 Art. No. L224108
     doi.org/10.1063/5.0004608

List of optional additional citations

  1. Neese,F.
     Approximate second-order SCF convergence for spin unrestricted wavefunctions
     Chem. Phys. Lett., 2000 325(1-3)93-98
     doi.org/10.1016/s0009-2614(00)00662-x

Timings for individual modules:

Sum of individual times          ...       21.763 sec (=   0.363 min)
Startup calculation              ...        1.012 sec (=   0.017 min)   4.6 %
SCF iterations                   ...       20.654 sec (=   0.344 min)  94.9 %
Property calculations            ...        0.097 sec (=   0.002 min)   0.4 %
                             ****ORCA TERMINATED NORMALLY****
TOTAL RUN TIME: 0 days 0 hours 0 minutes 22 seconds 347 msec
