      -----------------------------------------------------------      
     |                   =====================                   |     
     |                           x T B                           |     
     |                   =====================                   |     
     |                         S. Grimme                         |     
     |          Mulliken Center for Theoretical Chemistry        |     
     |                    University of Bonn                     |     
      -----------------------------------------------------------      

   * xtb version 6.7.1 (edcfbbe) compiled by 'albert@albert-system' on 2024-07-22

   xtb is free software: you can redistribute it and/or modify it under
   the terms of the GNU Lesser General Public License as published by
   the Free Software Foundation, either version 3 of the License, or
   (at your option) any later version.
   
   xtb is distributed in the hope that it will be useful,
   but WITHOUT ANY WARRANTY; without even the implied warranty of
   MERCHANTABILITY or FITNESS FOR A PARTICULAR PURPOSE.  See the
   GNU Lesser General Public License for more details.
   
   Cite this work as:
   * C. Bannwarth, E. Caldeweyher, S. Ehlert, A. Hansen, P. Pracht,
     J. Seibert, S. Spicher, S. Grimme, WIREs Comput. Mol. Sci., 2020, 11,
     e01493. DOI: 10.1002/wcms.1493
   
   for GFN2-xTB:
   * C. Bannwarth, S. Ehlert and S. Grimme., J. Chem. Theory Comput., 2019,
     15, 1652-1671. DOI: 10.1021/acs.jctc.8b01176
   for GFN1-xTB:
   * S. Grimme, C. Bannwarth, P. Shushkov, J. Chem. Theory Comput., 2017,
     13, 1989-2009. DOI: 10.1021/acs.jctc.7b00118
   for GFN0-xTB:
   * P. Pracht, E. Caldeweyher, S. Ehlert, S. Grimme, ChemRxiv, 2019, preprint.
     DOI: 10.26434/chemrxiv.8326202.v1
   for GFN-FF:
   * S. Spicher and S. Grimme, Angew. Chem. Int. Ed., 2020, 59, 15665-15673.
     DOI: 10.1002/anie.202004239
   
   for ALPB and GBSA implicit solvation:
   * S. Ehlert, M. Stahn, S. Spicher, S. Grimme, J. Chem. Theory Comput.,
     2021, 17, 4250-4261. DOI: 10.1021/acs.jctc.1c00471
   
   for ddCOSMO and CPCM-X implicit solvation:
   * M. Stahn, S. Ehlert, S. Grimme, J. Phys. Chem. A,
     2023, XX, XXXX-XXXX. DOI: 10.1021/acs.jpca.3c04382
   
   for DFT-D4:
   * E. Caldeweyher, C. Bannwarth and S. Grimme, J. Chem. Phys., 2017,
     147, 034112. DOI: 10.1063/1.4993215
   * E. Caldeweyher, S. Ehlert, A. Hansen, H. Neugebauer, S. Spicher,
     C. Bannwarth and S. Grimme, J. Chem. Phys., 2019, 150, 154122.
     DOI: 10.1063/1.5090222
   * E. Caldeweyher, J.-M. Mewes, S. Ehlert and S. Grimme, Phys. Chem. Chem. Phys.
     2020, 22, 8499-8512. DOI: 10.1039/D0CP00502A
   
   for sTDA-xTB:
   * S. Grimme and C. Bannwarth, J. Chem. Phys., 2016, 145, 054103.
     DOI: 10.1063/1.4959605
   
   in the mass-spec context:
   * V. Asgeirsson, C. Bauer and S. Grimme, Chem. Sci., 2017, 8, 4879.
     DOI: 10.1039/c7sc00601b
   * J. Koopman and S. Grimme, ACS Omega 2019, 4, 12, 15120-15133.
     DOI: 10.1021/acsomega.9b02011
   
   for metadynamics refer to:
   * S. Grimme, J. Chem. Theory Comput., 2019, 155, 2847-2862
     DOI: 10.1021/acs.jctc.9b00143
   
   for SPH calculations refer to:
   * S. Spicher and S. Grimme, J. Chem. Theory Comput., 2021, 17, 1701-1714
     DOI: 10.1021/acs.jctc.0c01306
   
   for ONIOM refer to:
   * C. Plett, A. Katbashev, S. Ehlert, S. Grimme, M. Bursch,
     Phys. Chem. Chem. Phys., 2023, 25, 17860-17868. DOI: 10.1039/D3CP02178E
   
   for DIPRO refer to:
   * J. Kohn, N. Gildemeister, S. Grimme, D. Fazzi, A. Hansen,
     J. Chem. Phys., 2023, just accepted.
   
   for PTB refer to:
   * S. Grimme, M. Mueller, A. Hansen, J. Chem. Phys., 2023, 158, 124111.
     DOI: 10.1063/5.0137838
   
   with help from (in alphabetical order)
   P. Atkinson, C. Bannwarth, F. Bohle, G. Brandenburg, E. Caldeweyher
   M. Checinski, S. Dohm, S. Ehlert, S. Ehrlich, I. Gerasimov, C. Hölzer
   A. Katbashev, J. Kohn, J. Koopman, C. Lavigne, S. Lehtola, F. März, M. Müller,
   F. Musil, H. Neugebauer, J. Pisarek, C. Plett, P. Pracht, F. Pultar,
   J. Seibert, P. Shushkov, S. Spicher, M. Stahn, M. Steiner, T. Strunk,
   J. Stückrath, T. Rose, and J. Unsleber
   
 * started run on 2025/04/03 at 21:42:16.737     
   ID    Z sym.   atoms
    1    6 C      1
    2   35 Br     2-4
    3    1 H      5

           -------------------------------------------------
          |                Calculation Setup                |
           -------------------------------------------------

          program call               : /srv/scratch/z5358697/.xtb/bin/xtb xtb_rrho.coord --gfn2 --ohess vtight --chrg 0 --enso --norestart -I rrho-xcontrol-inp --parallel 1 --alpb water
          hostname                   : k158
          coordinate file            : xtb_rrho.coord
          omp threads                :                     1


           -------------------------------------------------
          |                 G F N 2 - x T B                 |
           -------------------------------------------------

        Reference                      10.1021/acs.jctc.8b01176
      * Hamiltonian:
        H0-scaling (s, p, d)           1.850000    2.230000    2.230000
        zeta-weighting                 0.500000
      * Dispersion:
        s8                             2.700000
        a1                             0.520000
        a2                             5.000000
        s9                             5.000000
      * Repulsion:
        kExp                           1.500000    1.000000
        rExp                           1.000000
      * Coulomb:
        alpha                          2.000000
        third order                    shell-resolved
        anisotropic                    true
        a3                             3.000000
        a5                             4.000000
        cn-shift                       1.200000
        cn-exp                         4.000000
        max-rad                        5.000000

      * Solvation model:               ALPB
        Solvent                        water
        Parameter file                 internal GFN2-xTB/ALPB
        Dielectric constant                8.0200E+01
        Reference state                gsolv [1 M gas/solution]
        Free energy shift                  1.0808E-03 Eh       6.7819E-01 kcal/mol
        Temperature                        2.9815E+02 K
        Density                            1.0000E+00 kg/L
        Solvent mass                       1.8000E+01 g/mol
        Interaction kernel             P16
        Born radius scaling (c1)           1.4744E+00
        Born radii integrator          GBOBC
        Born offset                        0.0000E+00 a0       0.0000E+00 AA
        H-bond correction              true
        Ion screening                  false
        Surface tension                    1.0000E-05 Eh       1.5569E+01 dyn/cm
        Grid points                               974 per atom

          ...................................................
          :                      SETUP                      :
          :.................................................:
          :  # basis functions                  35          :
          :  # atomic orbitals                  32          :
          :  # shells                           12          :
          :  # electrons                        26          :
          :  max. iterations                   250          :
          :  Hamiltonian                  GFN2-xTB          :
          :  restarted?                      false          :
          :  GBSA solvation                   true          :
          :  PC potential                    false          :
          :  electronic temp.          300.0000000     K    :
          :  accuracy                    1.0000000          :
          :  -> integral cutoff          0.2500000E+02      :
          :  -> integral neglect         0.1000000E-07      :
          :  -> SCF convergence          0.1000000E-05 Eh   :
          :  -> wf. convergence          0.1000000E-03 e    :
          :  Broyden damping             0.4000000          :
          :  net charge                          0          :
          :  unpaired electrons                  0          :
          ...................................................

 iter      E             dE          RMSdq      gap      omega  full diag
   1    -14.7940288 -0.147940E+02  0.932E+00    4.63       0.0  T
   2    -14.8521379 -0.581091E-01  0.981E+00    3.70       1.0  T
   3    -14.8978200 -0.456821E-01  0.577E+00    3.88       1.0  T
   4    -14.9025633 -0.474323E-02  0.108E+00    3.80       1.0  T
   5    -14.9025300  0.332454E-04  0.742E-01    3.82       1.0  T
   6    -14.9030049 -0.474912E-03  0.186E-01    3.79       1.0  T
   7    -14.9030350 -0.300884E-04  0.554E-02    3.80       1.0  T
   8    -14.9030360 -0.102628E-05  0.198E-02    3.79       2.3  T
   9    -14.9030362 -0.165545E-06  0.279E-03    3.79      16.0  T
  10    -14.9030362 -0.936170E-09  0.209E-03    3.79      21.4  T
  11    -14.9030362 -0.422650E-08  0.407E-04    3.79     109.8  T
  12    -14.9030362 -0.107404E-09  0.185E-04    3.79     242.2  T

   *** convergence criteria satisfied after 12 iterations ***

         #    Occupation            Energy/Eh            Energy/eV
      -------------------------------------------------------------
         1        2.0000           -0.9038751             -24.5957
       ...           ...                  ...                  ...
         7        2.0000           -0.5811307             -15.8134
         8        2.0000           -0.4857651             -13.2183
         9        2.0000           -0.4856779             -13.2160
        10        2.0000           -0.4753362             -12.9346
        11        2.0000           -0.4752349             -12.9318
        12        2.0000           -0.4725900             -12.8598
        13        2.0000           -0.4719556             -12.8426 (HOMO)
        14                         -0.3325076              -9.0480 (LUMO)
        15                         -0.2718438              -7.3972
        16                         -0.2715969              -7.3905
        17                         -0.0450679              -1.2264
        18                         -0.0409716              -1.1149
       ...                                ...                  ...
        32                          0.4517716              12.2933
      -------------------------------------------------------------
                  HL-Gap            0.1394480 Eh            3.7946 eV
             Fermi-level           -0.4022316 Eh          -10.9453 eV

 SCC (total)                   0 d,  0 h,  0 min,  0.019 sec
 SCC setup                      ...        0 min,  0.000 sec (  1.837%)
 Dispersion                     ...        0 min,  0.000 sec (  0.111%)
 classical contributions        ...        0 min,  0.000 sec (  0.069%)
 integral evaluation            ...        0 min,  0.014 sec ( 73.941%)
 iterations                     ...        0 min,  0.003 sec ( 14.167%)
 molecular gradient             ...        0 min,  0.002 sec (  9.182%)
 printout                       ...        0 min,  0.000 sec (  0.620%)

         :::::::::::::::::::::::::::::::::::::::::::::::::::::
         ::                     SUMMARY                     ::
         :::::::::::::::::::::::::::::::::::::::::::::::::::::
         :: total energy             -14.871849589480 Eh    ::
         :: total w/o Gsasa/hb       -14.871049948432 Eh    ::
         :: gradient norm              0.005607410597 Eh/a0 ::
         :: HOMO-LUMO gap              3.794572679624 eV    ::
         ::.................................................::
         :: SCC energy               -14.903035583345 Eh    ::
         :: -> isotropic ES            0.012038153602 Eh    ::
         :: -> anisotropic ES          0.007080078434 Eh    ::
         :: -> anisotropic XC          0.000168751731 Eh    ::
         :: -> dispersion             -0.004690848294 Eh    ::
         :: -> Gsolv                  -0.002542923559 Eh    ::
         ::    -> Gelec               -0.001743282511 Eh    ::
         ::    -> Gsasa               -0.001260832078 Eh    ::
         ::    -> Ghb                 -0.000619568668 Eh    ::
         ::    -> Gshift               0.001080759698 Eh    ::
         :: repulsion energy           0.031185993865 Eh    ::
         :: add. restraining           0.000000000000 Eh    ::
         :: total charge              -0.000000000000 e     ::
         :::::::::::::::::::::::::::::::::::::::::::::::::::::

      ----------------------------------------------------------- 
     |                   =====================                   |
     |                        A N C O P T                        |
     |                   =====================                   |
     |               Approximate Normal Coordinate               |
     |                Rational Function Optimizer                |
      ----------------------------------------------------------- 
      ----------------------------------------------------------- 
     |                   =====================                   |
     |                        A N C O P T                        |
     |                   =====================                   |
     |               Approximate Normal Coordinate               |
     |                Rational Function Optimizer                |
      ----------------------------------------------------------- 

          ...................................................
          :                      SETUP                      :
          :.................................................:
          :   optimization level         verytight          :
          :   max. optcycles                   200          :
          :   ANC micro-cycles                  20          :
          :   degrees of freedom                 9          :
          :.................................................:
          :   RF solver                   davidson          :
          :   write xtbopt.log                true          :
          :   linear?                        false          :
          :   energy convergence         0.1000000E-06 Eh   :
          :   grad. convergence          0.2000000E-03 Eh/α :
          :   maxmium RF displ.          1.0000000          :
          :   Hlow (freq-cutoff)         0.1000000E-01      :
          :   Hmax (freq-cutoff)         5.0000000          :
          :   S6 in model hess.         20.0000000          :
          ...................................................

generating ANC from exact Hessian ...
Using Lindh-Hessian (1995)
 Shifting diagonal of input Hessian by   5.544725988926948E-003
 Lowest  eigenvalues of input Hessian
    0.000000    0.000000    0.000000    0.000000    0.000000    0.000000
    0.010000    0.010013    0.019219    0.048918    0.049023    0.232862
    0.572203    0.573506    0.922820
 Highest eigenvalues
    0.048918    0.049023    0.232862    0.572203    0.573506    0.922820
 

........................................................................
.............................. CYCLE    1 ..............................
........................................................................

 iter      E             dE          RMSdq      gap      omega  full diag
   1    -14.9030362 -0.149030E+02  0.149E-04    3.79       0.0  T
   2    -14.9030362 -0.824940E-11  0.123E-04    3.79     363.2  T
   3    -14.9030362 -0.619416E-11  0.111E-04    3.79     403.5  T
     SCC iter.                  ...        0 min,  0.001 sec
     gradient                   ...        0 min,  0.002 sec
 * total energy  :   -14.8718496 Eh     change       -0.4107825E-10 Eh
   gradient norm :     0.0056073 Eh/α   predicted     0.0000000E+00 (-100.00%)
   displ. norm   :     0.1503452 α      lambda       -0.5281273E-03
   maximum displ.:     0.1468150 α      in ANC's #3, #1, #6, ...

........................................................................
.............................. CYCLE    2 ..............................
........................................................................

 iter      E             dE          RMSdq      gap      omega  full diag
   1    -14.9036149 -0.149036E+02  0.448E-01    3.91       0.0  T
   2    -14.9036392 -0.243383E-04  0.275E-01    3.89       1.0  T
   3    -14.9036261  0.131599E-04  0.141E-01    3.90       1.0  T
   4    -14.9036601 -0.340072E-04  0.865E-02    3.89       1.0  T
   5    -14.9036633 -0.323696E-05  0.268E-02    3.89       1.7  T
   6    -14.9036638 -0.534937E-06  0.733E-03    3.89       6.1  T
   7    -14.9036639 -0.226893E-07  0.495E-03    3.89       9.0  T
   8    -14.9036639 -0.216062E-07  0.223E-03    3.89      20.0  T
   9    -14.9036639 -0.486915E-08  0.144E-03    3.89      31.1  T
  10    -14.9036639 -0.273034E-08  0.674E-04    3.89      66.4  T
  11    -14.9036639 -0.511131E-09  0.737E-05    3.89     606.9  T
     SCC iter.                  ...        0 min,  0.002 sec
     gradient                   ...        0 min,  0.001 sec
 * total energy  :   -14.8717142 Eh     change        0.1354220E-03 Eh
   gradient norm :     0.0071315 Eh/α   predicted    -0.2700335E-03 (-299.40%)
   displ. norm   :     0.0962068 α      lambda       -0.5516222E-03
   maximum displ.:     0.0916127 α      in ANC's #3, #1, #2, ...

........................................................................
.............................. CYCLE    3 ..............................
........................................................................

 iter      E             dE          RMSdq      gap      omega  full diag
   1    -14.9041156 -0.149041E+02  0.280E-01    3.88       0.0  T
   2    -14.9041200 -0.441363E-05  0.133E-01    3.88       1.0  T
   3    -14.9041219 -0.188555E-05  0.359E-02    3.88       1.2  T
   4    -14.9041219 -0.699716E-07  0.247E-02    3.88       1.8  T
   5    -14.9041227 -0.748861E-06  0.119E-02    3.88       3.8  T
   6    -14.9041228 -0.796370E-07  0.628E-03    3.88       7.1  T
   7    -14.9041228 -0.291859E-07  0.438E-03    3.88      10.2  T
   8    -14.9041228 -0.226730E-07  0.251E-03    3.88      17.8  T
   9    -14.9041228 -0.901228E-08  0.106E-03    3.88      42.2  T
  10    -14.9041228 -0.859350E-09  0.355E-04    3.88     125.9  T
  11    -14.9041228 -0.710862E-10  0.587E-05    3.88     761.9  T
     SCC iter.                  ...        0 min,  0.002 sec
     gradient                   ...        0 min,  0.001 sec
 * total energy  :   -14.8719886 Eh     change       -0.2744687E-03 Eh
   gradient norm :     0.0009461 Eh/α   predicted    -0.2783652E-03 (   1.42%)
   displ. norm   :     0.0721574 α      lambda       -0.2617154E-04
   maximum displ.:     0.0629280 α      in ANC's #1, #2, #3, ...

........................................................................
.............................. CYCLE    4 ..............................
........................................................................

 iter      E             dE          RMSdq      gap      omega  full diag
   1    -14.9039693 -0.149040E+02  0.209E-01    3.87       0.0  T
   2    -14.9039720 -0.274430E-05  0.104E-01    3.87       1.0  T
   3    -14.9039738 -0.182722E-05  0.405E-02    3.87       1.1  T
   4    -14.9039749 -0.111684E-05  0.290E-02    3.87       1.5  T
   5    -14.9039757 -0.740691E-06  0.212E-02    3.87       2.1  T
   6    -14.9039764 -0.737115E-06  0.959E-03    3.87       4.7  T
   7    -14.9039765 -0.907057E-07  0.388E-03    3.87      11.5  T
   8    -14.9039765 -0.845038E-08  0.207E-03    3.87      21.6  T
   9    -14.9039765 -0.236369E-08  0.441E-04    3.87     101.3  T
  10    -14.9039765 -0.482316E-10  0.811E-05    3.87     551.8  T
     SCC iter.                  ...        0 min,  0.001 sec
     gradient                   ...        0 min,  0.001 sec
 * total energy  :   -14.8719003 Eh     change        0.8829548E-04 Eh
   gradient norm :     0.0032517 Eh/α   predicted    -0.1311603E-04 (-114.85%)
   displ. norm   :     0.0411750 α      lambda       -0.1216466E-03
   maximum displ.:     0.0360004 α      in ANC's #1, #2, #3, ...

........................................................................
.............................. CYCLE    5 ..............................
........................................................................

 iter      E             dE          RMSdq      gap      omega  full diag
   1    -14.9040778 -0.149041E+02  0.118E-01    3.88       0.0  T
   2    -14.9040787 -0.895615E-06  0.590E-02    3.88       1.0  T
   3    -14.9040792 -0.493265E-06  0.235E-02    3.88       1.9  T
   4    -14.9040794 -0.222459E-06  0.203E-02    3.88       2.2  T
   5    -14.9040799 -0.445570E-06  0.125E-02    3.88       3.6  T
   6    -14.9040801 -0.243481E-06  0.555E-03    3.88       8.1  T
   7    -14.9040801 -0.310625E-07  0.234E-03    3.88      19.1  T
   8    -14.9040802 -0.340407E-08  0.113E-03    3.88      39.7  T
   9    -14.9040802 -0.744500E-09  0.273E-04    3.88     163.8  T
  10    -14.9040802 -0.229790E-10  0.626E-05    3.88     714.0  T
     SCC iter.                  ...        0 min,  0.001 sec
     gradient                   ...        0 min,  0.001 sec
 * total energy  :   -14.8719816 Eh     change       -0.8129136E-04 Eh
   gradient norm :     0.0011105 Eh/α   predicted    -0.6092740E-04 ( -25.05%)
   displ. norm   :     0.0317303 α      lambda       -0.2105386E-04
   maximum displ.:     0.0235587 α      in ANC's #1, #2, #3, ...

........................................................................
.............................. CYCLE    6 ..............................
........................................................................

 iter      E             dE          RMSdq      gap      omega  full diag
   1    -14.9040755 -0.149041E+02  0.919E-02    3.88       0.0  T
   2    -14.9040761 -0.558445E-06  0.462E-02    3.88       1.0  T
   3    -14.9040765 -0.385204E-06  0.187E-02    3.88       2.4  T
   4    -14.9040767 -0.248632E-06  0.131E-02    3.88       3.4  T
   5    -14.9040769 -0.150650E-06  0.956E-03    3.88       4.7  T
   6    -14.9040770 -0.149687E-06  0.441E-03    3.88      10.1  T
   7    -14.9040771 -0.194195E-07  0.177E-03    3.88      25.3  T
   8    -14.9040771 -0.175513E-08  0.855E-04    3.88      52.3  T
   9    -14.9040771 -0.400386E-09  0.204E-04    3.88     219.0  T
     SCC iter.                  ...        0 min,  0.001 sec
     gradient                   ...        0 min,  0.001 sec
 * total energy  :   -14.8719879 Eh     change       -0.6283462E-05 Eh
   gradient norm :     0.0007108 Eh/α   predicted    -0.1053179E-04 (  67.61%)
   displ. norm   :     0.0300833 α      lambda       -0.8642108E-05
   maximum displ.:     0.0284394 α      in ANC's #2, #1, #5, ...

........................................................................
.............................. CYCLE    7 ..............................
........................................................................

 iter      E             dE          RMSdq      gap      omega  full diag
   1    -14.9040668 -0.149041E+02  0.784E-02    3.88       0.0  T
   2    -14.9040673 -0.488817E-06  0.406E-02    3.88       1.1  T
   3    -14.9040676 -0.343071E-06  0.174E-02    3.88       2.6  T
   4    -14.9040679 -0.220983E-06  0.123E-02    3.88       3.6  T
   5    -14.9040680 -0.135467E-06  0.892E-03    3.88       5.0  T
   6    -14.9040681 -0.135420E-06  0.380E-03    3.88      11.8  T
   7    -14.9040681 -0.132526E-07  0.150E-03    3.88      29.7  T
   8    -14.9040681 -0.121181E-08  0.670E-04    3.88      66.8  T
   9    -14.9040681 -0.227583E-09  0.165E-04    3.88     271.5  T
     SCC iter.                  ...        0 min,  0.001 sec
     gradient                   ...        0 min,  0.001 sec
 * total energy  :   -14.8719788 Eh     change        0.9127886E-05 Eh
   gradient norm :     0.0012155 Eh/α   predicted    -0.4324164E-05 (-147.37%)
   displ. norm   :     0.0283647 α      lambda       -0.2018501E-04
   maximum displ.:     0.0222708 α      in ANC's #1, #2, #3, ...

........................................................................
.............................. CYCLE    8 ..............................
........................................................................

 iter      E             dE          RMSdq      gap      omega  full diag
   1    -14.9040861 -0.149041E+02  0.745E-02    3.88       0.0  T
   2    -14.9040865 -0.396118E-06  0.376E-02    3.88       1.2  T
   3    -14.9040868 -0.265694E-06  0.152E-02    3.88       2.9  T
   4    -14.9040870 -0.193619E-06  0.102E-02    3.88       4.4  T
   5    -14.9040872 -0.163077E-06  0.446E-03    3.88      10.0  T
   6    -14.9040872 -0.129418E-07  0.312E-03    3.88      14.3  T
   7    -14.9040872 -0.118883E-07  0.140E-03    3.88      31.9  T
   8    -14.9040872 -0.117586E-08  0.611E-04    3.88      73.2  T
   9    -14.9040872 -0.200206E-09  0.155E-04    3.88     287.7  T
     SCC iter.                  ...        0 min,  0.001 sec
     gradient                   ...        0 min,  0.001 sec
 * total energy  :   -14.8719902 Eh     change       -0.1139342E-04 Eh
   gradient norm :     0.0004727 Eh/α   predicted    -0.1009602E-04 ( -11.39%)
   displ. norm   :     0.0107389 α      lambda       -0.3138433E-05
   maximum displ.:     0.0089242 α      in ANC's #1, #5, #2, ...

........................................................................
.............................. CYCLE    9 ..............................
........................................................................

 iter      E             dE          RMSdq      gap      omega  full diag
   1    -14.9040854 -0.149041E+02  0.319E-02    3.88       0.0  T
   2    -14.9040855 -0.717670E-07  0.166E-02    3.88       2.7  T
   3    -14.9040855 -0.522085E-07  0.701E-03    3.88       6.4  T
   4    -14.9040856 -0.247221E-07  0.538E-03    3.88       8.3  T
   5    -14.9040856 -0.282423E-07  0.385E-03    3.88      11.6  T
   6    -14.9040856 -0.236998E-07  0.172E-03    3.88      26.0  T
   7    -14.9040856 -0.318020E-08  0.631E-04    3.88      70.9  T
   8    -14.9040856 -0.237963E-09  0.182E-04    3.88     245.3  T
     SCC iter.                  ...        0 min,  0.001 sec
     gradient                   ...        0 min,  0.001 sec
 * total energy  :   -14.8719916 Eh     change       -0.1412639E-05 Eh
   gradient norm :     0.0002398 Eh/α   predicted    -0.1570563E-05 (  11.18%)
   displ. norm   :     0.0033676 α      lambda       -0.5309238E-06
   maximum displ.:     0.0026833 α      in ANC's #5, #2, #1, ...

........................................................................
.............................. CYCLE   10 ..............................
........................................................................

 iter      E             dE          RMSdq      gap      omega  full diag
   1    -14.9040858 -0.149041E+02  0.101E-02    3.88       0.0  T
   2    -14.9040858 -0.895344E-08  0.598E-03    3.88       7.5  T
   3    -14.9040858 -0.837680E-08  0.264E-03    3.88      16.9  T
   4    -14.9040858 -0.407485E-08  0.201E-03    3.88      22.2  T
   5    -14.9040858 -0.339060E-08  0.155E-03    3.88      28.9  T
   6    -14.9040858 -0.387246E-08  0.698E-04    3.88      64.1  T
   7    -14.9040858 -0.566583E-09  0.178E-04    3.88     251.0  T
     SCC iter.                  ...        0 min,  0.001 sec
     gradient                   ...        0 min,  0.002 sec
 * total energy  :   -14.8719919 Eh     change       -0.3213343E-06 Eh
   gradient norm :     0.0000725 Eh/α   predicted    -0.2646761E-06 ( -17.63%)
   displ. norm   :     0.0021524 α      lambda       -0.8667324E-07
   maximum displ.:     0.0012468 α      in ANC's #5, #2, #1, ...

........................................................................
.............................. CYCLE   11 ..............................
........................................................................

 iter      E             dE          RMSdq      gap      omega  full diag
   1    -14.9040867 -0.149041E+02  0.478E-03    3.88       0.0  T
   2    -14.9040867 -0.854730E-09  0.242E-03    3.88      18.5  T
   3    -14.9040867 -0.459480E-09  0.627E-04    3.88      71.3  T
   4    -14.9040867 -0.138179E-09  0.415E-04    3.88     107.8  T
     SCC iter.                  ...        0 min,  0.001 sec
     gradient                   ...        0 min,  0.001 sec
 * total energy  :   -14.8719919 Eh     change       -0.1251841E-07 Eh
   gradient norm :     0.0000504 Eh/α   predicted    -0.4245269E-07 ( 239.12%)
   displ. norm   :     0.0011088 α      lambda       -0.3312194E-07
   maximum displ.:     0.0008046 α      in ANC's #2, #1, #5, ...

   *** GEOMETRY OPTIMIZATION CONVERGED AFTER 11 ITERATIONS ***

------------------------------------------------------------------------
 total energy gain   :        -0.0001423 Eh       -0.0893 kcal/mol
 total RMSD          :         0.0268111 a0        0.0142 Å
 total power (kW/mol):        -0.0339735 (step)   -8.4304 (real)
------------------------------------------------------------------------

 ANCopt (total)                0 d,  0 h,  0 min,  0.044 sec
 optimizer setup                ...        0 min,  0.000 sec (  0.904%)
 model hessian                  ...        0 min,  0.000 sec (  0.297%)
 ANC generation                 ...        0 min,  0.000 sec (  0.196%)
 coordinate transformation      ...        0 min,  0.000 sec (  0.104%)
 single point calculation       ...        0 min,  0.042 sec ( 94.984%)
 optimization log               ...        0 min,  0.001 sec (  1.175%)
 hessian update                 ...        0 min,  0.000 sec (  0.111%)
 rational function              ...        0 min,  0.001 sec (  1.189%)

================
 final structure:
================
$coord
        0.00019507055185       -0.00002352646487        1.03943940883452      C
        0.72037842449722       -3.41183437478311       -0.09317396927056      Br
        2.59391402852318        2.33060434093356       -0.09301520519869      Br
       -3.31466088511797        1.08161278905596       -0.09360271917939      Br
        0.00056993957419        0.00004625720174        3.09470256983222      H
$end
 
 Bond Distances (Angstroems)
 ---------------------------
C1-Br2=1.9401        C1-Br3=1.9401        C1-Br4=1.9401        C1-H5=1.0876         Br2-C1=1.9401        Br3-C1=1.9401        
Br4-C1=1.9401        H5-C1=1.0876         
 C  H  Rav=1.0876 sigma=0.0000  Rmin=1.0876  Rmax=1.0876     1
 Br C  Rav=1.9401 sigma=0.0000  Rmin=1.9401  Rmax=1.9401     3
 
 selected bond angles (degree)
 --------------------
Br3-C1-Br2=110.93              Br4-C1-Br2=110.90              Br4-C1-Br3=110.89              H5-C1-Br2=107.99               
H5-C1-Br3=107.98               H5-C1-Br4=108.01               
 
 selected dihedral angles (degree)
 ---------------------------------

           -------------------------------------------------
          |                Final Singlepoint                |
           -------------------------------------------------

          ...................................................
          :                      SETUP                      :
          :.................................................:
          :  # basis functions                  35          :
          :  # atomic orbitals                  32          :
          :  # shells                           12          :
          :  # electrons                        26          :
          :  max. iterations                   250          :
          :  Hamiltonian                  GFN2-xTB          :
          :  restarted?                      false          :
          :  GBSA solvation                   true          :
          :  PC potential                    false          :
          :  electronic temp.          300.0000000     K    :
          :  accuracy                    1.0000000          :
          :  -> integral cutoff          0.2500000E+02      :
          :  -> integral neglect         0.1000000E-07      :
          :  -> SCF convergence          0.1000000E-05 Eh   :
          :  -> wf. convergence          0.1000000E-03 e    :
          :  Broyden damping             0.4000000          :
          :  net charge                          0          :
          :  unpaired electrons                  0          :
          ...................................................

 iter      E             dE          RMSdq      gap      omega  full diag
   1    -14.9040867 -0.149041E+02  0.327E-04    3.88       0.0  T
   2    -14.9040867 -0.389111E-10  0.286E-04    3.88     156.6  T
   3    -14.9040867 -0.336158E-10  0.240E-04    3.88     186.3  T

   *** convergence criteria satisfied after 3 iterations ***

         #    Occupation            Energy/Eh            Energy/eV
      -------------------------------------------------------------
         1        2.0000           -0.9045356             -24.6137
       ...           ...                  ...                  ...
         7        2.0000           -0.5823758             -15.8473
         8        2.0000           -0.4863667             -13.2347
         9        2.0000           -0.4863533             -13.2343
        10        2.0000           -0.4750671             -12.9272
        11        2.0000           -0.4750518             -12.9268
        12        2.0000           -0.4732891             -12.8789
        13        2.0000           -0.4718201             -12.8389 (HOMO)
        14                         -0.3291990              -8.9580 (LUMO)
        15                         -0.2704617              -7.3596
        16                         -0.2704261              -7.3587
        17                         -0.0460139              -1.2521
        18                         -0.0415493              -1.1306
       ...                                ...                  ...
        32                          0.4675283              12.7221
      -------------------------------------------------------------
                  HL-Gap            0.1426211 Eh            3.8809 eV
             Fermi-level           -0.4005096 Eh          -10.8984 eV

 SCC (total)                   0 d,  0 h,  0 min,  0.004 sec
 SCC setup                      ...        0 min,  0.000 sec (  7.390%)
 Dispersion                     ...        0 min,  0.000 sec (  0.374%)
 classical contributions        ...        0 min,  0.000 sec (  0.170%)
 integral evaluation            ...        0 min,  0.001 sec ( 25.602%)
 iterations                     ...        0 min,  0.001 sec ( 18.307%)
 molecular gradient             ...        0 min,  0.002 sec ( 44.820%)
 printout                       ...        0 min,  0.000 sec (  2.903%)

         :::::::::::::::::::::::::::::::::::::::::::::::::::::
         ::                     SUMMARY                     ::
         :::::::::::::::::::::::::::::::::::::::::::::::::::::
         :: total energy             -14.871991927841 Eh    ::
         :: total w/o Gsasa/hb       -14.871214263276 Eh    ::
         :: gradient norm              0.000049922158 Eh/a0 ::
         :: HOMO-LUMO gap              3.880916783399 eV    ::
         ::.................................................::
         :: SCC energy               -14.904086063273 Eh    ::
         :: -> isotropic ES            0.012095805904 Eh    ::
         :: -> anisotropic ES          0.007581437615 Eh    ::
         :: -> anisotropic XC         -0.000946131909 Eh    ::
         :: -> dispersion             -0.004701044283 Eh    ::
         :: -> Gsolv                  -0.002543679676 Eh    ::
         ::    -> Gelec               -0.001766015111 Eh    ::
         ::    -> Gsasa               -0.001255466664 Eh    ::
         ::    -> Ghb                 -0.000602957599 Eh    ::
         ::    -> Gshift               0.001080759698 Eh    ::
         :: repulsion energy           0.032094135432 Eh    ::
         :: add. restraining           0.000000000000 Eh    ::
         :: total charge              -0.000000000000 e     ::
         :::::::::::::::::::::::::::::::::::::::::::::::::::::

           ------------------------------------------------- 
          |                Numerical Hessian                |
           ------------------------------------------------- 
step length          :   0.00500
SCC accuracy         :   0.30000
Hessian scale factor :   1.00000
frozen atoms in %    :   0.00000    0
RMS gradient         :   0.00005
estimated CPU  time      0.00 min
estimated wall time      0.00 min

writing file <hessian>.

 projected vibrational frequencies (cm⁻¹)
eigval :       -0.00    -0.00     0.00     0.00     0.00     0.00
eigval :      129.16   129.21   192.37   510.85   534.31   534.37
eigval :     1109.16  1109.46  2979.66
           -------------------------------------------------
          |                Property Printout                |
           -------------------------------------------------

    * Orbital Energies and Occupations

         #    Occupation            Energy/Eh            Energy/eV
      -------------------------------------------------------------
         1        2.0000           -0.9045352             -24.6137
         2        2.0000           -0.9045328             -24.6136
         3        2.0000           -0.9000206             -24.4908
         4        2.0000           -0.6755742             -18.3833
         5        2.0000           -0.6003389             -16.3361
         6        2.0000           -0.5823878             -15.8476
         7        2.0000           -0.5823752             -15.8472
         8        2.0000           -0.4863664             -13.2347
         9        2.0000           -0.4863530             -13.2343
        10        2.0000           -0.4750668             -12.9272
        11        2.0000           -0.4750515             -12.9268
        12        2.0000           -0.4732888             -12.8788
        13        2.0000           -0.4718198             -12.8389 (HOMO)
        14                         -0.3291985              -8.9579 (LUMO)
        15                         -0.2704610              -7.3596
        16                         -0.2704254              -7.3587
        17                         -0.0460136              -1.2521
        18                         -0.0415490              -1.1306
        19                         -0.0415458              -1.1305
        20                         -0.0305076              -0.8302
        21                         -0.0305069              -0.8301
        22                         -0.0273496              -0.7442
        23                         -0.0236593              -0.6438
        24                         -0.0236558              -0.6437
       ...                                ...                  ...
        32                          0.4675288              12.7221
      -------------------------------------------------------------
                  HL-Gap            0.1426213 Eh            3.8809 eV
             Fermi-level           -0.4005092 Eh          -10.8984 eV

     #   Z          covCN         q      C6AA      α(0)
     1   6 C        3.670     0.174    18.042     6.089
     2  35 Br       1.491    -0.099   187.779    22.095
     3  35 Br       1.491    -0.099   187.780    22.095
     4  35 Br       1.492    -0.099   187.779    22.095
     5   1 H        0.928     0.124     1.581     1.966

 Mol. C6AA /au·bohr⁶  :       2170.430046
 Mol. C8AA /au·bohr⁸  :     125285.785964
 Mol. α(0) /au        :         74.339869


Wiberg/Mayer (AO) data.
largest (>0.10) Wiberg bond orders for each atom

 ---------------------------------------------------------------------------
     #   Z sym  total        # sym  WBO       # sym  WBO       # sym  WBO
 ---------------------------------------------------------------------------
     1   6 C    3.938 --     3 Br   0.994     2 Br   0.994     4 Br   0.994
                             5 H    0.956
     2  35 Br   1.114 --     1 C    0.994
     3  35 Br   1.114 --     1 C    0.994
     4  35 Br   1.114 --     1 C    0.994
     5   1 H    0.985 --     1 C    0.956
 ---------------------------------------------------------------------------

Topologies differ in total number of bonds
Writing topology from bond orders to xtbtopo.mol

molecular dipole:
                 x           y           z       tot (Debye)
 q only:        0.000      -0.000       0.592
   full:        0.000      -0.000       0.865       2.199
molecular quadrupole (traceless):
                xx          xy          yy          xz          yz          zz
 q only:       -1.589      -0.001      -1.591       0.000       0.000       3.180
  q+dip:       -4.855      -0.001      -4.855      -0.000       0.000       9.710
   full:       -4.014      -0.000      -4.013      -0.000       0.000       8.028

           -------------------------------------------------
          |                Geometry Summary                 |
           -------------------------------------------------

      molecular mass/u    :      252.7292600
   center of mass at/Å    :       -0.0000556       0.0000635      -0.0141390
  moments of inertia/u·Å² :        0.4148531E+03   0.4150599E+03   0.8161722E+03
rotational constants/cm⁻¹ :        0.4063518E-01   0.4061494E-01   0.2065450E-01

 * 4 selected distances

     #   Z          #   Z                                           value/Å
     1   6 C        2  35 Br                                      1.9401352
     1   6 C        3  35 Br                                      1.9401155
     1   6 C        4  35 Br                                      1.9401396 (max)
     1   6 C        5   1 H                                       1.0875985 (min)

 * 2 distinct bonds (by element types)

   Z      Z             #   av. dist./Å        max./Å        min./Å
   1 H    6 C           1     1.0875985     1.0875985     1.0875985
   6 C   35 Br          3     1.9401301     1.9401396     1.9401155

           -------------------------------------------------
          |               Frequency Printout                |
           -------------------------------------------------
 projected vibrational frequencies (cm⁻¹)
eigval :       -0.00    -0.00     0.00     0.00     0.00     0.00
eigval :      129.16   129.21   192.37   510.85   534.31   534.37
eigval :     1109.16  1109.46  2979.66
 reduced masses (amu)
   1: 78.75   2: 77.59   3: 76.45   4: 77.49   5: 79.63   6: 76.60   7: 78.57   8: 78.57
   9: 75.46  10: 19.19  11: 17.17  12: 17.17  13:  1.87  14:  1.87  15:  1.81
 IR intensities (km·mol⁻¹)
   1:  0.47   2:  0.01   3:  0.05   4:  0.31   5:  0.11   6:  0.02   7:  9.25   8:  9.24
   9:  8.63  10:  1.97  11:  3.73  12:  3.72  13:175.29  14:175.45  15:  2.60
 Raman intensities (Ä⁴*amu⁻¹)
   1:  0.00   2:  0.00   3:  0.00   4:  0.00   5:  0.00   6:  0.00   7:  0.00   8:  0.00
   9:  0.00  10:  0.00  11:  0.00  12:  0.00  13:  0.00  14:  0.00  15:  0.00
 output can be read by thermo (or use thermo option).
 writing <g98.out> molden fake output.
 recommended (thermochemical) frequency scaling factor: 1.0
           -------------------------------------------------
          |             Thermodynamic Functions             |
           -------------------------------------------------

Molecule has the following symmetry elements: (C3) 3*(sigma) 
It seems to be the C3v point group
c3v symmetry found (for desy threshold:  0.10E+00) used in thermo

          ...................................................
          :                      SETUP                      :
          :.................................................:
          :  # frequencies                           9      :
          :  # imaginary freq.                       0      :
          :  linear?                             false      :
          :  only rotor calc.                    false      :
          :  symmetry                              c3v      :
          :  rotational number                       3      :
          :  scaling factor                  1.0000000      :
          :  rotor cutoff                    0.0000000 cm⁻¹ :
          :  imag. cutoff                 -100.0000000 cm⁻¹ :
          :.................................................:

    mode    ω/cm⁻¹     T·S(HO)/kcal·mol⁻¹    T·S(FR)/kcal·mol⁻¹   T·S(vib)
   ------------------------------------------------------------------------
       1    129.16    -0.88208 (100.00%)    -0.77534 (  0.00%)    -0.88208
       2    129.21    -0.88186 (100.00%)    -0.77522 (  0.00%)    -0.88186
       3    192.37    -0.65737 (100.00%)    -0.65734 (  0.00%)    -0.65737
   ------------------------------------------------------------------------

   temp. (K)  partition function   enthalpy   heat capacity  entropy
                                   cal/mol     cal/K/mol   cal/K/mol   J/K/mol
 298.15  VIB   9.93                 1629.958      9.817     10.028
         ROT  0.302E+06              888.752      2.981     28.056
         INT  0.300E+07             2518.710     12.798     38.084
         TR   0.389E+28             1481.254      4.968     42.462
         TOT                        3999.9640    17.7664    80.5462   337.0052

       T/K    H(0)-H(T)+PV         H(T)/Eh          T*S/Eh         G(T)/Eh
   ------------------------------------------------------------------------
    298.15    0.637435E-02    0.228422E-01    0.382701E-01   -0.154279E-01
   ------------------------------------------------------------------------

         :::::::::::::::::::::::::::::::::::::::::::::::::::::
         ::                  THERMODYNAMIC                  ::
         :::::::::::::::::::::::::::::::::::::::::::::::::::::
         :: total free energy         -14.887419826963 Eh   ::
         ::.................................................::
         :: total energy              -14.871991927970 Eh   ::
         :: zero point energy           0.016467843304 Eh   ::
         :: G(RRHO) w/o ZPVE           -0.031895742298 Eh   ::
         :: G(RRHO) contrib.           -0.015427898993 Eh   ::
         :::::::::::::::::::::::::::::::::::::::::::::::::::::

optimized geometry written to: xtbopt.coord


           -------------------------------------------------
          | TOTAL ENERGY              -14.871991927970 Eh   |
          | TOTAL ENTHALPY            -14.849149736346 Eh   |
          | TOTAL FREE ENERGY         -14.887419826963 Eh   |
          | GRADIENT NORM               0.000049677052 Eh/α |
          | HOMO-LUMO GAP               3.880924187360 eV   |
           -------------------------------------------------

------------------------------------------------------------------------
 * finished run on 2025/04/03 at 21:42:16.984     
------------------------------------------------------------------------
 total:
 * wall-time:     0 d,  0 h,  0 min,  0.246 sec
 *  cpu-time:     0 d,  0 h,  0 min,  0.183 sec
 * ratio c/w:     0.745 speedup
 SCF:
 * wall-time:     0 d,  0 h,  0 min,  0.019 sec
 *  cpu-time:     0 d,  0 h,  0 min,  0.007 sec
 * ratio c/w:     0.377 speedup
 ANC optimizer:
 * wall-time:     0 d,  0 h,  0 min,  0.059 sec
 *  cpu-time:     0 d,  0 h,  0 min,  0.049 sec
 * ratio c/w:     0.819 speedup
 analytical hessian:
 * wall-time:     0 d,  0 h,  0 min,  0.124 sec
 *  cpu-time:     0 d,  0 h,  0 min,  0.119 sec
 * ratio c/w:     0.958 speedup

