      -----------------------------------------------------------      
     |                   =====================                   |     
     |                           x T B                           |     
     |                   =====================                   |     
     |                         S. Grimme                         |     
     |          Mulliken Center for Theoretical Chemistry        |     
     |                    University of Bonn                     |     
      -----------------------------------------------------------      

   * xtb version 6.7.1 (edcfbbe) compiled by 'albert@albert-system' on 2024-07-22

   xtb is free software: you can redistribute it and/or modify it under
   the terms of the GNU Lesser General Public License as published by
   the Free Software Foundation, either version 3 of the License, or
   (at your option) any later version.
   
   xtb is distributed in the hope that it will be useful,
   but WITHOUT ANY WARRANTY; without even the implied warranty of
   MERCHANTABILITY or FITNESS FOR A PARTICULAR PURPOSE.  See the
   GNU Lesser General Public License for more details.
   
   Cite this work as:
   * C. Bannwarth, E. Caldeweyher, S. Ehlert, A. Hansen, P. Pracht,
     J. Seibert, S. Spicher, S. Grimme, WIREs Comput. Mol. Sci., 2020, 11,
     e01493. DOI: 10.1002/wcms.1493
   
   for GFN2-xTB:
   * C. Bannwarth, S. Ehlert and S. Grimme., J. Chem. Theory Comput., 2019,
     15, 1652-1671. DOI: 10.1021/acs.jctc.8b01176
   for GFN1-xTB:
   * S. Grimme, C. Bannwarth, P. Shushkov, J. Chem. Theory Comput., 2017,
     13, 1989-2009. DOI: 10.1021/acs.jctc.7b00118
   for GFN0-xTB:
   * P. Pracht, E. Caldeweyher, S. Ehlert, S. Grimme, ChemRxiv, 2019, preprint.
     DOI: 10.26434/chemrxiv.8326202.v1
   for GFN-FF:
   * S. Spicher and S. Grimme, Angew. Chem. Int. Ed., 2020, 59, 15665-15673.
     DOI: 10.1002/anie.202004239
   
   for ALPB and GBSA implicit solvation:
   * S. Ehlert, M. Stahn, S. Spicher, S. Grimme, J. Chem. Theory Comput.,
     2021, 17, 4250-4261. DOI: 10.1021/acs.jctc.1c00471
   
   for ddCOSMO and CPCM-X implicit solvation:
   * M. Stahn, S. Ehlert, S. Grimme, J. Phys. Chem. A,
     2023, XX, XXXX-XXXX. DOI: 10.1021/acs.jpca.3c04382
   
   for DFT-D4:
   * E. Caldeweyher, C. Bannwarth and S. Grimme, J. Chem. Phys., 2017,
     147, 034112. DOI: 10.1063/1.4993215
   * E. Caldeweyher, S. Ehlert, A. Hansen, H. Neugebauer, S. Spicher,
     C. Bannwarth and S. Grimme, J. Chem. Phys., 2019, 150, 154122.
     DOI: 10.1063/1.5090222
   * E. Caldeweyher, J.-M. Mewes, S. Ehlert and S. Grimme, Phys. Chem. Chem. Phys.
     2020, 22, 8499-8512. DOI: 10.1039/D0CP00502A
   
   for sTDA-xTB:
   * S. Grimme and C. Bannwarth, J. Chem. Phys., 2016, 145, 054103.
     DOI: 10.1063/1.4959605
   
   in the mass-spec context:
   * V. Asgeirsson, C. Bauer and S. Grimme, Chem. Sci., 2017, 8, 4879.
     DOI: 10.1039/c7sc00601b
   * J. Koopman and S. Grimme, ACS Omega 2019, 4, 12, 15120-15133.
     DOI: 10.1021/acsomega.9b02011
   
   for metadynamics refer to:
   * S. Grimme, J. Chem. Theory Comput., 2019, 155, 2847-2862
     DOI: 10.1021/acs.jctc.9b00143
   
   for SPH calculations refer to:
   * S. Spicher and S. Grimme, J. Chem. Theory Comput., 2021, 17, 1701-1714
     DOI: 10.1021/acs.jctc.0c01306
   
   for ONIOM refer to:
   * C. Plett, A. Katbashev, S. Ehlert, S. Grimme, M. Bursch,
     Phys. Chem. Chem. Phys., 2023, 25, 17860-17868. DOI: 10.1039/D3CP02178E
   
   for DIPRO refer to:
   * J. Kohn, N. Gildemeister, S. Grimme, D. Fazzi, A. Hansen,
     J. Chem. Phys., 2023, just accepted.
   
   for PTB refer to:
   * S. Grimme, M. Mueller, A. Hansen, J. Chem. Phys., 2023, 158, 124111.
     DOI: 10.1063/5.0137838
   
   with help from (in alphabetical order)
   P. Atkinson, C. Bannwarth, F. Bohle, G. Brandenburg, E. Caldeweyher
   M. Checinski, S. Dohm, S. Ehlert, S. Ehrlich, I. Gerasimov, C. Hölzer
   A. Katbashev, J. Kohn, J. Koopman, C. Lavigne, S. Lehtola, F. März, M. Müller,
   F. Musil, H. Neugebauer, J. Pisarek, C. Plett, P. Pracht, F. Pultar,
   J. Seibert, P. Shushkov, S. Spicher, M. Stahn, M. Steiner, T. Strunk,
   J. Stückrath, T. Rose, and J. Unsleber
   
 * started run on 2025/04/03 at 21:14:19.630     
   ID    Z sym.   atoms
    1    6 C      1, 3-7
    2    7 N      2
    3    1 H      8-20

           -------------------------------------------------
          |                Calculation Setup                |
           -------------------------------------------------

          program call               : /srv/scratch/z5358697/.xtb/bin/xtb solv.coord --gfn2 --sp --chrg 0 --norestart --parallel 1 --alpb water reference -I xtb_sp-xcontrol-inp
          hostname                   : k160
          coordinate file            : solv.coord
          omp threads                :                     1


           -------------------------------------------------
          |                 G F N 2 - x T B                 |
           -------------------------------------------------

        Reference                      10.1021/acs.jctc.8b01176
      * Hamiltonian:
        H0-scaling (s, p, d)           1.850000    2.230000    2.230000
        zeta-weighting                 0.500000
      * Dispersion:
        s8                             2.700000
        a1                             0.520000
        a2                             5.000000
        s9                             5.000000
      * Repulsion:
        kExp                           1.500000    1.000000
        rExp                           1.000000
      * Coulomb:
        alpha                          2.000000
        third order                    shell-resolved
        anisotropic                    true
        a3                             3.000000
        a5                             4.000000
        cn-shift                       1.200000
        cn-exp                         4.000000
        max-rad                        5.000000

      * Solvation model:               ALPB
        Solvent                        water
        Parameter file                 internal GFN2-xTB/ALPB
        Dielectric constant                8.0200E+01
        Reference state                gsolv=reference [X=1]
        Free energy shift                  2.8945E-03 Eh       1.8164E+00 kcal/mol
        Temperature                        2.9815E+02 K
        Density                            1.0000E+00 kg/L
        Solvent mass                       1.8000E+01 g/mol
        Interaction kernel             P16
        Born radius scaling (c1)           1.4744E+00
        Born radii integrator          GBOBC
        Born offset                        0.0000E+00 a0       0.0000E+00 AA
        H-bond correction              true
        Ion screening                  false
        Surface tension                    1.0000E-05 Eh       1.5569E+01 dyn/cm
        Grid points                               974 per atom

          ...................................................
          :                      SETUP                      :
          :.................................................:
          :  # basis functions                  41          :
          :  # atomic orbitals                  41          :
          :  # shells                           27          :
          :  # electrons                        42          :
          :  max. iterations                   250          :
          :  Hamiltonian                  GFN2-xTB          :
          :  restarted?                      false          :
          :  GBSA solvation                   true          :
          :  PC potential                    false          :
          :  electronic temp.          300.0000000     K    :
          :  accuracy                    1.0000000          :
          :  -> integral cutoff          0.2500000E+02      :
          :  -> integral neglect         0.1000000E-07      :
          :  -> SCF convergence          0.1000000E-05 Eh   :
          :  -> wf. convergence          0.1000000E-03 e    :
          :  Broyden damping             0.4000000          :
          :  net charge                          0          :
          :  unpaired electrons                  0          :
          ...................................................

 iter      E             dE          RMSdq      gap      omega  full diag
   1    -22.6870908 -0.226871E+02  0.251E+00   10.58       0.0  T
   2    -22.7124020 -0.253112E-01  0.144E+00   10.47       1.0  T
   3    -22.7132832 -0.881224E-03  0.589E-01   10.43       1.0  T
   4    -22.7133748 -0.916197E-04  0.780E-02   10.37       1.0  T
   5    -22.7133810 -0.615013E-05  0.340E-02   10.37       1.0  T
   6    -22.7133812 -0.192059E-06  0.456E-03   10.37       4.9  T
   7    -22.7133813 -0.109357E-06  0.156E-03   10.37      14.3  T
   8    -22.7133813 -0.291320E-08  0.739E-04   10.37      30.2  T
   9    -22.7133813 -0.104918E-08  0.140E-04   10.37     159.3  T

   *** convergence criteria satisfied after 9 iterations ***

         #    Occupation            Energy/Eh            Energy/eV
      -------------------------------------------------------------
         1        2.0000           -0.6407075             -17.4345
       ...           ...                  ...                  ...
        15        2.0000           -0.4586226             -12.4798
        16        2.0000           -0.4520463             -12.3008
        17        2.0000           -0.4387774             -11.9397
        18        2.0000           -0.4360514             -11.8656
        19        2.0000           -0.4227245             -11.5029
        20        2.0000           -0.4211859             -11.4611
        21        2.0000           -0.3391618              -9.2291 (HOMO)
        22                          0.0420023               1.1429 (LUMO)
        23                          0.0807172               2.1964
        24                          0.0888038               2.4165
        25                          0.0990315               2.6948
        26                          0.1020656               2.7773
       ...                                ...                  ...
        41                          0.3061370               8.3304
      -------------------------------------------------------------
                  HL-Gap            0.3811640 Eh           10.3720 eV
             Fermi-level           -0.1485797 Eh           -4.0431 eV

 SCC (total)                   0 d,  0 h,  0 min,  0.011 sec
 SCC setup                      ...        0 min,  0.001 sec (  9.810%)
 Dispersion                     ...        0 min,  0.000 sec (  1.099%)
 classical contributions        ...        0 min,  0.000 sec (  0.218%)
 integral evaluation            ...        0 min,  0.001 sec ( 11.158%)
 iterations                     ...        0 min,  0.005 sec ( 43.840%)
 molecular gradient             ...        0 min,  0.004 sec ( 32.554%)
 printout                       ...        0 min,  0.000 sec (  1.116%)

         :::::::::::::::::::::::::::::::::::::::::::::::::::::
         ::                     SUMMARY                     ::
         :::::::::::::::::::::::::::::::::::::::::::::::::::::
         :: total energy             -22.411303955498 Eh    ::
         :: total w/o Gsasa/hb       -22.412419695496 Eh    ::
         :: gradient norm              0.000125933362 Eh/a0 ::
         :: HOMO-LUMO gap             10.372001430118 eV    ::
         ::.................................................::
         :: SCC energy               -22.713327141494 Eh    ::
         :: -> isotropic ES            0.008792855938 Eh    ::
         :: -> anisotropic ES          0.006668949609 Eh    ::
         :: -> anisotropic XC          0.015553097124 Eh    ::
         :: -> dispersion             -0.014012298684 Eh    ::
         :: -> Gsolv                   0.000326028583 Eh    ::
         ::    -> Gelec               -0.000789711416 Eh    ::
         ::    -> Gsasa               -0.001366887345 Eh    ::
         ::    -> Ghb                 -0.000411921816 Eh    ::
         ::    -> Gshift               0.002894549160 Eh    ::
         :: repulsion energy           0.302023185996 Eh    ::
         :: add. restraining           0.000000000000 Eh    ::
         :: total charge              -0.000000000000 e     ::
         :::::::::::::::::::::::::::::::::::::::::::::::::::::

           -------------------------------------------------
          |                Property Printout                |
           -------------------------------------------------

    * Orbital Energies and Occupations

         #    Occupation            Energy/Eh            Energy/eV
      -------------------------------------------------------------
         1        2.0000           -0.6407075             -17.4345
       ...           ...                  ...                  ...
         9        2.0000           -0.5147294             -14.0065
        10        2.0000           -0.5070715             -13.7981
        11        2.0000           -0.4945236             -13.4567
        12        2.0000           -0.4880130             -13.2795
        13        2.0000           -0.4864012             -13.2357
        14        2.0000           -0.4653702             -12.6634
        15        2.0000           -0.4586226             -12.4798
        16        2.0000           -0.4520463             -12.3008
        17        2.0000           -0.4387774             -11.9397
        18        2.0000           -0.4360514             -11.8656
        19        2.0000           -0.4227245             -11.5029
        20        2.0000           -0.4211859             -11.4611
        21        2.0000           -0.3391618              -9.2291 (HOMO)
        22                          0.0420023               1.1429 (LUMO)
        23                          0.0807172               2.1964
        24                          0.0888038               2.4165
        25                          0.0990315               2.6948
        26                          0.1020656               2.7773
        27                          0.1157388               3.1494
        28                          0.1258929               3.4257
        29                          0.1441598               3.9228
        30                          0.1726840               4.6990
        31                          0.1790598               4.8725
        32                          0.1807258               4.9178
       ...                                ...                  ...
        41                          0.3061370               8.3304
      -------------------------------------------------------------
                  HL-Gap            0.3811640 Eh           10.3720 eV
             Fermi-level           -0.1485797 Eh           -4.0431 eV

     #   Z          covCN         q      C6AA      α(0)
     1   6 C        3.702    -0.034    21.343     6.606
     2   7 N        2.724    -0.194    25.216     7.458
     3   6 C        3.764     0.002    20.591     6.468
     4   6 C        3.803    -0.064    21.734     6.637
     5   6 C        3.806    -0.057    21.594     6.615
     6   6 C        3.803    -0.064    21.734     6.637
     7   6 C        3.764     0.002    20.591     6.468
     8   1 H        0.925     0.041     2.436     2.441
     9   1 H        0.925     0.041     2.436     2.441
    10   1 H        0.923     0.014     2.829     2.630
    11   1 H        0.924     0.033     2.539     2.492
    12   1 H        0.924     0.036     2.508     2.477
    13   1 H        0.924     0.029     2.599     2.521
    14   1 H        0.924     0.030     2.586     2.515
    15   1 H        0.924     0.027     2.628     2.535
    16   1 H        0.924     0.032     2.562     2.503
    17   1 H        0.924     0.029     2.599     2.521
    18   1 H        0.924     0.030     2.587     2.515
    19   1 H        0.924     0.033     2.539     2.492
    20   1 H        0.924     0.036     2.508     2.477

 Mol. C6AA /au·bohr⁶  :       2854.337571
 Mol. C8AA /au·bohr⁸  :      59745.937276
 Mol. α(0) /au        :         79.449880


Wiberg/Mayer (AO) data.
largest (>0.10) Wiberg bond orders for each atom

 ---------------------------------------------------------------------------
     #   Z sym  total        # sym  WBO       # sym  WBO       # sym  WBO
 ---------------------------------------------------------------------------
     1   6 C    3.987 --     2 N    1.017     8 H    0.982     9 H    0.982
                            10 H    0.972
     2   7 N    3.130 --     1 C    1.017     7 C    1.005     3 C    1.005
     3   6 C    3.987 --     2 N    1.005     4 C    0.994    11 H    0.973
                            12 H    0.972
     4   6 C    3.998 --     5 C    1.009     3 C    0.994    14 H    0.977
                            13 H    0.977
     5   6 C    3.998 --     6 C    1.009     4 C    1.009    15 H    0.978
                            16 H    0.977
     6   6 C    3.998 --     5 C    1.009     7 C    0.994    18 H    0.977
                            17 H    0.977
     7   6 C    3.987 --     2 N    1.005     6 C    0.994    19 H    0.973
                            20 H    0.972
     8   1 H    0.998 --     1 C    0.982
     9   1 H    0.998 --     1 C    0.982
    10   1 H    1.000 --     1 C    0.972
    11   1 H    0.999 --     3 C    0.973
    12   1 H    0.999 --     3 C    0.972
    13   1 H    0.999 --     4 C    0.977
    14   1 H    0.999 --     4 C    0.977
    15   1 H    0.999 --     5 C    0.978
    16   1 H    0.999 --     5 C    0.977
    17   1 H    0.999 --     6 C    0.977
    18   1 H    0.999 --     6 C    0.977
    19   1 H    0.999 --     7 C    0.973
    20   1 H    0.999 --     7 C    0.972
 ---------------------------------------------------------------------------

Topologies differ in total number of bonds
Writing topology from bond orders to xtbtopo.mol

molecular dipole:
                 x           y           z       tot (Debye)
 q only:        0.072       0.000      -0.050
   full:        0.257       0.000      -0.289       0.982
molecular quadrupole (traceless):
                xx          xy          yy          xz          yz          zz
 q only:       -0.194       0.000       0.778       1.119       0.000      -0.584
  q+dip:       -1.397       0.002       0.938       2.341      -0.000       0.459
   full:       -1.175       0.001       1.277       2.444      -0.000      -0.103


           -------------------------------------------------
          | TOTAL ENERGY              -22.411303955498 Eh   |
          | GRADIENT NORM               0.000125933362 Eh/α |
          | HOMO-LUMO GAP              10.372001430118 eV   |
           -------------------------------------------------

------------------------------------------------------------------------
 * finished run on 2025/04/03 at 21:14:19.683     
------------------------------------------------------------------------
 total:
 * wall-time:     0 d,  0 h,  0 min,  0.052 sec
 *  cpu-time:     0 d,  0 h,  0 min,  0.020 sec
 * ratio c/w:     0.396 speedup
 SCF:
 * wall-time:     0 d,  0 h,  0 min,  0.011 sec
 *  cpu-time:     0 d,  0 h,  0 min,  0.011 sec
 * ratio c/w:     0.988 speedup

