      -----------------------------------------------------------      
     |                   =====================                   |     
     |                           x T B                           |     
     |                   =====================                   |     
     |                         S. Grimme                         |     
     |          Mulliken Center for Theoretical Chemistry        |     
     |                    University of Bonn                     |     
      -----------------------------------------------------------      

   * xtb version 6.7.1 (edcfbbe) compiled by 'albert@albert-system' on 2024-07-22

   xtb is free software: you can redistribute it and/or modify it under
   the terms of the GNU Lesser General Public License as published by
   the Free Software Foundation, either version 3 of the License, or
   (at your option) any later version.
   
   xtb is distributed in the hope that it will be useful,
   but WITHOUT ANY WARRANTY; without even the implied warranty of
   MERCHANTABILITY or FITNESS FOR A PARTICULAR PURPOSE.  See the
   GNU Lesser General Public License for more details.
   
   Cite this work as:
   * C. Bannwarth, E. Caldeweyher, S. Ehlert, A. Hansen, P. Pracht,
     J. Seibert, S. Spicher, S. Grimme, WIREs Comput. Mol. Sci., 2020, 11,
     e01493. DOI: 10.1002/wcms.1493
   
   for GFN2-xTB:
   * C. Bannwarth, S. Ehlert and S. Grimme., J. Chem. Theory Comput., 2019,
     15, 1652-1671. DOI: 10.1021/acs.jctc.8b01176
   for GFN1-xTB:
   * S. Grimme, C. Bannwarth, P. Shushkov, J. Chem. Theory Comput., 2017,
     13, 1989-2009. DOI: 10.1021/acs.jctc.7b00118
   for GFN0-xTB:
   * P. Pracht, E. Caldeweyher, S. Ehlert, S. Grimme, ChemRxiv, 2019, preprint.
     DOI: 10.26434/chemrxiv.8326202.v1
   for GFN-FF:
   * S. Spicher and S. Grimme, Angew. Chem. Int. Ed., 2020, 59, 15665-15673.
     DOI: 10.1002/anie.202004239
   
   for ALPB and GBSA implicit solvation:
   * S. Ehlert, M. Stahn, S. Spicher, S. Grimme, J. Chem. Theory Comput.,
     2021, 17, 4250-4261. DOI: 10.1021/acs.jctc.1c00471
   
   for ddCOSMO and CPCM-X implicit solvation:
   * M. Stahn, S. Ehlert, S. Grimme, J. Phys. Chem. A,
     2023, XX, XXXX-XXXX. DOI: 10.1021/acs.jpca.3c04382
   
   for DFT-D4:
   * E. Caldeweyher, C. Bannwarth and S. Grimme, J. Chem. Phys., 2017,
     147, 034112. DOI: 10.1063/1.4993215
   * E. Caldeweyher, S. Ehlert, A. Hansen, H. Neugebauer, S. Spicher,
     C. Bannwarth and S. Grimme, J. Chem. Phys., 2019, 150, 154122.
     DOI: 10.1063/1.5090222
   * E. Caldeweyher, J.-M. Mewes, S. Ehlert and S. Grimme, Phys. Chem. Chem. Phys.
     2020, 22, 8499-8512. DOI: 10.1039/D0CP00502A
   
   for sTDA-xTB:
   * S. Grimme and C. Bannwarth, J. Chem. Phys., 2016, 145, 054103.
     DOI: 10.1063/1.4959605
   
   in the mass-spec context:
   * V. Asgeirsson, C. Bauer and S. Grimme, Chem. Sci., 2017, 8, 4879.
     DOI: 10.1039/c7sc00601b
   * J. Koopman and S. Grimme, ACS Omega 2019, 4, 12, 15120-15133.
     DOI: 10.1021/acsomega.9b02011
   
   for metadynamics refer to:
   * S. Grimme, J. Chem. Theory Comput., 2019, 155, 2847-2862
     DOI: 10.1021/acs.jctc.9b00143
   
   for SPH calculations refer to:
   * S. Spicher and S. Grimme, J. Chem. Theory Comput., 2021, 17, 1701-1714
     DOI: 10.1021/acs.jctc.0c01306
   
   for ONIOM refer to:
   * C. Plett, A. Katbashev, S. Ehlert, S. Grimme, M. Bursch,
     Phys. Chem. Chem. Phys., 2023, 25, 17860-17868. DOI: 10.1039/D3CP02178E
   
   for DIPRO refer to:
   * J. Kohn, N. Gildemeister, S. Grimme, D. Fazzi, A. Hansen,
     J. Chem. Phys., 2023, just accepted.
   
   for PTB refer to:
   * S. Grimme, M. Mueller, A. Hansen, J. Chem. Phys., 2023, 158, 124111.
     DOI: 10.1063/5.0137838
   
   with help from (in alphabetical order)
   P. Atkinson, C. Bannwarth, F. Bohle, G. Brandenburg, E. Caldeweyher
   M. Checinski, S. Dohm, S. Ehlert, S. Ehrlich, I. Gerasimov, C. Hölzer
   A. Katbashev, J. Kohn, J. Koopman, C. Lavigne, S. Lehtola, F. März, M. Müller,
   F. Musil, H. Neugebauer, J. Pisarek, C. Plett, P. Pracht, F. Pultar,
   J. Seibert, P. Shushkov, S. Spicher, M. Stahn, M. Steiner, T. Strunk,
   J. Stückrath, T. Rose, and J. Unsleber
   
 * started run on 2025/04/06 at 18:00:43.978     
   ID    Z sym.   atoms
    1    6 C      1, 2, 4, 6, 8, 10
    2    1 H      3, 5, 7, 9, 11, 18-24
    3    8 O      12-17

           -------------------------------------------------
          |                Calculation Setup                |
           -------------------------------------------------

          program call               : /srv/scratch/z5358697/.xtb/bin/xtb solv.coord --gfn2 --sp --chrg 0 --norestart --parallel 1 --alpb water reference -I xtb_sp-xcontrol-inp
          hostname                   : k155
          coordinate file            : solv.coord
          omp threads                :                     1


           -------------------------------------------------
          |                 G F N 2 - x T B                 |
           -------------------------------------------------

        Reference                      10.1021/acs.jctc.8b01176
      * Hamiltonian:
        H0-scaling (s, p, d)           1.850000    2.230000    2.230000
        zeta-weighting                 0.500000
      * Dispersion:
        s8                             2.700000
        a1                             0.520000
        a2                             5.000000
        s9                             5.000000
      * Repulsion:
        kExp                           1.500000    1.000000
        rExp                           1.000000
      * Coulomb:
        alpha                          2.000000
        third order                    shell-resolved
        anisotropic                    true
        a3                             3.000000
        a5                             4.000000
        cn-shift                       1.200000
        cn-exp                         4.000000
        max-rad                        5.000000

      * Solvation model:               ALPB
        Solvent                        water
        Parameter file                 internal GFN2-xTB/ALPB
        Dielectric constant                8.0200E+01
        Reference state                gsolv=reference [X=1]
        Free energy shift                  2.8945E-03 Eh       1.8164E+00 kcal/mol
        Temperature                        2.9815E+02 K
        Density                            1.0000E+00 kg/L
        Solvent mass                       1.8000E+01 g/mol
        Interaction kernel             P16
        Born radius scaling (c1)           1.4744E+00
        Born radii integrator          GBOBC
        Born offset                        0.0000E+00 a0       0.0000E+00 AA
        H-bond correction              true
        Ion screening                  false
        Surface tension                    1.0000E-05 Eh       1.5569E+01 dyn/cm
        Grid points                               974 per atom

          ...................................................
          :                      SETUP                      :
          :.................................................:
          :  # basis functions                  60          :
          :  # atomic orbitals                  60          :
          :  # shells                           36          :
          :  # electrons                        72          :
          :  max. iterations                   250          :
          :  Hamiltonian                  GFN2-xTB          :
          :  restarted?                      false          :
          :  GBSA solvation                   true          :
          :  PC potential                    false          :
          :  electronic temp.          300.0000000     K    :
          :  accuracy                    1.0000000          :
          :  -> integral cutoff          0.2500000E+02      :
          :  -> integral neglect         0.1000000E-07      :
          :  -> SCF convergence          0.1000000E-05 Eh   :
          :  -> wf. convergence          0.1000000E-03 e    :
          :  Broyden damping             0.4000000          :
          :  net charge                          0          :
          :  unpaired electrons                  0          :
          ...................................................

 iter      E             dE          RMSdq      gap      omega  full diag
   1    -43.6488773 -0.436489E+02  0.489E+00   10.24       0.0  T
   2    -43.6820414 -0.331641E-01  0.264E+00   10.10       1.0  T
   3    -43.6840308 -0.198931E-02  0.595E-01   10.13       1.0  T
   4    -43.6844707 -0.439905E-03  0.179E-01   10.13       1.0  T
   5    -43.6845379 -0.672731E-04  0.787E-02   10.15       1.0  T
   6    -43.6845558 -0.178598E-04  0.227E-02   10.15       1.0  T
   7    -43.6845569 -0.107260E-05  0.612E-03   10.15       3.3  T
   8    -43.6845571 -0.257567E-06  0.271E-03   10.15       7.5  T
   9    -43.6845571 -0.228282E-07  0.105E-03   10.15      19.4  T
  10    -43.6845572 -0.511433E-08  0.320E-04   10.15      63.8  T
  11    -43.6845572 -0.589573E-09  0.107E-04   10.15     190.9  T

   *** convergence criteria satisfied after 11 iterations ***

         #    Occupation            Energy/Eh            Energy/eV
      -------------------------------------------------------------
         1        2.0000           -0.7293233             -19.8459
       ...           ...                  ...                  ...
        30        2.0000           -0.4591309             -12.4936
        31        2.0000           -0.4554255             -12.3928
        32        2.0000           -0.4378193             -11.9137
        33        2.0000           -0.4350396             -11.8380
        34        2.0000           -0.4274464             -11.6314
        35        2.0000           -0.4112232             -11.1900
        36        2.0000           -0.3998210             -10.8797 (HOMO)
        37                         -0.0268311              -0.7301 (LUMO)
        38                          0.0016715               0.0455
        39                          0.0166090               0.4520
        40                          0.0273940               0.7454
        41                          0.0461617               1.2561
       ...                                ...                  ...
        60                          0.2917180               7.9381
      -------------------------------------------------------------
                  HL-Gap            0.3729898 Eh           10.1496 eV
             Fermi-level           -0.2133261 Eh           -5.8049 eV

 SCC (total)                   0 d,  0 h,  0 min,  0.044 sec
 SCC setup                      ...        0 min,  0.002 sec (  3.405%)
 Dispersion                     ...        0 min,  0.000 sec (  0.329%)
 classical contributions        ...        0 min,  0.000 sec (  0.062%)
 integral evaluation            ...        0 min,  0.004 sec (  8.469%)
 iterations                     ...        0 min,  0.031 sec ( 70.462%)
 molecular gradient             ...        0 min,  0.007 sec ( 16.902%)
 printout                       ...        0 min,  0.000 sec (  0.338%)

         :::::::::::::::::::::::::::::::::::::::::::::::::::::
         ::                     SUMMARY                     ::
         :::::::::::::::::::::::::::::::::::::::::::::::::::::
         :: total energy             -43.384408067196 Eh    ::
         :: total w/o Gsasa/hb       -43.369030504968 Eh    ::
         :: gradient norm              0.000173529901 Eh/a0 ::
         :: HOMO-LUMO gap             10.149570380342 eV    ::
         ::.................................................::
         :: SCC energy               -43.684366795920 Eh    ::
         :: -> isotropic ES            0.169245508483 Eh    ::
         :: -> anisotropic ES         -0.008578898733 Eh    ::
         :: -> anisotropic XC         -0.009701989076 Eh    ::
         :: -> dispersion             -0.019970467165 Eh    ::
         :: -> Gsolv                  -0.033291892055 Eh    ::
         ::    -> Gelec               -0.017914329827 Eh    ::
         ::    -> Gsasa                0.004918269966 Eh    ::
         ::    -> Ghb                 -0.023190381355 Eh    ::
         ::    -> Gshift               0.002894549160 Eh    ::
         :: repulsion energy           0.299958728723 Eh    ::
         :: add. restraining           0.000000000000 Eh    ::
         :: total charge               0.000000000000 e     ::
         :::::::::::::::::::::::::::::::::::::::::::::::::::::

           -------------------------------------------------
          |                Property Printout                |
           -------------------------------------------------

    * Orbital Energies and Occupations

         #    Occupation            Energy/Eh            Energy/eV
      -------------------------------------------------------------
         1        2.0000           -0.7293233             -19.8459
       ...           ...                  ...                  ...
        24        2.0000           -0.5192678             -14.1300
        25        2.0000           -0.5033165             -13.6959
        26        2.0000           -0.4989306             -13.5766
        27        2.0000           -0.4919159             -13.3857
        28        2.0000           -0.4836048             -13.1596
        29        2.0000           -0.4705722             -12.8049
        30        2.0000           -0.4591309             -12.4936
        31        2.0000           -0.4554255             -12.3928
        32        2.0000           -0.4378193             -11.9137
        33        2.0000           -0.4350396             -11.8380
        34        2.0000           -0.4274464             -11.6314
        35        2.0000           -0.4112232             -11.1900
        36        2.0000           -0.3998210             -10.8797 (HOMO)
        37                         -0.0268311              -0.7301 (LUMO)
        38                          0.0016715               0.0455
        39                          0.0166090               0.4520
        40                          0.0273940               0.7454
        41                          0.0461617               1.2561
        42                          0.0478646               1.3025
        43                          0.0727985               1.9809
        44                          0.0820985               2.2340
        45                          0.1038275               2.8253
        46                          0.1141990               3.1075
        47                          0.1246361               3.3915
       ...                                ...                  ...
        60                          0.2917180               7.9381
      -------------------------------------------------------------
                  HL-Gap            0.3729898 Eh           10.1496 eV
             Fermi-level           -0.2133261 Eh           -5.8049 eV

     #   Z          covCN         q      C6AA      α(0)
     1   6 C        3.675     0.059    19.815     6.378
     2   6 C        3.751     0.094    19.082     6.230
     3   1 H        0.923     0.052     2.290     2.366
     4   6 C        3.723     0.089    19.207     6.259
     5   1 H        0.923     0.042     2.425     2.435
     6   6 C        3.725     0.101    19.022     6.228
     7   1 H        0.923     0.056     2.246     2.344
     8   6 C        3.722     0.083    19.304     6.275
     9   1 H        0.923     0.038     2.474     2.460
    10   6 C        3.630     0.237    17.269     5.984
    11   1 H        0.923     0.041     2.431     2.438
    12   8 O        1.701    -0.359    20.060     6.047
    13   8 O        1.657    -0.497    22.818     6.448
    14   8 O        1.656    -0.508    23.071     6.484
    15   8 O        1.654    -0.506    23.012     6.476
    16   8 O        1.656    -0.509    23.090     6.487
    17   8 O        1.655    -0.484    22.541     6.409
    18   1 H        0.924     0.072     2.059     2.244
    19   1 H        0.924     0.062     2.177     2.308
    20   1 H        0.804     0.383     0.517     1.129
    21   1 H        0.804     0.366     0.552     1.167
    22   1 H        0.802     0.350     0.588     1.205
    23   1 H        0.805     0.366     0.552     1.167
    24   1 H        0.804     0.370     0.544     1.158

 Mol. C6AA /au·bohr⁶  :       4714.990824
 Mol. C8AA /au·bohr⁸  :     100588.797251
 Mol. α(0) /au        :         98.124597


Wiberg/Mayer (AO) data.
largest (>0.10) Wiberg bond orders for each atom

 ---------------------------------------------------------------------------
     #   Z sym  total        # sym  WBO       # sym  WBO       # sym  WBO
 ---------------------------------------------------------------------------
     1   6 C    3.953 --    17 O    1.003     2 C    0.978    19 H    0.969
                            18 H    0.968
     2   6 C    3.942 --     1 C    0.978     4 C    0.969    12 O    0.961
                             3 H    0.954
     3   1 H    0.997 --     2 C    0.954
     4   6 C    3.956 --    16 O    0.994     2 C    0.969     6 C    0.967
                             5 H    0.956
     5   1 H    0.998 --     4 C    0.956
     6   6 C    3.961 --    15 O    1.010     4 C    0.967     8 C    0.960
                             7 H    0.956
     7   1 H    0.997 --     6 C    0.956
     8   6 C    3.955 --    14 O    0.998     6 C    0.960     9 H    0.956
                            10 C    0.949
     9   1 H    0.999 --     8 C    0.956
    10   6 C    3.926 --    13 O    1.017    12 O    0.953    11 H    0.950
                             8 C    0.949
    11   1 H    0.998 --    10 C    0.950
    12   8 O    2.057 --     2 C    0.961    10 C    0.953
    13   8 O    1.944 --    10 C    1.017    20 H    0.834
    14   8 O    1.917 --     8 C    0.998    21 H    0.850
    15   8 O    1.924 --     6 C    1.010    22 H    0.816
    16   8 O    1.918 --     4 C    0.994    23 H    0.849
    17   8 O    1.975 --     1 C    1.003    24 H    0.850
    18   1 H    0.994 --     1 C    0.968
    19   1 H    0.996 --     1 C    0.969
    20   1 H    0.853 --    13 O    0.834
    21   1 H    0.866 --    14 O    0.850
    22   1 H    0.877 --    15 O    0.816
    23   1 H    0.866 --    16 O    0.849
    24   1 H    0.863 --    17 O    0.850
 ---------------------------------------------------------------------------

Topologies differ in total number of bonds
Writing topology from bond orders to xtbtopo.mol

molecular dipole:
                 x           y           z       tot (Debye)
 q only:       -0.466      -0.610      -0.218
   full:       -0.455      -0.765      -0.175       2.306
molecular quadrupole (traceless):
                xx          xy          yy          xz          yz          zz
 q only:        4.150      -0.227      -1.567      -2.778      11.776      -2.584
  q+dip:        3.310       0.260       0.282      -5.268      13.964      -3.593
   full:        3.649       0.050      -0.384      -4.602      14.422      -3.264


           -------------------------------------------------
          | TOTAL ENERGY              -43.384408067196 Eh   |
          | GRADIENT NORM               0.000173529901 Eh/α |
          | HOMO-LUMO GAP              10.149570380342 eV   |
           -------------------------------------------------

------------------------------------------------------------------------
 * finished run on 2025/04/06 at 18:00:44.065     
------------------------------------------------------------------------
 total:
 * wall-time:     0 d,  0 h,  0 min,  0.087 sec
 *  cpu-time:     0 d,  0 h,  0 min,  0.030 sec
 * ratio c/w:     0.350 speedup
 SCF:
 * wall-time:     0 d,  0 h,  0 min,  0.044 sec
 *  cpu-time:     0 d,  0 h,  0 min,  0.022 sec
 * ratio c/w:     0.495 speedup

