
                                 *****************
                                 * O   R   C   A *
                                 *****************

                                            #,                                       
                                            ###                                      
                                            ####                                     
                                            #####                                    
                                            ######                                   
                                           ########,                                 
                                     ,,################,,,,,                         
                               ,,#################################,,                 
                          ,,##########################################,,             
                       ,#########################################, ''#####,          
                    ,#############################################,,   '####,        
                  ,##################################################,,,,####,       
                ,###########''''           ''''###############################       
              ,#####''   ,,,,##########,,,,          '''####'''          '####       
            ,##' ,,,,###########################,,,                        '##       
           ' ,,###''''                  '''############,,,                           
         ,,##''                                '''############,,,,        ,,,,,,###''
      ,#''                                            '''#######################'''  
     '                                                          ''''####''''         
             ,#######,   #######,   ,#######,      ##                                
            ,#'     '#,  ##    ##  ,#'     '#,    #''#        ,####,   ,####,        
            ##       ##  ##   ,#'  ##            #'  '#       #'       #'  '#        
            ##       ##  #######   ##           ,######,      #####,   #    #        
            '#,     ,#'  ##    ##  '#,     ,#' ,#      #,     #,   #   #,  ,#        
             '#######'   ##     ##  '#######'  #'      '#     '####' # '####'        



                #########################################################
                #                        -***-                          #
                #          Department of theory and spectroscopy        #
                #                                                       #
                #                      Frank Neese                      #
                #                                                       #
                #     Directorship, Architecture, Infrastructure        #
                #                    SHARK, DRIVERS                     #
                #        Core code/Algorithms in most modules           #
                #                                                       #
                #        Max Planck Institute fuer Kohlenforschung      #
                #                Kaiser Wilhelm Platz 1                 #
                #                 D-45470 Muelheim/Ruhr                 #
                #                      Germany                          #
                #                                                       #
                #                  All rights reserved                  #
                #                        -***-                          #
                #########################################################


                         Program Version 6.0.0  -   RELEASE  -


 With contributions from (in alphabetic order):
   Daniel Aravena         : Magnetic Suceptibility
   Michael Atanasov       : Ab Initio Ligand Field Theory (pilot matlab implementation)
   Alexander A. Auer      : GIAO ZORA, VPT2 properties, NMR spectrum
   Ute Becker             : All parallelization in ORCA, NUMFREQ, NUMCALC
   Giovanni Bistoni       : ED, misc. LED, open-shell LED, HFLD
   Martin Brehm           : Molecular dynamics
   Dmytro Bykov           : pre 5.0 version of the SCF Hessian
   Marcos Casanova-Páez   : Triplet and SCS-CIS(D). UHF-(DLPNO)-IP/EA/STEOM-CCSD. UHF-CVS-IP/STEOM-CCSD
   Vijay G. Chilkuri      : MRCI spin determinant printing, contributions to CSF-ICE
   Pauline Colinet        : FMM embedding
   Dipayan Datta          : RHF DLPNO-CCSD density
   Achintya Kumar Dutta   : EOM-CC, STEOM-CC
   Nicolas Foglia         : Exact transition moments, OPA infrastructure, MCD improvements
   Dmitry Ganyushin       : Spin-Orbit,Spin-Spin,Magnetic field MRCI
   Miquel Garcia          : C-PCM and meta-GGA Hessian, CCSD/C-PCM, Gaussian charge scheme
   Tiago L. C. Gouveia    : GS-ROHF, GS-ROCIS
   Yang Guo               : DLPNO-NEVPT2, F12-NEVPT2, CIM, IAO-localization
   Andreas Hansen         : Spin unrestricted coupled pair/coupled cluster methods
   Ingolf Harden          : AUTO-CI MPn and infrastructure 
   Benjamin Helmich-Paris : MC-RPA, TRAH-(SCF,CASSCF), AVAS, COSX integrals, SCF dyn. polar.
   Lee Huntington         : MR-EOM, pCC
   Robert Izsak           : Overlap fitted RIJCOSX, COSX-SCS-MP3, EOM
   Riya Kayal             : Wick's Theorem for AUTO-CI, AUTO-CI UHF-CCSDT
   Emily Kempfer          : AUTO-CI, RHF CISDT and CCSDT
   Christian Kollmar      : KDIIS, OOCD, Brueckner-CCSD(T), CCSD density, CASPT2, CASPT2-K, improved NEVPT2
   Axel Koslowski         : Symmetry handling
   Simone Kossmann        : Meta GGA functionals, TD-DFT gradient, OOMP2, (MP2 Hessian; deprecated post 5.0)
   Lucas Lang             : DCDCAS
   Marvin Lechner         : AUTO-CI (C++ implementation), FIC-MRCC
   Spencer Leger          : CASSCF response
   Dagmar Lenk            : GEPOL surface, SMD, ORCA-2-JSON
   Dimitrios Liakos       : Extrapolation schemes; Compound Job, initial MDCI parallelization
   Dimitrios Manganas     : Further ROCIS development; embedding schemes. LFT, Crystal Embedding
   Dimitrios Pantazis     : SARC Basis sets
   Anastasios Papadopoulos: AUTO-CI, single reference methods and gradients
   Taras Petrenko         : pre 6.0 DFT Hessian and TD-DFT gradient, (ASA, deprecated), ECA, 1-Electron XAS/XES, NRVS
   Peter Pinski           : DLPNO-MP2, DLPNO-MP2 Gradient
   Christoph Reimann      : Effective Core Potentials
   Marius Retegan         : Local ZFS, SOC
   Christoph Riplinger    : Optimizer, TS searches, QM/MM, DLPNO-CCSD(T), (RO)-DLPNO pert. Triples
   Michael Roemelt        : Original ROCIS implementation
   Masaaki Saitow         : Open-shell DLPNO-CCSD energy and density
   Barbara Sandhoefer     : DKH picture change effects
   Kantharuban Sivalingam : CASSCF convergence/infrastructure, NEVPT2 and variants, FIC-MRCI
   Bernardo de Souza      : ESD, SOC TD-DFT
   Georgi Stoychev        : AutoAux, RI-MP2 NMR, DLPNO-MP2 response, X2C
   Van Anh Tran           : RI-MP2 g-tensors
   Willem Van den Heuvel  : Paramagnetic NMR
   Zikuan Wang            : NOTCH, Electric field optimization 
   Frank Wennmohs         : Technical directorship and infrastructure
   Hang Xu                : AUTO-CI-Response properties 


 We gratefully acknowledge several colleagues who have allowed us to
 interface, adapt or use parts of their codes:
   Stefan Grimme, W. Hujo, H. Kruse, P. Pracht,  : VdW corrections, initial TS optimization,
                  C. Bannwarth, S. Ehlert,         DFT functionals, gCP, sTDA/sTD-DF
                  L. Wittmann, M. Mueller
   Ed Valeev, F. Pavosevic, A. Kumar             : LibInt (2-el integral package), F12 methods
   Garnet Chan, S. Sharma, J. Yang, R. Olivares  : DMRG
   Ulf Ekstrom                                   : XCFun DFT Library
   Mihaly Kallay                                 : mrcc  (arbitrary order and MRCC methods)
   Frank Weinhold                                : gennbo (NPA and NBO analysis)
   Simon Mueller                                 : openCOSMO-RS
   Christopher J. Cramer and Donald G. Truhlar   : smd solvation model
   Lars Goerigk                                  : TD-DFT with DH, B97 family of functionals
   V. Asgeirsson, H. Jonsson                     : NEB implementation
   FAccTs GmbH                                   : IRC, NEB, NEB-TS, DLPNO-Multilevel, CI-OPT
                                                   MM, QMMM, 2- and 3-layer-ONIOM, Crystal-QMMM,
                                                   LR-CPCM, SF, NACMEs, symmetry and pop. for TD-DFT,
                                                   nearIR, NL-DFT gradient (VV10), updates on ESD,
                                                   ML-optimized integration grids, MBIS, APM,
                                                   GOAT, DOCKER, SOLVATOR, interface openCOSMO-RS
   S Lehtola, MJT Oliveira, MAL Marques          : LibXC Library
   Liviu Ungur et al                             : ANISO software


 Your calculation uses the libint2 library for the computation of 2-el integrals
 For citations please refer to: http://libint.valeyev.net

 Your ORCA version has been built with support for libXC version: 6.2.2
 For citations please refer to: https://libxc.gitlab.io

 This ORCA versions uses:
   CBLAS   interface :  Fast vector & matrix operations
   LAPACKE interface :  Fast linear algebra routines
   SCALAPACK package :  Parallel linear algebra routines
   Shared memory     :  Shared parallel matrices
   BLAS/LAPACK       :  OpenBLAS 0.3.27  USE64BITINT DYNAMIC_ARCH NO_AFFINITY SkylakeX SINGLE_THREADED
        Core in use  :  SkylakeX
   Copyright (c) 2011-2014, The OpenBLAS Project


Your calculation utilizes the geometrical counterpoise correction gCP
Please cite in your paper:
H.Kruse, S. Grimme J.Chem.Phys., 136, (2012), 154101 
   

Your calculation utilizes the atom-pairwise dispersion correction
based on EEQ partial charges (D4)


Your calculation utilizes the SMD solvation module
Please cite in your paper:
A.V. Marenich, C.J. Cramer, D.G. Truhlar J. Phys. Chem. B, 113, (2009), 6378 

================================================================================

----- Orbital basis set information -----
Your calculation utilizes the basis: def2-mTZVPP
   Stefan Grimme, Andreas Hansen, Sebastian Ehlert, and Jan-Michael Mewes 
   J. Chem. Phys. 154, 064103 (2021). DOI: 10.1063/5.0040021

----- AuxJ basis set information -----
Your calculation utilizes the auxiliary basis: def2/J
   F. Weigend, Phys. Chem. Chem. Phys. 8, 1057 (2006).

================================================================================
                                        WARNINGS
                       Please study these warnings very carefully!
================================================================================

Using LibXC functional ID 497 : Re-regularized SCAN exchange by Furness et al
[ 1]  J. W. Furness, A. D. Kaplan, J. Ning, J. P. Perdew, and J. Sun.,  J. Phys. Chem. Lett. 11, 8208-8215 (2020)
[ 2]  J. W. Furness, A. D. Kaplan, J. Ning, J. P. Perdew, and J. Sun.,  J. Phys. Chem. Lett. 11, 9248-9248 (2020)
Using LibXC functional ID 498 : Re-regularized SCAN correlation by Furness et al
[ 1]  J. W. Furness, A. D. Kaplan, J. Ning, J. P. Perdew, and J. Sun.,  J. Phys. Chem. Lett. 11, 8208-8215 (2020)
[ 2]  J. W. Furness, A. D. Kaplan, J. Ning, J. P. Perdew, and J. Sun.,  J. Phys. Chem. Lett. 11, 9248-9248 (2020)
Using LibXC functional ID 497 : Re-regularized SCAN exchange by Furness et al
[ 1]  J. W. Furness, A. D. Kaplan, J. Ning, J. P. Perdew, and J. Sun.,  J. Phys. Chem. Lett. 11, 8208-8215 (2020)
[ 2]  J. W. Furness, A. D. Kaplan, J. Ning, J. P. Perdew, and J. Sun.,  J. Phys. Chem. Lett. 11, 9248-9248 (2020)
Using LibXC functional ID 498 : Re-regularized SCAN correlation by Furness et al
[ 1]  J. W. Furness, A. D. Kaplan, J. Ning, J. P. Perdew, and J. Sun.,  J. Phys. Chem. Lett. 11, 8208-8215 (2020)
[ 2]  J. W. Furness, A. D. Kaplan, J. Ning, J. P. Perdew, and J. Sun.,  J. Phys. Chem. Lett. 11, 9248-9248 (2020)

================================================================================
                                       INPUT FILE
================================================================================
NAME = sp_solv.inp
|  1> ! r2scan-3c def2/J RI DEFGRID2 scfconv6 printgap
|  2> %output
|  3>     printlevel normal
|  4> end
|  5> %cpcm
|  6>     smd true
|  7>     smdsolvent "water"
|  8> end
|  9> * xyz 0 1
| 10> C 3.6835983905 0.3627632037 0.0704776702
| 11> C 2.2131712658 0.3033222859 -0.3331920027
| 12> H 2.1466043484 0.3686316114 -1.425489083
| 13> C 1.4253428211 1.4644393282 0.2710166862
| 14> C -0.0449947053 1.3815157527 -0.1257788134
| 15> C -0.6741533415 0.0719317251 0.3542785046
| 16> H -0.5327419856 -0.0051528658 1.439161384
| 17> C 0.1043968752 -1.1028590157 -0.2706035641
| 18> H 0.021716536 -1.0543787157 -1.3674519762
| 19> C 1.5835101713 -1.0141453517 0.110894565
| 20> O -0.3480019348 -2.3702614921 0.180034265
| 21> C -2.1933260351 -0.0073889696 0.0946071605
| 22> C -2.9610088824 0.9388696023 1.0189818613
| 23> C -2.5834619233 0.2629953217 -1.3582176109
| 24> H 4.1307753935 1.2973882582 -0.259278635
| 25> H 3.7819746372 0.2962597962 1.1516057627
| 26> H 4.2356823293 -0.4609126215 -0.3753973232
| 27> H 1.5138760836 1.4311492481 1.3591524741
| 28> H 1.8450209732 2.4126357349 -0.0709119214
| 29> H -0.5829046215 2.2269299637 0.3035851605
| 30> H -0.1207317144 1.4449577059 -1.212618906
| 31> H 1.6602512215 -1.1202622196 1.1950017894
| 32> H 2.1055516451 -1.8606717826 -0.3395269865
| 33> H -1.2177114803 -2.5567467508 -0.195536033
| 34> H -2.5090473799 -1.0253416161 0.3522098365
| 35> H -2.7381316957 1.9772229708 0.7879944048
| 36> H -2.7046691369 0.7528311072 2.0592868129
| 37> H -4.0313888341 0.7892255622 0.89793364
| 38> H -2.4201952202 1.3069070842 -1.6121791044
| 39> H -3.6389157126 0.0427615116 -1.5021876037
| 40> H -2.0117455203 -0.3539595873 -2.046719709
| 41> *
| 42> 
| 43>                          ****END OF INPUT****
================================================================================

                       ****************************
                       * Single Point Calculation *
                       ****************************

---------------------------------
CARTESIAN COORDINATES (ANGSTROEM)
---------------------------------
  C      3.683598    0.362763    0.070478
  C      2.213171    0.303322   -0.333192
  H      2.146604    0.368632   -1.425489
  C      1.425343    1.464439    0.271017
  C     -0.044995    1.381516   -0.125779
  C     -0.674153    0.071932    0.354279
  H     -0.532742   -0.005153    1.439161
  C      0.104397   -1.102859   -0.270604
  H      0.021717   -1.054379   -1.367452
  C      1.583510   -1.014145    0.110895
  O     -0.348002   -2.370261    0.180034
  C     -2.193326   -0.007389    0.094607
  C     -2.961009    0.938870    1.018982
  C     -2.583462    0.262995   -1.358218
  H      4.130775    1.297388   -0.259279
  H      3.781975    0.296260    1.151606
  H      4.235682   -0.460913   -0.375397
  H      1.513876    1.431149    1.359152
  H      1.845021    2.412636   -0.070912
  H     -0.582905    2.226930    0.303585
  H     -0.120732    1.444958   -1.212619
  H      1.660251   -1.120262    1.195002
  H      2.105552   -1.860672   -0.339527
  H     -1.217711   -2.556747   -0.195536
  H     -2.509047   -1.025342    0.352210
  H     -2.738132    1.977223    0.787994
  H     -2.704669    0.752831    2.059287
  H     -4.031389    0.789226    0.897934
  H     -2.420195    1.306907   -1.612179
  H     -3.638916    0.042762   -1.502188
  H     -2.011746   -0.353960   -2.046720

----------------------------
CARTESIAN COORDINATES (A.U.)
----------------------------
  NO LB      ZA    FRAG     MASS         X           Y           Z
   0 C     6.0000    0    12.011    6.960992    0.685523    0.133183
   1 C     6.0000    0    12.011    4.182288    0.573196   -0.629642
   2 H     1.0000    0     1.008    4.056494    0.696613   -2.693784
   3 C     6.0000    0    12.011    2.693508    2.767389    0.512147
   4 C     6.0000    0    12.011   -0.085028    2.610686   -0.237688
   5 C     6.0000    0    12.011   -1.273965    0.135931    0.669489
   6 H     1.0000    0     1.008   -1.006736   -0.009738    2.719621
   7 C     6.0000    0    12.011    0.197282   -2.084102   -0.511367
   8 H     1.0000    0     1.008    0.041038   -1.992487   -2.584110
   9 C     6.0000    0    12.011    2.992401   -1.916457    0.209560
  10 O     8.0000    0    15.999   -0.657628   -4.479145    0.340215
  11 C     6.0000    0    12.011   -4.144786   -0.013963    0.178782
  12 C     6.0000    0    12.011   -5.595496    1.774206    1.925597
  13 C     6.0000    0    12.011   -4.882036    0.496989   -2.566659
  14 H     1.0000    0     1.008    7.806034    2.451708   -0.489966
  15 H     1.0000    0     1.008    7.146896    0.559850    2.176220
  16 H     1.0000    0     1.008    8.004280   -0.870999   -0.709398
  17 H     1.0000    0     1.008    2.860811    2.704480    2.568426
  18 H     1.0000    0     1.008    3.486584    4.559221   -0.134004
  19 H     1.0000    0     1.008   -1.101530    4.208288    0.573693
  20 H     1.0000    0     1.008   -0.228150    2.730574   -2.291518
  21 H     1.0000    0     1.008    3.137420   -2.116989    2.258226
  22 H     1.0000    0     1.008    3.978916   -3.516160   -0.641613
  23 H     1.0000    0     1.008   -2.301141   -4.831551   -0.369510
  24 H     1.0000    0     1.008   -4.741412   -1.937615    0.665580
  25 H     1.0000    0     1.008   -5.174319    3.736410    1.489094
  26 H     1.0000    0     1.008   -5.111084    1.422645    3.891488
  27 H     1.0000    0     1.008   -7.618221    1.491420    1.696849
  28 H     1.0000    0     1.008   -4.573506    2.469696   -3.046577
  29 H     1.0000    0     1.008   -6.876554    0.080808   -2.838723
  30 H     1.0000    0     1.008   -3.801648   -0.668887   -3.867740

--------------------------------
INTERNAL COORDINATES (ANGSTROEM)
--------------------------------
 C      0   0   0     0.000000000000     0.00000000     0.00000000
 C      1   0   0     1.525987665934     0.00000000     0.00000000
 H      2   1   0     1.096270666451   108.64847964     0.00000000
 C      2   1   3     1.527722024434   111.26527891   240.60116571
 C      4   2   1     1.525193571130   110.66637499   180.74572278
 C      5   4   2     1.530132655496   111.18013474    59.57059779
 H      6   5   4     1.096772568834   108.51013389    56.15036651
 C      6   5   4     1.541671600691   108.50427065   300.94028060
 H      8   6   5     1.101028072805   109.40922313   298.35770961
 C      2   1   3     1.526239479787   110.74384731   118.99748241
 O      8   6   5     1.419171650467   113.00690435   176.23707363
 C      6   5   4     1.543245493282   113.32618823   174.64782855
 C     12   6   5     1.529447882869   111.13762755   288.82038403
 C     12   6   5     1.528402267938   113.71112907    53.17684156
 H      1   2   3     1.087304228508   110.46000356    60.27346610
 H      1   2   3     1.087629781459   110.34816155   180.20936581
 H      1   2   3     1.087218032521   110.56750152   300.10717256
 H      4   2   1     1.092238921166   109.21087874   301.49905821
 H      4   2   1     1.091843097576   109.75292827    59.59153750
 H      5   4   2     1.090149388015   109.33257462   180.85301563
 H      5   4   2     1.091321383854   108.83446661   298.89010454
 H     10   2   1     1.091988302334   110.10610045    59.30300494
 H     10   2   1     1.091793878273   110.60912392   300.63815246
 H     11   8   6     0.965517733647   109.64055849    71.05746136
 H     12   6   5     1.096479227692   106.95592518   172.68245898
 H     13  12   6     1.086833549025   111.08249721    66.65021660
 H     13  12   6     1.087453345714   110.73325550   305.93117487
 H     13  12   6     1.087547356035   109.97501235   186.20252539
 H     14  12   6     1.086694172437   110.71601517   290.52021940
 H     14  12   6     1.087755942887   109.73497257   171.37428294
 H     14  12   6     1.086981206961   111.55657821    51.52916944

---------------------------
INTERNAL COORDINATES (A.U.)
---------------------------
 C      0   0   0     0.000000000000     0.00000000     0.00000000
 C      1   0   0     2.883698772356     0.00000000     0.00000000
 H      2   1   0     2.071651328244   108.64847964     0.00000000
 C      2   1   3     2.886976234940   111.26527891   240.60116571
 C      4   2   1     2.882198150653   110.66637499   180.74572278
 C      5   4   2     2.891531667457   111.18013474    59.57059779
 H      6   5   4     2.072599786294   108.51013389    56.15036651
 C      6   5   4     2.913337113749   108.50427065   300.94028060
 H      8   6   5     2.080641523360   109.40922313   298.35770961
 C      2   1   3     2.884174631577   110.74384731   118.99748241
 O      8   6   5     2.681845756408   113.00690435   176.23707363
 C      6   5   4     2.916311339711   113.32618823   174.64782855
 C     12   6   5     2.890237634728   111.13762755   288.82038403
 C     12   6   5     2.888261708866   113.71112907    53.17684156
 H      1   2   3     2.054707216134   110.46000356    60.27346610
 H      1   2   3     2.055322422054   110.34816155   180.20936581
 H      1   2   3     2.054544329326   110.56750152   300.10717256
 H      4   2   1     2.064032433814   109.21087874   301.49905821
 H      4   2   1     2.063284435631   109.75292827    59.59153750
 H      5   4   2     2.060083788411   109.33257462   180.85301563
 H      5   4   2     2.062298539575   108.83446661   298.89010454
 H     10   2   1     2.063558832857   110.10610045    59.30300494
 H     10   2   1     2.063191424628   110.60912392   300.63815246
 H     11   8   6     1.824564094036   109.64055849    71.05746136
 H     12   6   5     2.072045451872   106.95592518   172.68245898
 H     13  12   6     2.053817760816   111.08249721    66.65021660
 H     13  12   6     2.054989006817   110.73325550   305.93117487
 H     13  12   6     2.055166660576   109.97501235   186.20252539
 H     14  12   6     2.053554377233   110.71601517   290.52021940
 H     14  12   6     2.055560832601   109.73497257   171.37428294
 H     14  12   6     2.054096793876   111.55657821    51.52916944

---------------------
BASIS SET INFORMATION
---------------------
There are 3 groups of distinct atoms

 Group   1 Type C   : 11s6p1d contracted to 5s3p1d pattern {62111/411/1}
 Group   2 Type H   : 4s1p contracted to 2s1p pattern {31/1}
 Group   3 Type O   : 11s6p2d contracted to 5s3p2d pattern {62111/411/11}

Atom   0C    basis set group =>   1
Atom   1C    basis set group =>   1
Atom   2H    basis set group =>   2
Atom   3C    basis set group =>   1
Atom   4C    basis set group =>   1
Atom   5C    basis set group =>   1
Atom   6H    basis set group =>   2
Atom   7C    basis set group =>   1
Atom   8H    basis set group =>   2
Atom   9C    basis set group =>   1
Atom  10O    basis set group =>   3
Atom  11C    basis set group =>   1
Atom  12C    basis set group =>   1
Atom  13C    basis set group =>   1
Atom  14H    basis set group =>   2
Atom  15H    basis set group =>   2
Atom  16H    basis set group =>   2
Atom  17H    basis set group =>   2
Atom  18H    basis set group =>   2
Atom  19H    basis set group =>   2
Atom  20H    basis set group =>   2
Atom  21H    basis set group =>   2
Atom  22H    basis set group =>   2
Atom  23H    basis set group =>   2
Atom  24H    basis set group =>   2
Atom  25H    basis set group =>   2
Atom  26H    basis set group =>   2
Atom  27H    basis set group =>   2
Atom  28H    basis set group =>   2
Atom  29H    basis set group =>   2
Atom  30H    basis set group =>   2
---------------------------------
AUXILIARY/J BASIS SET INFORMATION
---------------------------------
There are 3 groups of distinct atoms

 Group   1 Type C   : 12s5p4d2f1g contracted to 6s4p3d1f1g pattern {711111/2111/211/2/1}
 Group   2 Type H   : 5s2p1d contracted to 3s1p1d pattern {311/2/1}
 Group   3 Type O   : 12s5p4d2f1g contracted to 6s4p3d1f1g pattern {711111/2111/211/2/1}

Atom   0C    basis set group =>   1
Atom   1C    basis set group =>   1
Atom   2H    basis set group =>   2
Atom   3C    basis set group =>   1
Atom   4C    basis set group =>   1
Atom   5C    basis set group =>   1
Atom   6H    basis set group =>   2
Atom   7C    basis set group =>   1
Atom   8H    basis set group =>   2
Atom   9C    basis set group =>   1
Atom  10O    basis set group =>   3
Atom  11C    basis set group =>   1
Atom  12C    basis set group =>   1
Atom  13C    basis set group =>   1
Atom  14H    basis set group =>   2
Atom  15H    basis set group =>   2
Atom  16H    basis set group =>   2
Atom  17H    basis set group =>   2
Atom  18H    basis set group =>   2
Atom  19H    basis set group =>   2
Atom  20H    basis set group =>   2
Atom  21H    basis set group =>   2
Atom  22H    basis set group =>   2
Atom  23H    basis set group =>   2
Atom  24H    basis set group =>   2
Atom  25H    basis set group =>   2
Atom  26H    basis set group =>   2
Atom  27H    basis set group =>   2
Atom  28H    basis set group =>   2
Atom  29H    basis set group =>   2
Atom  30H    basis set group =>   2

Checking for AutoStart:
The File: sp_solv.gbw exists
Trying to determine its content:
     ... Fine, the file contains calculation information
     ... Fine, the calculation information was read
     ... Fine, the file contains a basis set
     ... Fine, the basis set was read
     ... Fine, the file contains a geometry
     ... Fine, the geometry was read
     ... Fine, the file contains a set of orbitals
     ... Fine, the orbitals can be read
     => possible old guess file was deleted
     => GBW file was renamed to GES file
     => GES file is set as startup file
     => Guess is set to MORead
     ... now leaving AutoStart

------------------------------------------------------------------------------
                             ORCA STARTUP CALCULATIONS
                           -- RI-GTO INTEGRALS CHOSEN --
------------------------------------------------------------------------------
------------------------------------------------------------------------------
                   ___                                                        
                  /   \      - P O W E R E D   B Y -                         
                 /     \                                                     
                 |  |  |   _    _      __       _____    __    __             
                 |  |  |  | |  | |    /  \     |  _  \  |  |  /  |          
                  \  \/   | |  | |   /    \    | | | |  |  | /  /          
                 / \  \   | |__| |  /  /\  \   | |_| |  |  |/  /          
                |  |  |   |  __  | /  /__\  \  |    /   |      \           
                |  |  |   | |  | | |   __   |  |    \   |  |\   \          
                \     /   | |  | | |  |  |  |  | |\  \  |  | \   \       
                 \___/    |_|  |_| |__|  |__|  |_| \__\ |__|  \__/        
                                                                              
                      - O R C A' S   B I G   F R I E N D -                    
                                      &                                       
                       - I N T E G R A L  F E E D E R -                       
                                                                              
 v1 FN, 2020, v2 2021, v3 2022-2024                                           
------------------------------------------------------------------------------


----------------------
SHARK INTEGRAL PACKAGE
----------------------

Number of atoms                             ...     31
Number of basis functions                   ...    314
Number of shells                            ...    160
Maximum angular momentum                    ...      2
Integral batch strategy                     ... SHARK/LIBINT Hybrid
RI-J (if used) integral strategy            ... SPLIT-RIJ (Revised 2003 algorithm where possible)
Printlevel                                  ...      1
Contraction scheme used                     ... SEGMENTED contraction
Prescreening option                         ... SCHWARTZ
   Thresh                                   ... 1.000e-10
   Tcut                                     ... 1.000e-11
   Tpresel                                  ... 1.000e-11 
Coulomb Range Separation                    ... NOT USED
Exchange Range Separation                   ... NOT USED
Multipole approximations                    ... NOT USED
Finite Nucleus Model                        ... NOT USED
CABS basis                                  ... NOT available
Auxiliary Coulomb fitting basis             ... AVAILABLE
   # of basis functions in Aux-J            ...    759
   # of shells in Aux-J                     ...    265
   Maximum angular momentum in Aux-J        ...      4
Auxiliary J/K fitting basis                 ... NOT available
Auxiliary Correlation fitting basis         ... NOT available
Auxiliary 'external' fitting basis          ... NOT available

Checking pre-screening integrals            ... done (  0.0 sec) Dimension = 160
Check shell pair data                       ... done (  0.0 sec)
Shell pair information
Shell pair cut-off parameter TPreSel        ...   1.0e-11
Total number of shell pairs                 ...     12880
Shell pairs after pre-screening             ...     10968
Total number of primitive shell pairs       ...     45152
Primitive shell pairs kept                  ...     26449
          la=0 lb=0:   3857 shell pairs
          la=1 lb=0:   4298 shell pairs
          la=1 lb=1:   1225 shell pairs
          la=2 lb=0:    975 shell pairs
          la=2 lb=1:    542 shell pairs
          la=2 lb=2:     71 shell pairs

Calculating one electron integrals          ... done (  0.1 sec)
Calculating RI/J V-Matrix + Cholesky decomp.... done (  0.1 sec)
Calculating Nuclear repulsion               ... done (  0.0 sec) ENN=    692.240417274751 Eh

Diagonalization of the overlap matrix:
Smallest eigenvalue                        ... 4.816e-05
Time for diagonalization                   ...    0.008 sec
Threshold for overlap eigenvalues          ... 1.000e-07
Number of eigenvalues below threshold      ... 0
Time for construction of square roots      ...    0.021 sec
Total time needed                          ...    0.038 sec

-------------------
DFT GRID GENERATION
-------------------

General Integration Accuracy     IntAcc      ... 4.388
Radial Grid Type                 RadialGrid  ... OptM3 with GC (2021)
Angular Grid (max. ang.)         AngularGrid ... 4 (Lebedev-302)
Angular grid pruning method      GridPruning ... 4 (adaptive)
Weight generation scheme         WeightScheme... mBecke (2022)
Basis function cutoff            BFCut       ... 1.0000e-10
Integration weight cutoff        WCut        ... 1.0000e-14
Partially contracted basis set               ... off
Rotationally invariant grid construction     ... off
Angular grids for H and He will be reduced by one unit
Diffuse basis detected: some atoms will have their outermost
                        angular grid increased by 1.

Total number of grid points                  ...   128922
Total number of batches                      ...     2033
Average number of points per batch           ...       63
Average number of grid points per atom       ...     4159
Initializing property integral containers    ... done (  0.1 sec)

SHARK setup successfully completed in   1.9 seconds

Maximum memory used throughout the entire STARTUP-calculation: 59.9 MB
-------------------------------------------------------------------------------
                                 ORCA GUESS
                   Start orbitals & Density for SCF / CASSCF
-------------------------------------------------------------------------------

------------
SCF SETTINGS
------------
Hamiltonian:
 Density Functional     Method          .... DFT(GTOs)
  Functional kind                       .... Exchange
  Functional name                       .... Re-regularized SCAN exchange by Furness et al
  Functional family                     .... MGGA
  Functional refs                              
    [ 0] J. W. Furness, A. D. Kaplan, J. Ning, J. P. Perdew, and J. Sun.,  J. Phys. Chem. Lett. 11, 8208-8215 (2020), doi: 10.1021/acs.jpclett.0c02405
    [ 1] J. W. Furness, A. D. Kaplan, J. Ning, J. P. Perdew, and J. Sun.,  J. Phys. Chem. Lett. 11, 9248-9248 (2020), doi: 10.1021/acs.jpclett.0c03077
  Functional external parameters        .... 6
    Parameter  0 _c1        =  6.670000e-01 : c1 parameter        
    Parameter  1 _c2        =  8.000000e-01 : c2 parameter        
    Parameter  2 _d         =  1.240000e+00 : d parameter         
    Parameter  3 _k1        =  6.500000e-02 : k1 parameter        
    Parameter  4 _eta       =  1.000000e-03 : eta parameter       
    Parameter  5 _dp2       =  3.610000e-01 : dp2 parameter       
  Functional kind                       .... Correlation
  Functional name                       .... Re-regularized SCAN correlation by Furness et al
  Functional family                     .... MGGA
  Functional refs                              
    [ 0] J. W. Furness, A. D. Kaplan, J. Ning, J. P. Perdew, and J. Sun.,  J. Phys. Chem. Lett. 11, 8208-8215 (2020), doi: 10.1021/acs.jpclett.0c02405
    [ 1] J. W. Furness, A. D. Kaplan, J. Ning, J. P. Perdew, and J. Sun.,  J. Phys. Chem. Lett. 11, 9248-9248 (2020), doi: 10.1021/acs.jpclett.0c03077
  Functional external parameters        .... 1
    Parameter  0 _eta       =  1.000000e-03 : Regularization parameter
 Gradients option       PostSCFGGA      .... off
 RI-approximation to the Coulomb term is turned on
   Number of AuxJ basis functions       .... 759


General Settings:
 Integral files         IntName         .... sp_solv
 Hartree-Fock type      HFTyp           .... RHF
 Total Charge           Charge          ....    0
 Multiplicity           Mult            ....    1
 Number of Electrons    NEL             ....   88
 Basis Dimension        Dim             ....  314
 Nuclear Repulsion      ENuc            ....    692.2404172748 Eh

Convergence Acceleration:
 AO-DIIS                CNVDIIS         .... on
   Start iteration      DIISMaxIt       ....    12
   Startup error        DIISStart       ....  0.200000
   # of expansion vecs  DIISMaxEq       ....     5
   Bias factor          DIISBfac        ....   1.050
   Max. coefficient     DIISMaxC        ....  10.000
 MO-DIIS                CNVKDIIS        .... off
 Trust-Rad. Augm. Hess. CNVTRAH         .... auto
   Auto Start mean grad. ratio tolernc. ....  1.125000
   Auto Start start iteration           ....     1
   Auto Start num. interpolation iter.  ....    10
   Max. Number of Micro iterations      ....    24
   Max. Number of Macro iterations      .... Maxiter - #DIIS iter
   Number of Davidson start vectors     ....     2
   Converg. threshold    (grad. norm)   ....   3.330e-04
   Grad. Scal. Fac. for Micro threshold ....   0.100
   Minimum threshold for Micro iter.    ....   1.000e-02
   NR start threshold (gradient norm)   ....   1.000e-04
   Initial trust radius                 ....   0.400
   Minimum AH scaling param. (alpha)    ....   1.000
   Maximum AH scaling param. (alpha)    .... 1000.000
   Quad. conv. algorithm                .... NR
   White noise on init. David. guess    .... on
   Maximum white noise                  ....   0.010
   Pseudo random numbers                .... off
   Inactive MOs                         .... canonical
   Orbital update algorithm             .... Taylor
   Preconditioner                       .... Diag
   Full preconditioner red. dimension   ....   250
   COSX micro iterations for RIJONX calc.... off
 SOSCF                  CNVSOSCF        .... on
   Start iteration      SOSCFMaxIt      ....   150
   Startup grad/error   SOSCFStart      ....  0.003300
   Hessian update       SOSCFHessUp     .... L-BFGS
 Level Shifting         CNVShift        .... on
   Level shift para.    LevelShift      ....    0.2500
   Turn off err/grad.   ShiftErr        ....    0.0010
 Zerner damping         CNVZerner       .... off
 Static damping         CNVDamp         .... on
   Fraction old density DampFac         ....    0.7000
   Max. Damping (<1)    DampMax         ....    0.9800
   Min. Damping (>=0)   DampMin         ....    0.0000
   Turn off err/grad.   DampErr         ....    0.1000

SCF Procedure:
 Maximum # iterations   MaxIter         ....   125
 SCF integral mode      SCFMode         .... Direct
   Integral package                     .... SHARK and LIBINT hybrid scheme
 Reset frequency        DirectResetFreq ....    20
 Integral Threshold     Thresh          ....  1.000e-10 Eh
 Primitive CutOff       TCut            ....  1.000e-11 Eh

Convergence Tolerance:
 Convergence Check Mode ConvCheckMode   .... Total+1el-Energy
 Convergence forced     ConvForced      .... 0
 Energy Change          TolE            ....  1.000e-06 Eh
 1-El. energy change                    ....  1.000e-03 Eh
 Orbital Gradient       TolG            ....  3.330e-04
 Orbital Rotation angle TolX            ....  3.330e-04
 DIIS Error             TolErr          ....  1.000e-06

---------------------
INITIAL GUESS: MOREAD
---------------------
Guess MOs are being read from file: sp_solv.ges
Input Geometry matches current geometry (good)
Atom 0: N(Shells)= 9 and 6 - projection required
Input basis set needs projection
NBasis(read)= 194
NBasis(calc)= 314
Basis set overlap was calculated
Using GuessMode=FMatrix for the initial guess
C*T matrix was formed
Effective Fockian was calculated
Effective Fockian was diagonalized
Initial density was built
                      ------------------
                      INITIAL GUESS DONE (   0.1 sec)
                      ------------------
             **** ENERGY FILE WAS UPDATED (sp_solv.en.tmp) ****
Finished Guess after   0.3 sec
Maximum memory used throughout the entire GUESS-calculation: 26.3 MB

-------------------------------------------------------------------------------------------
                                      ORCA LEAN-SCF
                              memory conserving SCF solver
-------------------------------------------------------------------------------------------

--------------------
CPCM SOLVATION MODEL
--------------------
CPCM parameters:
  Epsilon                                         ...      78.3550
  Refrac                                          ...       1.3328
  Rsolv                                           ...       1.3000
  Surface type                                    ... GAUSSIAN VDW
  Discretization scheme                           ... Constant charge density
    Threshold for H atoms                         ...       5.0000 (charges/Ang^2)
    Threshold for non-H atoms                     ...       5.0000 (charges/Ang^2)
  Epsilon function type                           ...         CPCM
Solvent:                                          ... WATER
SMD-CDS solvent descriptors:
  Soln                                            ...       1.3328
  Soln25                                          ...       1.3323
  Sola                                            ...       0.0000
  Solb                                            ...       0.0000
  Solg                                            ...       0.0000
  Solc                                            ...       0.0000
  Solh                                            ...       0.0000
Radii:
  Scheme                                          ... Element-dependent radii
  Radius for C  used is    3.4960 Bohr (=   1.8500 Ang.)
  Radius for H  used is    2.2677 Bohr (=   1.2000 Ang.)
  Radius for O  used is    2.8724 Bohr (=   1.5200 Ang.)
Calculating surface                               ...        done! (  0.0s)
Cavity surface points                             ...         2121
Cavity Volume                                     ...    1240.7274
Cavity Surface-area                               ...     756.9660
Calculating surface distance matrix               ...        done! (  0.0s)
Performing Cholesky decomposition & store         ...        done! (  0.3s)
Overall time for CPCM initialization              ...                 0.3s

----------------------------------------D-I-I-S--------------------------------------------
Iteration    Energy (Eh)           Delta-E    RMSDP     MaxDP     DIISErr   Damp  Time(sec)
-------------------------------------------------------------------------------------------
               ***  Starting incremental Fock matrix formation  ***
    1    -467.9678485673721298     0.00e+00  7.70e-03  4.44e-01  6.27e-01  0.700   6.4
    2    -468.0443012295679637    -7.65e-02  5.66e-03  2.91e-01  4.41e-01  0.700   5.6
    3    -468.0984846762733014    -5.42e-02  4.01e-03  1.97e-01  3.10e-01  0.700   5.5
    4    -468.1365748370103574    -3.81e-02  2.82e-03  1.35e-01  2.17e-01  0.700   5.5
                               ***Turning on AO-DIIS***
    5    -468.1633197302360259    -2.67e-02  1.99e-03  9.22e-02  1.52e-01  0.700   5.4
    6    -468.1820818520793637    -1.88e-02  1.40e-03  6.41e-02  1.06e-01  0.700   5.2
    7    -468.1952439895374027    -1.32e-02  9.85e-04  4.48e-02  7.42e-02  0.700   5.1
    8    -468.2044705298458211    -9.23e-03  2.30e-03  1.04e-01  5.20e-02  0.000   5.1
                              *** Initializing SOSCF ***
---------------------------------------S-O-S-C-F--------------------------------------
Iteration    Energy (Eh)           Delta-E    RMSDP     MaxDP     MaxGrad    Time(sec)
--------------------------------------------------------------------------------------
    9    -468.2260452311231802    -2.16e-02  1.49e-05  8.27e-04  1.44e-04     5.3
               *** Restarting incremental Fock matrix formation ***
   10    -468.2260454385116191    -2.07e-07  9.72e-06  4.24e-04  2.42e-05     6.3
                  *** Gradient check signals convergence ***

               *****************************************************
               *                     SUCCESS                       *
               *           SCF CONVERGED AFTER  10 CYCLES          *
               *****************************************************


SMD CDS free energy correction energy :                 4.29301     Kcal/mol
Total Energy after SMD CDS correction =              -468.219204095 Eh
             **** ENERGY FILE WAS UPDATED (sp_solv.en.tmp) ****

----------------
TOTAL SCF ENERGY
----------------

Total Energy       :       -468.21920409497091 Eh          -12740.89228 eV

Components:
Nuclear Repulsion  :        692.24041727475128 Eh           18836.81940 eV
Electronic Energy  :      -1160.45147769139840 Eh          -31577.49008 eV
One Electron Energy:      -2006.38681344571751 Eh          -54596.56083 eV
Two Electron Energy:        845.93533575431923 Eh           23019.07075 eV
CPCM Dielectric    :         -0.01498502186479 Eh              -0.40776 eV
SMD CDS (Gcds)     :          0.00684134354073 Eh               0.18616 eV

Virial components:
Potential Energy   :       -934.29611919943557 Eh          -25423.48991 eV
Kinetic Energy     :        466.07691510446466 Eh           12682.59763 eV
Virial Ratio       :          2.00459642801666

DFT components:
N(Alpha)           :       44.000142433162 electrons
N(Beta)            :       44.000142433162 electrons
N(Total)           :       88.000284866323 electrons
E(X)               :      -67.517725243995 Eh       
E(C)               :       -2.781574326245 Eh       
E(XC)              :      -70.299299570240 Eh       

CPCM Solvation Model Properties:
Surface-charge          :         -0.05925597030176
Corrected charge        :          0.00000000000000
Outlying charge corr.   :          0.00023962807515 Eh               0.00652 eV
Free-energy (cav+disp)  :          0.00684134354073 Eh               0.18616 eV

---------------
SCF CONVERGENCE
---------------

  Last Energy change         ...    2.0739e-07  Tolerance :   1.0000e-06
  Last MAX-Density change    ...    4.2409e-04  Tolerance :   1.0000e-05
  Last RMS-Density change    ...    9.7209e-06  Tolerance :   1.0000e-06
  Last DIIS Error            ...    1.4388e-04  Tolerance :   1.0000e-06
  Last Orbital Gradient      ...    2.4169e-05  Tolerance :   3.3300e-04
  Last Orbital Rotation      ...    4.6978e-05  Tolerance :   3.3300e-04


----------------
ORBITAL ENERGIES
----------------

  NO   OCC          E(Eh)            E(eV) 
   0   2.0000     -18.948320      -515.6100 
   1   2.0000     -10.069515      -274.0054 
   2   2.0000     -10.024396      -272.7777 
   3   2.0000     -10.023448      -272.7519 
   4   2.0000     -10.018677      -272.6221 
   5   2.0000     -10.012953      -272.4663 
   6   2.0000     -10.012776      -272.4615 
   7   2.0000     -10.011930      -272.4385 
   8   2.0000     -10.006467      -272.2898 
   9   2.0000     -10.005696      -272.2688 
  10   2.0000     -10.005549      -272.2648 
  11   2.0000      -0.984440       -26.7880 
  12   2.0000      -0.798239       -21.7212 
  13   2.0000      -0.760086       -20.6830 
  14   2.0000      -0.703886       -19.1537 
  15   2.0000      -0.692903       -18.8549 
  16   2.0000      -0.641326       -17.4514 
  17   2.0000      -0.632903       -17.2222 
  18   2.0000      -0.569990       -15.5102 
  19   2.0000      -0.561588       -15.2816 
  20   2.0000      -0.523341       -14.2408 
  21   2.0000      -0.503469       -13.7001 
  22   2.0000      -0.471160       -12.8209 
  23   2.0000      -0.433403       -11.7935 
  24   2.0000      -0.419736       -11.4216 
  25   2.0000      -0.409160       -11.1338 
  26   2.0000      -0.406489       -11.0611 
  27   2.0000      -0.384694       -10.4681 
  28   2.0000      -0.373784       -10.1712 
  29   2.0000      -0.367206        -9.9922 
  30   2.0000      -0.359032        -9.7698 
  31   2.0000      -0.344884        -9.3848 
  32   2.0000      -0.343262        -9.3406 
  33   2.0000      -0.333468        -9.0741 
  34   2.0000      -0.322603        -8.7785 
  35   2.0000      -0.305923        -8.3246 
  36   2.0000      -0.302166        -8.2223 
  37   2.0000      -0.293585        -7.9888 
  38   2.0000      -0.290057        -7.8929 
  39   2.0000      -0.285337        -7.7644 
  40   2.0000      -0.278660        -7.5827 
  41   2.0000      -0.264872        -7.2075 
  42   2.0000      -0.254471        -6.9245 
  43   2.0000      -0.229734        -6.2514 
  44   0.0000       0.067121         1.8265 
  45   0.0000       0.090008         2.4492 
  46   0.0000       0.099713         2.7133 
  47   0.0000       0.111680         3.0390 
  48   0.0000       0.123879         3.3709 
  49   0.0000       0.128195         3.4884 
  50   0.0000       0.134834         3.6690 
  51   0.0000       0.139762         3.8031 
  52   0.0000       0.143885         3.9153 
  53   0.0000       0.148811         4.0494 
  54   0.0000       0.155791         4.2393 
*Only the first 10 virtual orbitals were printed.

                    ********************************
                    * MULLIKEN POPULATION ANALYSIS *
                    ********************************

-----------------------
MULLIKEN ATOMIC CHARGES
-----------------------
   0 C :   -0.552200
   1 C :   -0.014451
   2 H :    0.169621
   3 C :   -0.359936
   4 C :   -0.403140
   5 C :   -0.032393
   6 H :    0.181676
   7 C :   -0.088376
   8 H :    0.172174
   9 C :   -0.394290
  10 O :   -0.512738
  11 C :   -0.002580
  12 C :   -0.564199
  13 C :   -0.557620
  14 H :    0.158874
  15 H :    0.163316
  16 H :    0.158823
  17 H :    0.165067
  18 H :    0.155118
  19 H :    0.162973
  20 H :    0.174924
  21 H :    0.172729
  22 H :    0.156833
  23 H :    0.346812
  24 H :    0.159114
  25 H :    0.168081
  26 H :    0.158962
  27 H :    0.160421
  28 H :    0.166777
  29 H :    0.162382
  30 H :    0.167247
Sum of atomic charges:    0.0000000

--------------------------------
MULLIKEN REDUCED ORBITAL CHARGES
--------------------------------
  0 C s       :     3.373924  s :     3.373924
      pz      :     1.082036  p :     3.151168
      px      :     0.954963
      py      :     1.114169
      dz2     :     0.007689  d :     0.027108
      dxz     :     0.004240
      dyz     :     0.002361
      dx2y2   :     0.005427
      dxy     :     0.007391

  1 C s       :     3.080711  s :     3.080711
      pz      :     1.059178  p :     2.887130
      px      :     0.904259
      py      :     0.923693
      dz2     :     0.012078  d :     0.046610
      dxz     :     0.005932
      dyz     :     0.006105
      dx2y2   :     0.011394
      dxy     :     0.011100

  2 H s       :     0.812993  s :     0.812993
      pz      :     0.010856  p :     0.017387
      px      :     0.003236
      py      :     0.003295

  3 C s       :     3.267375  s :     3.267375
      pz      :     1.035327  p :     3.055385
      px      :     0.953684
      py      :     1.066374
      dz2     :     0.010360  d :     0.037175
      dxz     :     0.005196
      dyz     :     0.003828
      dx2y2   :     0.009041
      dxy     :     0.008751

  4 C s       :     3.283573  s :     3.283573
      pz      :     1.056534  p :     3.082710
      px      :     0.996560
      py      :     1.029616
      dz2     :     0.009945  d :     0.036857
      dxz     :     0.004846
      dyz     :     0.004410
      dx2y2   :     0.008424
      dxy     :     0.009233

  5 C s       :     3.071649  s :     3.071649
      pz      :     1.055320  p :     2.916366
      px      :     0.956472
      py      :     0.904575
      dz2     :     0.011531  d :     0.044377
      dxz     :     0.005395
      dyz     :     0.006100
      dx2y2   :     0.010386
      dxy     :     0.010966

  6 H s       :     0.800947  s :     0.800947
      pz      :     0.010830  p :     0.017377
      px      :     0.003280
      py      :     0.003268

  7 C s       :     3.287072  s :     3.287072
      pz      :     1.035426  p :     2.734107
      px      :     0.931485
      py      :     0.767196
      dz2     :     0.015666  d :     0.067196
      dxz     :     0.006621
      dyz     :     0.012166
      dx2y2   :     0.018091
      dxy     :     0.014653

  8 H s       :     0.810734  s :     0.810734
      pz      :     0.011431  p :     0.017091
      px      :     0.003262
      py      :     0.002398

  9 C s       :     3.266032  s :     3.266032
      pz      :     1.066807  p :     3.092167
      px      :     0.964086
      py      :     1.061275
      dz2     :     0.009779  d :     0.036091
      dxz     :     0.004479
      dyz     :     0.004851
      dx2y2   :     0.009187
      dxy     :     0.007794

 10 O s       :     3.765306  s :     3.765306
      pz      :     1.794402  p :     4.725489
      px      :     1.478696
      py      :     1.452391
      dz2     :     0.005566  d :     0.021943
      dxz     :     0.004941
      dyz     :     0.003064
      dx2y2   :     0.005204
      dxy     :     0.003168

 11 C s       :     3.074041  s :     3.074041
      pz      :     0.882088  p :     2.882421
      px      :     0.938027
      py      :     1.062306
      dz2     :     0.011540  d :     0.046118
      dxz     :     0.009401
      dyz     :     0.007521
      dx2y2   :     0.010812
      dxy     :     0.006844

 12 C s       :     3.379202  s :     3.379202
      pz      :     1.050565  p :     3.157783
      px      :     1.076236
      py      :     1.030982
      dz2     :     0.008642  d :     0.027215
      dxz     :     0.003009
      dyz     :     0.003655
      dx2y2   :     0.008983
      dxy     :     0.002926

 13 C s       :     3.363138  s :     3.363138
      pz      :     0.959062  p :     3.167384
      px      :     1.115586
      py      :     1.092736
      dz2     :     0.007073  d :     0.027098
      dxz     :     0.005189
      dyz     :     0.006018
      dx2y2   :     0.006649
      dxy     :     0.002169

 14 H s       :     0.822828  s :     0.822828
      pz      :     0.004329  p :     0.018298
      px      :     0.004881
      py      :     0.009088

 15 H s       :     0.818418  s :     0.818418
      pz      :     0.010925  p :     0.018266
      px      :     0.003609
      py      :     0.003732

 16 H s       :     0.822866  s :     0.822866
      pz      :     0.004875  p :     0.018311
      px      :     0.005561
      py      :     0.007875

 17 H s       :     0.817174  s :     0.817174
      pz      :     0.010932  p :     0.017759
      px      :     0.003458
      py      :     0.003370

 18 H s       :     0.826996  s :     0.826996
      pz      :     0.004162  p :     0.017886
      px      :     0.004578
      py      :     0.009146

 19 H s       :     0.818784  s :     0.818784
      pz      :     0.004634  p :     0.018243
      px      :     0.005566
      py      :     0.008042

 20 H s       :     0.807110  s :     0.807110
      pz      :     0.010978  p :     0.017966
      px      :     0.003547
      py      :     0.003441

 21 H s       :     0.809486  s :     0.809486
      pz      :     0.010958  p :     0.017785
      px      :     0.003397
      py      :     0.003431

 22 H s       :     0.825280  s :     0.825280
      pz      :     0.004675  p :     0.017887
      px      :     0.005157
      py      :     0.008055

 23 H s       :     0.609844  s :     0.609844
      pz      :     0.013005  p :     0.043344
      px      :     0.021202
      py      :     0.009137

 24 H s       :     0.823229  s :     0.823229
      pz      :     0.003750  p :     0.017658
      px      :     0.004035
      py      :     0.009873

 25 H s       :     0.813502  s :     0.813502
      pz      :     0.003915  p :     0.018418
      px      :     0.004088
      py      :     0.010414

 26 H s       :     0.822750  s :     0.822750
      pz      :     0.010425  p :     0.018289
      px      :     0.004037
      py      :     0.003826

 27 H s       :     0.821294  s :     0.821294
      pz      :     0.003701  p :     0.018284
      px      :     0.010774
      py      :     0.003810

 28 H s       :     0.814811  s :     0.814811
      pz      :     0.003963  p :     0.018412
      px      :     0.003938
      py      :     0.010512

 29 H s       :     0.819350  s :     0.819350
      pz      :     0.003762  p :     0.018268
      px      :     0.010515
      py      :     0.003992

 30 H s       :     0.814303  s :     0.814303
      pz      :     0.006597  p :     0.018451
      px      :     0.005831
      py      :     0.006023


------------------------
MULLIKEN OVERLAP CHARGES
------------------------
B(  0-C ,  1-C ) :   0.4040 B(  0-C ,  3-C ) :  -0.1889 B(  0-C ,  9-C ) :  -0.1639 
B(  0-C , 14-H ) :   0.8141 B(  0-C , 15-H ) :   0.9017 B(  0-C , 16-H ) :   0.8170 
B(  1-C ,  2-H ) :   0.8301 B(  1-C ,  3-C ) :   0.4565 B(  1-C ,  4-C ) :  -0.2533 
B(  1-C ,  5-C ) :   0.1739 B(  1-C ,  7-C ) :  -0.1342 B(  1-C ,  9-C ) :   0.3136 
B(  1-C , 14-H ) :  -0.0764 B(  1-C , 15-H ) :  -0.1174 B(  1-C , 16-H ) :  -0.0786 
B(  1-C , 17-H ) :  -0.1568 B(  1-C , 21-H ) :  -0.1231 B(  2-H ,  3-C ) :  -0.0636 
B(  2-H ,  9-C ) :  -0.0720 B(  3-C ,  4-C ) :   0.1280 B(  3-C ,  5-C ) :  -0.1969 
B(  3-C ,  7-C ) :   0.1569 B(  3-C ,  9-C ) :  -0.4529 B(  3-C , 17-H ) :   0.9382 
B(  3-C , 18-H ) :   0.7099 B(  3-C , 20-H ) :  -0.0625 B(  4-C ,  5-C ) :  -0.1336 
B(  4-C ,  6-H ) :  -0.0952 B(  4-C ,  7-C ) :  -0.1382 B(  4-C ,  9-C ) :   0.1971 
B(  4-C , 10-O ) :   0.0554 B(  4-C , 17-H ) :  -0.1040 B(  4-C , 19-H ) :   0.7294 
B(  4-C , 20-H ) :   0.8624 B(  5-C ,  6-H ) :   0.9737 B(  5-C ,  7-C ) :  -0.0627 
B(  5-C ,  8-H ) :  -0.1622 B(  5-C ,  9-C ) :  -0.2307 B(  5-C , 10-O ) :  -0.2007 
B(  5-C , 11-C ) :  -0.2729 B(  5-C , 12-C ) :  -0.1852 B(  5-C , 13-C ) :  -0.0723 
B(  5-C , 19-H ) :  -0.0544 B(  5-C , 20-H ) :  -0.0813 B(  5-C , 23-H ) :  -0.0500 
B(  5-C , 24-H ) :  -0.1641 B(  6-H ,  7-C ) :  -0.0858 B(  6-H , 11-C ) :  -0.1296 
B(  7-C ,  8-H ) :   0.9317 B(  7-C ,  9-C ) :   0.2295 B(  7-C , 10-O ) :   0.2572 
B(  7-C , 21-H ) :  -0.1393 B(  8-H ,  9-C ) :  -0.0677 B(  8-H , 10-O ) :  -0.1111 
B(  9-C , 21-H ) :   0.9543 B(  9-C , 22-H ) :   0.7122 B( 10-O , 23-H ) :   0.6270 
B( 11-C , 12-C ) :   0.4689 B( 11-C , 13-C ) :   0.2841 B( 11-C , 20-H ) :  -0.0516 
B( 11-C , 24-H ) :   0.9219 B( 11-C , 25-H ) :  -0.0803 B( 11-C , 26-H ) :  -0.1023 
B( 11-C , 27-H ) :  -0.1028 B( 11-C , 28-H ) :  -0.0749 B( 11-C , 29-H ) :  -0.1018 
B( 11-C , 30-H ) :  -0.0893 B( 12-C , 13-C ) :  -0.1992 B( 12-C , 25-H ) :   0.8846 
B( 12-C , 26-H ) :   0.8283 B( 12-C , 27-H ) :   0.8149 B( 13-C , 24-H ) :  -0.0759 
B( 13-C , 28-H ) :   0.8488 B( 13-C , 29-H ) :   0.8186 B( 13-C , 30-H ) :   0.8204 



                     *******************************
                     * LOEWDIN POPULATION ANALYSIS *
                     *******************************

----------------------
LOEWDIN ATOMIC CHARGES
----------------------
   0 C :   -0.420953
   1 C :   -0.229256
   2 H :    0.162127
   3 C :   -0.294150
   4 C :   -0.287962
   5 C :   -0.198779
   6 H :    0.172507
   7 C :    0.068412
   8 H :    0.174938
   9 C :   -0.260317
  10 O :   -0.648512
  11 C :   -0.232257
  12 C :   -0.421333
  13 C :   -0.421612
  14 H :    0.155801
  15 H :    0.156565
  16 H :    0.155817
  17 H :    0.161303
  18 H :    0.159616
  19 H :    0.163536
  20 H :    0.165173
  21 H :    0.168927
  22 H :    0.166734
  23 H :    0.283261
  24 H :    0.162448
  25 H :    0.155315
  26 H :    0.156292
  27 H :    0.155659
  28 H :    0.157155
  29 H :    0.156421
  30 H :    0.157124

-------------------------------
LOEWDIN REDUCED ORBITAL CHARGES
-------------------------------
  0 C s       :     2.970488  s :     2.970488
      pz      :     1.153181  p :     3.386970
      px      :     1.077378
      py      :     1.156411
      dz2     :     0.018836  d :     0.063496
      dxz     :     0.009031
      dyz     :     0.006011
      dx2y2   :     0.012867
      dxy     :     0.016751

  1 C s       :     2.899153  s :     2.899153
      pz      :     1.119476  p :     3.233642
      px      :     1.051832
      py      :     1.062334
      dz2     :     0.026896  d :     0.096461
      dxz     :     0.011167
      dyz     :     0.012184
      dx2y2   :     0.023792
      dxy     :     0.022422

  2 H s       :     0.794608  s :     0.794608
      pz      :     0.027013  p :     0.043265
      px      :     0.008082
      py      :     0.008171

  3 C s       :     2.928416  s :     2.928416
      pz      :     1.127795  p :     3.284856
      px      :     1.059958
      py      :     1.097103
      dz2     :     0.023783  d :     0.080878
      dxz     :     0.010402
      dyz     :     0.008276
      dx2y2   :     0.019698
      dxy     :     0.018719

  4 C s       :     2.920074  s :     2.920074
      pz      :     1.133918  p :     3.287510
      px      :     1.067051
      py      :     1.086542
      dz2     :     0.022912  d :     0.080378
      dxz     :     0.009607
      dyz     :     0.009496
      dx2y2   :     0.018493
      dxy     :     0.019870

  5 C s       :     2.901543  s :     2.901543
      pz      :     1.111839  p :     3.205401
      px      :     1.051657
      py      :     1.041906
      dz2     :     0.025522  d :     0.091835
      dxz     :     0.010212
      dyz     :     0.012286
      dx2y2   :     0.021885
      dxy     :     0.021929

  6 H s       :     0.783702  s :     0.783702
      pz      :     0.027312  p :     0.043791
      px      :     0.008475
      py      :     0.008004

  7 C s       :     2.831977  s :     2.831977
      pz      :     1.059232  p :     2.954827
      px      :     1.006856
      py      :     0.888739
      dz2     :     0.035992  d :     0.144784
      dxz     :     0.011669
      dyz     :     0.026391
      dx2y2   :     0.040583
      dxy     :     0.030149

  8 H s       :     0.783744  s :     0.783744
      pz      :     0.027137  p :     0.041318
      px      :     0.008132
      py      :     0.006049

  9 C s       :     2.925270  s :     2.925270
      pz      :     1.130980  p :     3.256863
      px      :     1.038758
      py      :     1.087125
      dz2     :     0.022294  d :     0.078184
      dxz     :     0.009061
      dyz     :     0.010220
      dx2y2   :     0.019452
      dxy     :     0.017156

 10 O s       :     3.506701  s :     3.506701
      pz      :     1.797709  p :     4.846530
      px      :     1.509872
      py      :     1.538950
      dz2     :     0.049570  d :     0.295280
      dxz     :     0.025186
      dyz     :     0.059969
      dx2y2   :     0.087339
      dxy     :     0.073216

 11 C s       :     2.902341  s :     2.902341
      pz      :     1.067225  p :     3.235346
      px      :     1.059997
      py      :     1.108124
      dz2     :     0.023880  d :     0.094570
      dxz     :     0.018179
      dyz     :     0.015214
      dx2y2   :     0.023513
      dxy     :     0.013784

 12 C s       :     2.969609  s :     2.969609
      pz      :     1.125055  p :     3.388174
      px      :     1.133848
      py      :     1.129270
      dz2     :     0.020228  d :     0.063551
      dxz     :     0.006868
      dyz     :     0.008539
      dx2y2   :     0.021184
      dxy     :     0.006731

 13 C s       :     2.965860  s :     2.965860
      pz      :     1.086338  p :     3.392425
      px      :     1.151718
      py      :     1.154369
      dz2     :     0.016714  d :     0.063327
      dxz     :     0.011445
      dyz     :     0.013202
      dx2y2   :     0.016553
      dxy     :     0.005414

 14 H s       :     0.800314  s :     0.800314
      pz      :     0.009928  p :     0.043885
      px      :     0.011441
      py      :     0.022516

 15 H s       :     0.799542  s :     0.799542
      pz      :     0.027455  p :     0.043893
      px      :     0.008197
      py      :     0.008241

 16 H s       :     0.800229  s :     0.800229
      pz      :     0.011393  p :     0.043954
      px      :     0.013245
      py      :     0.019316

 17 H s       :     0.795044  s :     0.795044
      pz      :     0.027414  p :     0.043654
      px      :     0.008136
      py      :     0.008104

 18 H s       :     0.796603  s :     0.796603
      pz      :     0.009917  p :     0.043781
      px      :     0.011175
      py      :     0.022689

 19 H s       :     0.791884  s :     0.791884
      pz      :     0.011276  p :     0.044581
      px      :     0.013518
      py      :     0.019786

 20 H s       :     0.790599  s :     0.790599
      pz      :     0.027574  p :     0.044228
      px      :     0.008368
      py      :     0.008286

 21 H s       :     0.787323  s :     0.787323
      pz      :     0.027557  p :     0.043749
      px      :     0.007867
      py      :     0.008326

 22 H s       :     0.789624  s :     0.789624
      pz      :     0.011246  p :     0.043642
      px      :     0.012213
      py      :     0.020183

 23 H s       :     0.592168  s :     0.592168
      pz      :     0.036346  p :     0.124571
      px      :     0.063471
      py      :     0.024755

 24 H s       :     0.793554  s :     0.793554
      pz      :     0.009209  p :     0.043998
      px      :     0.009837
      py      :     0.024952

 25 H s       :     0.800069  s :     0.800069
      pz      :     0.009018  p :     0.044616
      px      :     0.009441
      py      :     0.026156

 26 H s       :     0.799811  s :     0.799811
      pz      :     0.025955  p :     0.043897
      px      :     0.009202
      py      :     0.008740

 27 H s       :     0.800283  s :     0.800283
      pz      :     0.008368  p :     0.044058
      px      :     0.026921
      py      :     0.008769

 28 H s       :     0.798454  s :     0.798454
      pz      :     0.009193  p :     0.044391
      px      :     0.008865
      py      :     0.026333

 29 H s       :     0.799485  s :     0.799485
      pz      :     0.008735  p :     0.044093
      px      :     0.026298
      py      :     0.009060

 30 H s       :     0.798285  s :     0.798285
      pz      :     0.016121  p :     0.044591
      px      :     0.013973
      py      :     0.014496


---------------------------------
LOEWDIN BOND ORDERS (THRESH 0.050000)
---------------------------------
B(  0-C ,  1-C ) :   1.1086 B(  0-C ,  3-C ) :   0.0737 B(  0-C ,  9-C ) :   0.0758 
B(  0-C , 14-H ) :   0.9227 B(  0-C , 15-H ) :   0.9215 B(  0-C , 16-H ) :   0.9229 
B(  1-C ,  2-H ) :   0.8539 B(  1-C ,  3-C ) :   1.0661 B(  1-C ,  4-C ) :   0.0675 
B(  1-C ,  7-C ) :   0.0698 B(  1-C ,  9-C ) :   1.0578 B(  3-C ,  4-C ) :   1.0979 
B(  3-C ,  5-C ) :   0.0656 B(  3-C ,  9-C ) :   0.0614 B(  3-C , 17-H ) :   0.8808 
B(  3-C , 18-H ) :   0.8845 B(  4-C ,  5-C ) :   1.0464 B(  4-C ,  7-C ) :   0.0693 
B(  4-C , 11-C ) :   0.0586 B(  4-C , 19-H ) :   0.8758 B(  4-C , 20-H ) :   0.8738 
B(  5-C ,  6-H ) :   0.8376 B(  5-C ,  7-C ) :   0.9601 B(  5-C ,  9-C ) :   0.0655 
B(  5-C , 10-O ) :   0.1594 B(  5-C , 11-C ) :   1.0333 B(  5-C , 12-C ) :   0.0709 
B(  5-C , 13-C ) :   0.0571 B(  7-C ,  8-H ) :   0.7896 B(  7-C ,  9-C ) :   0.9943 
B(  7-C , 10-O ) :   1.3918 B(  7-C , 11-C ) :   0.0622 B(  8-H , 10-O ) :   0.0947 
B(  9-C , 10-O ) :   0.1884 B(  9-C , 21-H ) :   0.8686 B(  9-C , 22-H ) :   0.8727 
B( 10-O , 23-H ) :   0.9559 B( 11-C , 12-C ) :   1.1046 B( 11-C , 13-C ) :   1.1029 
B( 11-C , 24-H ) :   0.8452 B( 12-C , 13-C ) :   0.0720 B( 12-C , 25-H ) :   0.9189 
B( 12-C , 26-H ) :   0.9232 B( 12-C , 27-H ) :   0.9221 B( 13-C , 28-H ) :   0.9183 
B( 13-C , 29-H ) :   0.9222 B( 13-C , 30-H ) :   0.9179 

------------------------------------------
LOEWDIN REDUCED ORBITAL POPULATIONS PER MO
-------------------------------------------
THRESHOLD FOR PRINTING IS 0.1%%
                      0         1         2         3         4         5   
                 -18.94832 -10.06951 -10.02440 -10.02345 -10.01868 -10.01295
                   2.00000   2.00000   2.00000   2.00000   2.00000   2.00000
                  --------  --------  --------  --------  --------  --------
 1 C  s               0.0       0.0       0.0      99.6       0.0       0.0
 5 C  s               0.0       0.0       0.0       0.0      99.6       0.0
 7 C  s               0.0      99.3       0.0       0.0       0.0       0.0
 9 C  s               0.0       0.0       0.0       0.0       0.0      99.7
10 O  s              99.9       0.0       0.0       0.0       0.0       0.0
10 O  dx2y2           0.0       0.1       0.0       0.0       0.0       0.0
11 C  s               0.0       0.0      99.6       0.0       0.0       0.0

                      6         7         8         9        10        11   
                 -10.01278 -10.01193 -10.00647 -10.00570 -10.00555  -0.98444
                   2.00000   2.00000   2.00000   2.00000   2.00000   2.00000
                  --------  --------  --------  --------  --------  --------
 0 C  s               0.0       0.0      99.7       0.0       0.0       0.0
 3 C  s               0.7      99.0       0.0       0.0       0.0       0.0
 4 C  s              99.0       0.7       0.0       0.0       0.0       0.1
 4 C  py              0.0       0.0       0.0       0.0       0.0       0.1
 5 C  s               0.0       0.0       0.0       0.0       0.0       0.7
 5 C  pz              0.0       0.0       0.0       0.0       0.0       0.1
 5 C  px              0.0       0.0       0.0       0.0       0.0       0.1
 5 C  py              0.1       0.0       0.0       0.0       0.0       1.2
 7 C  s               0.0       0.0       0.0       0.0       0.0       9.2
 7 C  pz              0.0       0.0       0.0       0.0       0.0       0.9
 7 C  px              0.0       0.0       0.0       0.0       0.0       1.0
 7 C  py              0.0       0.0       0.0       0.0       0.0       6.5
 7 C  dz2             0.0       0.0       0.0       0.0       0.0       0.1
 7 C  dyz             0.0       0.0       0.0       0.0       0.0       0.2
 7 C  dx2y2           0.0       0.0       0.0       0.0       0.0       0.2
 7 C  dxy             0.0       0.0       0.0       0.0       0.0       0.2
 8 H  s               0.0       0.0       0.0       0.0       0.0       0.6
 9 C  s               0.0       0.0       0.0       0.0       0.0       0.8
 9 C  px              0.0       0.0       0.0       0.0       0.0       1.4
 9 C  py              0.0       0.0       0.0       0.0       0.0       0.2
10 O  s               0.0       0.0       0.0       0.0       0.0      60.1
10 O  pz              0.0       0.0       0.0       0.0       0.0       0.8
10 O  px              0.0       0.0       0.0       0.0       0.0       0.3
10 O  py              0.0       0.0       0.0       0.0       0.0       1.2
11 C  s               0.0       0.0       0.0       0.0       0.0       0.1
11 C  px              0.0       0.0       0.0       0.0       0.0       0.2
11 C  py              0.0       0.0       0.0       0.0       0.0       0.1
12 C  s               0.0       0.0       0.0       0.0      99.7       0.0
13 C  s               0.0       0.0       0.0      99.7       0.0       0.0
23 H  s               0.0       0.0       0.0       0.0       0.0      10.1
23 H  pz              0.0       0.0       0.0       0.0       0.0       0.3
23 H  px              0.0       0.0       0.0       0.0       0.0       1.9
23 H  py              0.0       0.0       0.0       0.0       0.0       0.1

                     12        13        14        15        16        17   
                  -0.79824  -0.76009  -0.70389  -0.69290  -0.64133  -0.63290
                   2.00000   2.00000   2.00000   2.00000   2.00000   2.00000
                  --------  --------  --------  --------  --------  --------
 0 C  s               2.9       4.8      11.8       1.3       0.0      19.3
 0 C  px              1.4       1.2       0.5       0.0       0.0       1.0
 0 C  py              0.0       0.0       0.0       0.3       0.0       0.0
 1 C  s              11.2      10.2       6.5       0.5       0.0       0.2
 1 C  pz              0.5       0.3       0.0       0.0       0.0       0.0
 1 C  px              0.7       0.1       3.8       0.2       0.0       9.1
 1 C  py              0.0       0.0       0.4       7.4       0.0       0.0
 1 C  dx2y2           0.0       0.0       0.0       0.0       0.0       0.2
 1 C  dxy             0.0       0.0       0.0       0.1       0.0       0.0
 2 H  s               1.2       1.3       1.0       0.1       0.0       0.0
 2 H  pz              0.1       0.1       0.1       0.0       0.0       0.0
 3 C  s               9.9       3.1       1.0      12.5       0.0       5.2
 3 C  pz              0.3       0.1       0.0       0.1       0.0       0.0
 3 C  px              0.3       1.0       5.1       0.2       0.0       0.0
 3 C  py              1.3       0.7       0.4       0.4       0.0       0.0
 4 C  s              10.3       0.2      11.0       7.1       0.0       0.0
 4 C  pz              0.2       0.0       0.1       0.0       0.2       0.0
 4 C  px              0.3       2.5       0.0       1.5       0.0       2.9
 4 C  py              1.3       0.4       0.3       1.1       0.0       1.4
 5 C  s              11.5       5.5       5.0       0.6       0.1       8.9
 5 C  pz              0.4       0.0       0.1       0.0       1.0       0.0
 5 C  px              0.2       4.3       3.5       0.2       0.0       0.1
 5 C  py              0.3       0.0       0.7       4.3       0.0       0.1
 6 H  s               1.3       0.7       0.8       0.1       0.2       1.9
 6 H  pz              0.1       0.1       0.1       0.0       0.0       0.2
 7 C  s               4.6       0.0       1.3      11.4       0.0       0.2
 7 C  pz              0.2       0.0       0.1       0.0       0.1       0.1
 7 C  px              0.4       2.8       0.3       2.9       0.0       3.9
 7 C  py              3.6       0.3       1.2       0.5       0.0       1.2
 8 H  s               0.5       0.0       0.2       2.0       0.0       0.0
 8 H  pz              0.0       0.0       0.0       0.2       0.0       0.0
 9 C  s               7.7       4.4       1.0      13.6       0.0       4.6
 9 C  pz              0.1       0.1       0.0       0.0       0.0       0.0
 9 C  px              0.1       0.5       2.3       1.8       0.0       0.0
 9 C  py              1.7       0.8       0.3       0.8       0.0       0.0
10 O  s               1.8       0.0       0.2       2.6       0.0       0.1
10 O  px              0.4       0.1       0.1       3.0       0.0       0.2
10 O  py              0.6       0.0       0.3       3.4       0.0       0.1
10 O  dz2             0.1       0.0       0.0       0.2       0.0       0.0
10 O  dyz             0.0       0.0       0.0       0.2       0.0       0.0
10 O  dx2y2           0.1       0.1       0.2       0.3       0.0       0.2
10 O  dxy             0.1       0.1       0.0       0.5       0.0       0.1
11 C  s               5.6      18.3       4.4       0.0       0.0       0.1
11 C  pz              0.0       0.0       0.1       0.0      14.6       0.2
11 C  px              0.8       0.0       3.8       0.2       0.1       5.1
11 C  py              0.2       0.5       0.2       0.2       1.0       0.6
11 C  dz2             0.0       0.0       0.0       0.0       0.1       0.1
11 C  dxz             0.0       0.0       0.0       0.0       0.1       0.0
11 C  dyz             0.0       0.0       0.0       0.0       0.1       0.0
12 C  s               1.6       8.5       6.1       0.2      20.7       3.7
12 C  pz              0.3       0.9       0.3       0.0       0.9       0.0
12 C  px              0.4       0.6       0.0       0.0       0.0       0.3
12 C  py              0.2       0.7       0.2       0.0       0.1       0.1
13 C  s               1.7       8.3       5.5       0.1      24.2       2.2
13 C  pz              0.7       2.0       0.4       0.0       1.0       0.0
13 C  px              0.2       0.1       0.1       0.0       0.0       0.3
14 H  s               0.3       0.6       2.0       0.3       0.0       4.9
14 H  py              0.0       0.0       0.1       0.0       0.0       0.3
15 H  s               0.3       0.6       2.0       0.2       0.0       4.6
15 H  pz              0.0       0.1       0.2       0.0       0.0       0.4
16 H  s               0.3       0.6       2.1       0.2       0.0       4.9
16 H  py              0.0       0.0       0.1       0.0       0.0       0.2
17 H  s               1.1       0.4       0.2       2.1       0.0       1.1
17 H  pz              0.1       0.0       0.0       0.2       0.0       0.1
18 H  s               1.1       0.4       0.1       2.5       0.0       1.2
18 H  py              0.1       0.0       0.0       0.2       0.0       0.1
19 H  s               1.1       0.0       1.8       1.5       0.0       0.0
19 H  py              0.1       0.0       0.1       0.1       0.0       0.0
20 H  s               1.1       0.0       1.7       1.2       0.0       0.0
20 H  pz              0.1       0.0       0.2       0.1       0.0       0.0
21 H  s               0.8       0.6       0.2       2.4       0.0       1.0
21 H  pz              0.1       0.1       0.0       0.2       0.0       0.1
22 H  s               0.8       0.6       0.2       2.6       0.0       1.1
22 H  py              0.0       0.0       0.0       0.1       0.0       0.1
23 H  s               0.5       0.0       0.1       1.9       0.0       0.0
23 H  px              0.1       0.0       0.0       0.3       0.0       0.0
24 H  s               0.6       2.4       0.8       0.0       0.0       0.0
24 H  py              0.0       0.2       0.1       0.0       0.0       0.0
25 H  s               0.2       1.1       1.0       0.1       4.6       0.9
25 H  py              0.0       0.1       0.1       0.0       0.4       0.1
26 H  s               0.2       1.1       0.9       0.0       5.5       0.7
26 H  pz              0.0       0.1       0.1       0.0       0.4       0.1
27 H  s               0.2       1.1       1.2       0.0       4.6       1.1
27 H  px              0.0       0.1       0.1       0.0       0.4       0.1
28 H  s               0.2       1.1       0.9       0.0       5.4       0.6
28 H  py              0.0       0.1       0.1       0.0       0.4       0.0
29 H  s               0.2       1.1       1.1       0.0       5.6       0.7
29 H  px              0.0       0.1       0.1       0.0       0.5       0.1
30 H  s               0.2       1.0       0.8       0.0       6.3       0.4
30 H  pz              0.0       0.0       0.0       0.0       0.2       0.0
30 H  px              0.0       0.0       0.0       0.0       0.2       0.0
30 H  py              0.0       0.0       0.0       0.0       0.2       0.0

                     18        19        20        21        22        23   
                  -0.56999  -0.56159  -0.52334  -0.50347  -0.47116  -0.43340
                   2.00000   2.00000   2.00000   2.00000   2.00000   2.00000
                  --------  --------  --------  --------  --------  --------
 0 C  s               3.6       2.1       0.9       0.0       0.4       0.2
 0 C  pz              0.1       0.1       1.7       0.4       1.6       0.0
 0 C  px              1.9       1.2       1.8       0.0       2.1       1.0
 0 C  py              0.3       0.8       0.0       0.0       0.1       0.0
 1 C  s               2.7       2.0       6.6       0.1       2.9       0.0
 1 C  pz              0.0       0.1       6.8       2.5       2.8       0.1
 1 C  px              1.2       0.3       0.2       0.0       0.7       1.1
 1 C  py              2.9       5.6       0.0       0.0       0.7       0.0
 2 H  s               0.8       0.7       6.3       0.7       3.1       0.0
 2 H  pz              0.1       0.1       0.4       0.0       0.2       0.0
 3 C  s               3.9       3.8       3.1       0.1       0.4       0.5
 3 C  pz              0.1       0.2       4.4       2.5       1.4       2.3
 3 C  px              5.6       0.4       0.1       0.3       0.3       3.3
 3 C  py              0.3       1.5       2.8       1.0       0.1       2.9
 3 C  dx2y2           0.1       0.0       0.0       0.0       0.0       0.0
 4 C  s              11.5       0.8       0.0       2.1       0.1       0.9
 4 C  pz              0.6       0.0       2.2       3.6       0.0       1.2
 4 C  px              2.0       2.3       0.5       0.0       1.2       3.5
 4 C  py              1.2       0.2       1.4       3.6       0.4       0.4
 5 C  s               1.4       1.1       0.0       4.4       0.2       0.4
 5 C  pz              0.5       0.5       2.3       4.9       3.2       0.1
 5 C  px              1.9       1.4       1.3       4.0       0.9       6.5
 5 C  py              5.6       2.8       0.0       0.0       0.7       1.5
 5 C  dx2y2           0.1       0.0       0.0       0.0       0.0       0.0
 6 H  s               0.7       0.4       0.2       5.6       1.1       0.0
 6 H  pz              0.1       0.0       0.0       0.3       0.0       0.0
 7 C  s               0.0       9.6       0.9       0.5       0.8       0.0
 7 C  pz              0.1       0.9       4.3       5.3       9.1       7.1
 7 C  px              2.3       0.3       1.2       0.2       0.1       0.1
 7 C  py              0.6       0.5       2.0       2.4       7.7       1.2
 7 C  dyz             0.0       0.0       0.0       0.1       0.2       0.0
 7 C  dx2y2           0.0       0.1       0.0       0.0       0.2       0.0
 8 H  s               0.0       3.7       2.4       2.0       4.8       2.6
 8 H  pz              0.0       0.3       0.1       0.1       0.2       0.1
 9 C  s               1.7       4.9       3.4       0.0       0.8       0.2
 9 C  pz              0.0       0.1       5.0       2.9       0.1       1.5
[...]
 9 C  dxy             1.0       0.2       0.0       0.0       0.0       0.0
10 O  s               0.1      26.8       6.6       0.0       0.0       0.0
10 O  pz              0.1       2.9       1.3       0.0       0.0       0.0
10 O  px              0.3       0.5      16.4       0.0       0.0       0.0
10 O  py              0.1      15.2       3.2       0.0       0.0       0.0
10 O  dz2             0.2       5.2       1.1       0.0       0.0       0.0
10 O  dxz             0.1       0.4      14.4       0.0       0.0       0.0
10 O  dyz             0.1       5.6       1.7       0.0       0.0       0.0
10 O  dx2y2           0.2       2.4      20.9       0.0       0.0       0.0
10 O  dxy             0.0       8.2       0.8       0.0       0.0       0.0
11 C  s               0.0       0.0       0.0       2.9      14.9       4.5
11 C  pz              0.1       0.1       0.0       0.0       0.0       0.0
11 C  px              0.8       0.0       0.0       0.0       0.0       0.0
11 C  dz2             0.3       0.0       0.0       0.0       0.0       0.0
11 C  dxz             0.2       0.0       0.0       0.0       0.0       0.0
11 C  dx2y2           0.3       0.0       0.0       0.0       0.0       0.0
12 C  s               0.0       0.0       0.0       0.6      69.3      10.5
12 C  py              0.1       0.0       0.0       0.0       0.0       0.0
13 C  s               0.0       0.0       0.0       3.2      10.4      29.3
16 H  py              0.1       0.0       0.0       0.0       0.0       0.0
17 H  s               0.9       0.0       0.0       0.0       0.0       0.0
17 H  pz              2.4       0.0       0.0       0.0       0.0       0.0
17 H  py              0.2       0.0       0.0       0.0       0.0       0.0
18 H  s               0.4       0.0       0.0       0.0       0.0       0.0
18 H  px              0.1       0.0       0.0       0.0       0.0       0.0
18 H  py              0.5       0.0       0.0       0.0       0.0       0.0
19 H  s               0.2       0.0       0.0       0.0       0.0       0.0
19 H  py              0.3       0.0       0.0       0.0       0.0       0.0
20 H  s               0.9       0.0       0.0       0.0       0.0       0.0
20 H  pz              2.3       0.0       0.0       0.0       0.0       0.0
20 H  py              0.1       0.1       0.0       0.0       0.0       0.0
21 H  s               0.3       0.0       0.0       0.0       0.0       0.0
21 H  pz              1.3       0.1       0.0       0.0       0.0       0.0
22 H  s               0.9       0.0       0.0       0.0       0.0       0.0
22 H  pz              0.7       0.0       0.0       0.0       0.0       0.0
22 H  px              0.2       0.0       0.0       0.0       0.0       0.0
22 H  py              1.5       0.0       0.0       0.0       0.0       0.0
23 H  s               0.0       0.6      13.7       0.0       0.0       0.0
23 H  pz              0.1       0.1       2.6       0.0       0.0       0.0
23 H  px              0.0       0.8      13.2       0.0       0.0       0.0
23 H  py              0.0       0.2       0.5       0.0       0.0       0.0
24 H  px              0.1       0.0       0.0       0.0       0.0       0.0
30 H  px              0.1       0.0       0.0       0.0       0.0       0.0

                    306       307       308       309       310       311   
                  22.06074  22.08253  22.13371  22.19152  22.20885  22.24896
                   0.00000   0.00000   0.00000   0.00000   0.00000   0.00000
                  --------  --------  --------  --------  --------  --------
 0 C  s               7.9      16.0       0.8       4.7       0.1       0.3
 1 C  s              22.4      20.2      23.1      19.3       0.1       5.7
 3 C  s              16.3       1.7      24.1       0.3       0.2      15.0
 4 C  s               2.0      39.9       8.7      18.3       1.3       1.8
 5 C  s               0.4       0.8       0.8       5.7      14.0      53.3
 7 C  s               0.2       6.9      12.4      33.2       0.9      11.4
 9 C  s              10.5       7.6      24.2      13.7       2.5       0.1
11 C  s               1.7       0.2       2.8       4.3      54.3      10.3
12 C  s              11.2       0.2       2.0       0.0       3.3       1.9
13 C  s              27.0       6.1       0.7       0.0      22.7       0.0

                    312       313   
                  22.26356  43.74499
                   0.00000   0.00000
                  --------  --------
 1 C  s               2.4       0.0
 3 C  s               9.8       0.0
 4 C  s              25.6       0.0
 5 C  s              12.1       0.0
 7 C  s              30.3       0.1
 9 C  s              15.3       0.0
10 O  s               0.0      99.8
11 C  s               3.9       0.0
12 C  s               0.4       0.0


                      *****************************
                      * MAYER POPULATION ANALYSIS *
                      *****************************

  NA   - Mulliken gross atomic population
  ZA   - Total nuclear charge
  QA   - Mulliken gross atomic charge
  VA   - Mayer's total valence
  BVA  - Mayer's bonded valence
  FA   - Mayer's free valence

  ATOM       NA         ZA         QA         VA         BVA        FA
  0 C      6.5522     6.0000    -0.5522     3.7723     3.7723    -0.0000
  1 C      6.0145     6.0000    -0.0145     3.4847     3.4847     0.0000
  2 H      0.8304     1.0000     0.1696     0.9550     0.9550     0.0000
  3 C      6.3599     6.0000    -0.3599     3.6362     3.6362     0.0000
  4 C      6.4031     6.0000    -0.4031     3.6494     3.6494     0.0000
  5 C      6.0324     6.0000    -0.0324     3.2767     3.2767     0.0000
  6 H      0.8183     1.0000     0.1817     0.9622     0.9622     0.0000
  7 C      6.0884     6.0000    -0.0884     3.6222     3.6222     0.0000
  8 H      0.8278     1.0000     0.1722     0.9421     0.9421     0.0000
  9 C      6.3943     6.0000    -0.3943     3.7036     3.7036     0.0000
 10 O      8.5127     8.0000    -0.5127     1.7562     1.7562    -0.0000
 11 C      6.0026     6.0000    -0.0026     3.3791     3.3791    -0.0000
 12 C      6.5642     6.0000    -0.5642     3.7787     3.7787     0.0000
 13 C      6.5576     6.0000    -0.5576     3.7369     3.7369    -0.0000
 14 H      0.8411     1.0000     0.1589     0.9599     0.9599    -0.0000
 15 H      0.8367     1.0000     0.1633     0.9618     0.9618    -0.0000
 16 H      0.8412     1.0000     0.1588     0.9604     0.9604    -0.0000
 17 H      0.8349     1.0000     0.1651     0.9633     0.9633     0.0000
 18 H      0.8449     1.0000     0.1551     0.9596     0.9596    -0.0000
 19 H      0.8370     1.0000     0.1630     0.9562     0.9562     0.0000
 20 H      0.8251     1.0000     0.1749     0.9538     0.9538     0.0000
 21 H      0.8273     1.0000     0.1727     0.9637     0.9637    -0.0000
 22 H      0.8432     1.0000     0.1568     0.9613     0.9613     0.0000
 23 H      0.6532     1.0000     0.3468     0.8836     0.8836     0.0000
 24 H      0.8409     1.0000     0.1591     0.9600     0.9600     0.0000
 25 H      0.8319     1.0000     0.1681     0.9592     0.9592     0.0000
 26 H      0.8410     1.0000     0.1590     0.9609     0.9609     0.0000
 27 H      0.8396     1.0000     0.1604     0.9586     0.9586     0.0000
 28 H      0.8332     1.0000     0.1668     0.9579     0.9579    -0.0000
 29 H      0.8376     1.0000     0.1624     0.9585     0.9585     0.0000
 30 H      0.8328     1.0000     0.1672     0.9582     0.9582     0.0000

  Mayer bond orders larger than 0.100000
B(  0-C ,  1-C ) :   0.8675 B(  0-C , 14-H ) :   0.9743 B(  0-C , 15-H ) :   0.9953 
B(  0-C , 16-H ) :   0.9756 B(  1-C ,  2-H ) :   0.9486 B(  1-C ,  3-C ) :   0.9126 
B(  1-C ,  9-C ) :   0.9119 B(  3-C ,  4-C ) :   0.8915 B(  3-C , 17-H ) :   1.0151 
B(  3-C , 18-H ) :   0.9444 B(  4-C ,  5-C ) :   0.8610 B(  4-C , 19-H ) :   0.9456 
B(  4-C , 20-H ) :   0.9856 B(  5-C ,  6-H ) :   1.0092 B(  5-C ,  7-C ) :   0.9022 
B(  5-C , 11-C ) :   0.8262 B(  7-C ,  8-H ) :   0.9826 B(  7-C ,  9-C ) :   0.9070 
B(  7-C , 10-O ) :   0.8486 B(  9-C , 21-H ) :   1.0203 B(  9-C , 22-H ) :   0.9409 
B( 10-O , 23-H ) :   0.8679 B( 11-C , 12-C ) :   0.8996 B( 11-C , 13-C ) :   0.8578 
B( 11-C , 24-H ) :   0.9805 B( 12-C , 25-H ) :   0.9850 B( 12-C , 26-H ) :   0.9790 
B( 12-C , 27-H ) :   0.9734 B( 13-C , 28-H ) :   0.9781 B( 13-C , 29-H ) :   0.9721 
B( 13-C , 30-H ) :   0.9741 

-------
TIMINGS
-------

Total SCF time: 0 days 0 hours 0 min 56 sec 

Total time                  ....      56.402 sec
Sum of individual times     ....      55.862 sec  ( 99.0%)

SCF preparation             ....       0.581 sec  (  1.0%)
Fock matrix formation       ....      53.931 sec  ( 95.6%)
  Startup                   ....       0.076 sec  (  0.1% of F)
  Split-RI-J                ....       9.880 sec  ( 18.3% of F)
  XC integration            ....      31.668 sec  ( 58.7% of F)
    Basis function eval.    ....       5.167 sec  ( 16.3% of XC)
    Density eval.           ....      12.233 sec  ( 38.6% of XC)
    XC-Functional eval.     ....       2.659 sec  (  8.4% of XC)
    XC-Potential eval.      ....      10.537 sec  ( 33.3% of XC)
  CPCM terms                ....      11.657 sec  ( 21.6% of F)
Diagonalization             ....       0.000 sec  (  0.0%)
Density matrix formation    ....       0.322 sec  (  0.6%)
Total Energy calculation    ....       0.065 sec  (  0.1%)
Population analysis         ....       0.189 sec  (  0.3%)
Orbital Transformation      ....       0.080 sec  (  0.1%)
Orbital Orthonormalization  ....       0.000 sec  (  0.0%)
DIIS solution               ....       0.625 sec  (  1.1%)
  MO trafo                  ....       0.000 sec  (  0.0 % of DIIS)
  Orb grad                  ....       0.000 sec  (  0.0 % of DIIS)
  Energy W gradient         ....       0.000 sec  (  0.0 % of DIIS)
  DIIS error                ....       0.029 sec  (  4.7 % of DIIS)
  DIIS work                 ....       0.518 sec  ( 82.9 % of DIIS)
  Form Q                    ....       0.000 sec  (  0.0 % of DIIS)
  Form QpQm                 ....       0.000 sec  (  0.0 % of DIIS)
  Exp/Cayley                ....       0.000 sec  (  0.0 % of DIIS)
  Orb update                ....       0.000 sec  (  0.0 % of DIIS)
  Wake-sleep                ....       0.034 sec  (  5.4 % of DIIS)
SOSCF solution              ....       0.069 sec  (  0.1%)
  MO trafo                  ....       0.048 sec  ( 69.2 % of SOSCF)
  Orb grad                  ....       0.001 sec  (  0.8 % of SOSCF)
  Rot update                ....       0.000 sec  (  0.1 % of SOSCF)
  Step                      ....       0.020 sec  ( 29.8 % of SOSCF)
Finished LeanSCF after  56.5 sec

Maximum memory used throughout the entire LEANSCF-calculation: 56.7 MB


-------------------------------------------------------------------------------
                          DFT DISPERSION CORRECTION                            
                                                                               
                                DFTD4 V3.4.0                                   
-------------------------------------------------------------------------------
The R2SCAN3C composite method is recognized
Using three-body term ABC
Active option DFTDOPT                   ...         5   

-------------------------   ----------------
Dispersion correction           -0.010839010
-------------------------   ----------------

------------------   -----------------
gCP correction             0.015259348
------------------   -----------------

-------------------------   --------------------
FINAL SINGLE POINT ENERGY      -468.214783756769
-------------------------   --------------------


------------------------------------------------------------------------------
                              ORCA PROPERTY CALCULATIONS
------------------------------------------------------------------------------

GBWName                                 ... sp_solv.gbw
Number of atoms                         ...     31
Number of basis functions               ...    314
Max core memory                         ...   1024 MB

Electric properties:
Dipole moment                           ... YES
Quadrupole moment                       ...  NO
Static polarizability (Dipole/Dipole)   ...  NO
Static polarizability (Dipole/Quad.)    ...  NO
Static polarizability (Quad./Quad.)     ...  NO
Static polarizability (Velocity)        ...  NO

Atomic electric properties:
Dipole moment                           ...  NO
Quadrupole moment                       ...  NO
Static polarizability                   ...  NO

Choice of electric origin               ... Center of mass
Position of electric origin             ...     0.000000     0.000019    -0.000002

General magnetic properties:
Magnetizability                         ...  NO

EPR properties:
g-Tensor (aka g-matrix)                 ...  NO
Zero-Field splitting spin-orbit         ...  NO
Zero-field splitting spin-spin          ...  NO
Hyperfine couplings                     ...  NO (   0 nuclei)
Quadrupole couplings                    ...  NO (   0 nuclei)
Contact density                         ...  NO (   0 nuclei)

NMR properties:
Chemical shifts                         ...  NO (   0 nuclei)
Spin-rotation constants                 ...  NO (   0 nuclei)
Spin-spin couplings                     ...  NO (   0 nuclei,    0 pairs)

Choice of magnetic origin               ... GIAO
Position of magnetic origin             ...     0.000000     0.000000     0.000000

Properties with geometric perturbations:
SCF Hessian                             ...  NO
IR spectrum                             ...  NO
VCD spectrum                            ...  NO
X-ray spectroscopy properties:
SCF XES/XAS/RIXS spectra                ...  NO


-------------
DIPOLE MOMENT
-------------

Method             : SCF
Type of density    : Electron Density
Multiplicity       :   1
Irrep              :   0
Energy             :  -468.2192040949709053 Eh
Relativity type    : 
Basis              : AO
                                X                 Y                 Z
Electronic contribution:      0.569894201      -4.936393726       0.269462238
Nuclear contribution   :     -1.005931667       5.508890064      -0.805431698
                        -----------------------------------------
Total Dipole Moment    :     -0.436037465       0.572496339      -0.535969460
                        -----------------------------------------
Magnitude (a.u.)       :      0.897298162
Magnitude (Debye)      :      2.280750673



--------------------
Rotational spectrum 
--------------------
 
Rotational constants in cm-1:             0.059119             0.023252             0.019256 
Rotational constants in MHz :          1772.333966           697.091539           577.278835 

Dipole components along the rotational axes: 
x,y,z [a.u.] :    -0.443494     0.538233    -0.564590 
x,y,z [Debye]:    -1.127273     1.368080    -1.435074 

 

Dipole moment calculation done in   0.0 sec 

Maximum memory used throughout the entire PROP-calculation: 23.8 MB

--------------------------------
SUGGESTED CITATIONS FOR THIS RUN
--------------------------------

Below you find a list of papers that are relevant to this ORCA run
We neither can nor want to force you to cite these papers, but we appreciate if you do
You receive ORCA, which is the product of decades of hard work by many enthusiastic individuals, for free
The only thing we kindly ask in return is that you cite our papers,
We deeply appreciate it, if you show your appreciation for ORCA by not just citing the generic ORCA reference.

Please note that relegating all ORCA citations to the supporting information does *not* help us.
SI sections are not indexed - citations you put there will not count into any citation statistics
But we need these citations in order to attract the funding resources that allow us to do what we are doing

Therefore, if you are a happy ORCA user, please consider citing a few of the papers listed below in the main body of your paper

In addition to the list printed below, the program has created the file sp_solv.bibtex that contains the list in bibtex format
You can import this file easily into all common literature databanks and citation aid programs


List of essential papers. We consider these as the minimum necessary citations

  1. Neese,F.
     Software update: the ORCA program system, version 5.0
     WIRES Comput. Molec. Sci., 2022 12(1)e1606
     doi.org/10.1002/wcms.1606
  2. Grimme,S.; Hansen,A.; Ehlert,S.; Mewes,J.
     r2SCAN-3c: A 'Swiss army knife' composite electronic-structure method
     J. Chem. Phys., 2021 154 064103
     doi.org/10.1063/5.0040021

List of papers to cite with high priority. The work reported in these papers was absolutely
necessary for this run to complete.
Our perspective: the developers of density functionals and basis sets usually get cited in chemistry papers
Good! But without the algorithms to do something with them, the functionals or basis sets would not do anything.
Hence, in our opinion, the algorithm design and method developments papers are equally worthy of getting cited

  1. Neese,F.
     An improvement of the resolution of the identity approximation for the formation of the Coulomb matrix
     J. Comp. Chem., 2003 24(14)1740-1747
     doi.org/10.1002/jcc.10318
  2. Garcia-Rates,M.; Neese,F.
     Effect of the Solute Cavity on the Solvation Energy and its Derivatives within the Framework of the Gaussian Charge Scheme
     J. Comput. Chem., 2020 41 922-939
     doi.org/10.1002/jcc.26139
  3. Neese,F.
     The SHARK Integral Generation and Digestion System
     J. Comp. Chem., 2022  1-16
     doi.org/10.1002/jcc.26942
  4. Lehtola,S.; Steigemann,C.; Oliveira,M.; Marques,M.
     Recent developments in Libxc - A comprehensive library of functionals for density functional theory
     Software X, 2018 7 
     doi.org/10.1016/j.softx.2017.11.002
  5. Caldeweyher,E.; Bannwarth,C.; Grimme,S.
     Extension of the D3 dispersion coefficient model
     J. Chem. Phys., 2017 147 034112-XXXX
     doi.org/10.1063/1.4993215
  6. Caldeweyher,E.; Ehlert,S.; Hansen,A.; Neugebauer,H.; Spicher,S.; Bannwarth,C.; Grimme,S.
     A generally applicable atomic-charge dependent London dispersion correction
     J. Chem. Phys., 2019 150 154122-XXXX
     doi.org/10.1063/1.5090222
  7. Caldeweyher,E.; Mewes,J.; Ehlert,S.; Grimme,S.
     Extension and evaluation of the D4 London-dispersion model for periodic systems
     Phys. Chem. Chem. Phys., 2020 22(16)8499-8512
     doi.org/10.1039/D0CP00502A

List of suggested additional citations. These are papers that are important in the 'surrounding' of 
of this run, or papers that preceded the highly important papers. If you like your results we are grateful for a citation.

  1. Neese,F.
     The ORCA program system
     WIRES Comput. Molec. Sci., 2012 2(1)73-78
     doi.org/10.1002/wcms.81
  2. Neese,F.
     Software update: the ORCA program system, version 4.0
     WIRES Comput. Molec. Sci., 2018 8(1)1-6
     doi.org/10.1002/wcms.1327
  3. Neese,F.; Wennmohs,F.; Becker,U.; Riplinger,C.
     The ORCA quantum chemistry program package
     J. Chem. Phys., 2020 152 Art. No. L224108
     doi.org/10.1063/5.0004608

List of optional additional citations

  1. Neese,F.
     Approximate second-order SCF convergence for spin unrestricted wavefunctions
     Chem. Phys. Lett., 2000 325(1-3)93-98
     doi.org/10.1016/s0009-2614(00)00662-x

Timings for individual modules:

Sum of individual times          ...       58.971 sec (=   0.983 min)
Startup calculation              ...        1.940 sec (=   0.032 min)   3.3 %
SCF iterations                   ...       56.922 sec (=   0.949 min)  96.5 %
Property calculations            ...        0.110 sec (=   0.002 min)   0.2 %
                             ****ORCA TERMINATED NORMALLY****
TOTAL RUN TIME: 0 days 0 hours 0 minutes 59 seconds 729 msec
