      -----------------------------------------------------------      
     |                   =====================                   |     
     |                           x T B                           |     
     |                   =====================                   |     
     |                         S. Grimme                         |     
     |          Mulliken Center for Theoretical Chemistry        |     
     |                    University of Bonn                     |     
      -----------------------------------------------------------      

   * xtb version 6.7.1 (edcfbbe) compiled by 'albert@albert-system' on 2024-07-22

   xtb is free software: you can redistribute it and/or modify it under
   the terms of the GNU Lesser General Public License as published by
   the Free Software Foundation, either version 3 of the License, or
   (at your option) any later version.
   
   xtb is distributed in the hope that it will be useful,
   but WITHOUT ANY WARRANTY; without even the implied warranty of
   MERCHANTABILITY or FITNESS FOR A PARTICULAR PURPOSE.  See the
   GNU Lesser General Public License for more details.
   
   Cite this work as:
   * C. Bannwarth, E. Caldeweyher, S. Ehlert, A. Hansen, P. Pracht,
     J. Seibert, S. Spicher, S. Grimme, WIREs Comput. Mol. Sci., 2020, 11,
     e01493. DOI: 10.1002/wcms.1493
   
   for GFN2-xTB:
   * C. Bannwarth, S. Ehlert and S. Grimme., J. Chem. Theory Comput., 2019,
     15, 1652-1671. DOI: 10.1021/acs.jctc.8b01176
   for GFN1-xTB:
   * S. Grimme, C. Bannwarth, P. Shushkov, J. Chem. Theory Comput., 2017,
     13, 1989-2009. DOI: 10.1021/acs.jctc.7b00118
   for GFN0-xTB:
   * P. Pracht, E. Caldeweyher, S. Ehlert, S. Grimme, ChemRxiv, 2019, preprint.
     DOI: 10.26434/chemrxiv.8326202.v1
   for GFN-FF:
   * S. Spicher and S. Grimme, Angew. Chem. Int. Ed., 2020, 59, 15665-15673.
     DOI: 10.1002/anie.202004239
   
   for ALPB and GBSA implicit solvation:
   * S. Ehlert, M. Stahn, S. Spicher, S. Grimme, J. Chem. Theory Comput.,
     2021, 17, 4250-4261. DOI: 10.1021/acs.jctc.1c00471
   
   for ddCOSMO and CPCM-X implicit solvation:
   * M. Stahn, S. Ehlert, S. Grimme, J. Phys. Chem. A,
     2023, XX, XXXX-XXXX. DOI: 10.1021/acs.jpca.3c04382
   
   for DFT-D4:
   * E. Caldeweyher, C. Bannwarth and S. Grimme, J. Chem. Phys., 2017,
     147, 034112. DOI: 10.1063/1.4993215
   * E. Caldeweyher, S. Ehlert, A. Hansen, H. Neugebauer, S. Spicher,
     C. Bannwarth and S. Grimme, J. Chem. Phys., 2019, 150, 154122.
     DOI: 10.1063/1.5090222
   * E. Caldeweyher, J.-M. Mewes, S. Ehlert and S. Grimme, Phys. Chem. Chem. Phys.
     2020, 22, 8499-8512. DOI: 10.1039/D0CP00502A
   
   for sTDA-xTB:
   * S. Grimme and C. Bannwarth, J. Chem. Phys., 2016, 145, 054103.
     DOI: 10.1063/1.4959605
   
   in the mass-spec context:
   * V. Asgeirsson, C. Bauer and S. Grimme, Chem. Sci., 2017, 8, 4879.
     DOI: 10.1039/c7sc00601b
   * J. Koopman and S. Grimme, ACS Omega 2019, 4, 12, 15120-15133.
     DOI: 10.1021/acsomega.9b02011
   
   for metadynamics refer to:
   * S. Grimme, J. Chem. Theory Comput., 2019, 155, 2847-2862
     DOI: 10.1021/acs.jctc.9b00143
   
   for SPH calculations refer to:
   * S. Spicher and S. Grimme, J. Chem. Theory Comput., 2021, 17, 1701-1714
     DOI: 10.1021/acs.jctc.0c01306
   
   for ONIOM refer to:
   * C. Plett, A. Katbashev, S. Ehlert, S. Grimme, M. Bursch,
     Phys. Chem. Chem. Phys., 2023, 25, 17860-17868. DOI: 10.1039/D3CP02178E
   
   for DIPRO refer to:
   * J. Kohn, N. Gildemeister, S. Grimme, D. Fazzi, A. Hansen,
     J. Chem. Phys., 2023, just accepted.
   
   for PTB refer to:
   * S. Grimme, M. Mueller, A. Hansen, J. Chem. Phys., 2023, 158, 124111.
     DOI: 10.1063/5.0137838
   
   with help from (in alphabetical order)
   P. Atkinson, C. Bannwarth, F. Bohle, G. Brandenburg, E. Caldeweyher
   M. Checinski, S. Dohm, S. Ehlert, S. Ehrlich, I. Gerasimov, C. Hölzer
   A. Katbashev, J. Kohn, J. Koopman, C. Lavigne, S. Lehtola, F. März, M. Müller,
   F. Musil, H. Neugebauer, J. Pisarek, C. Plett, P. Pracht, F. Pultar,
   J. Seibert, P. Shushkov, S. Spicher, M. Stahn, M. Steiner, T. Strunk,
   J. Stückrath, T. Rose, and J. Unsleber
   
 * started run on 2025/04/06 at 18:00:38.158     
   ID    Z sym.   atoms
    1    6 C      1, 2, 4, 6, 8, 10
    2    1 H      3, 5, 7, 9, 11, 18-24
    3    8 O      12-17

           -------------------------------------------------
          |                Calculation Setup                |
           -------------------------------------------------

          program call               : /srv/scratch/z5358697/.xtb/bin/xtb gas.coord --gfn2 --sp --chrg 0 --norestart --parallel 1
          hostname                   : k155
          coordinate file            : gas.coord
          omp threads                :                     1


           -------------------------------------------------
          |                 G F N 2 - x T B                 |
           -------------------------------------------------

        Reference                      10.1021/acs.jctc.8b01176
      * Hamiltonian:
        H0-scaling (s, p, d)           1.850000    2.230000    2.230000
        zeta-weighting                 0.500000
      * Dispersion:
        s8                             2.700000
        a1                             0.520000
        a2                             5.000000
        s9                             5.000000
      * Repulsion:
        kExp                           1.500000    1.000000
        rExp                           1.000000
      * Coulomb:
        alpha                          2.000000
        third order                    shell-resolved
        anisotropic                    true
        a3                             3.000000
        a5                             4.000000
        cn-shift                       1.200000
        cn-exp                         4.000000
        max-rad                        5.000000


          ...................................................
          :                      SETUP                      :
          :.................................................:
          :  # basis functions                  60          :
          :  # atomic orbitals                  60          :
          :  # shells                           36          :
          :  # electrons                        72          :
          :  max. iterations                   250          :
          :  Hamiltonian                  GFN2-xTB          :
          :  restarted?                      false          :
          :  GBSA solvation                  false          :
          :  PC potential                    false          :
          :  electronic temp.          300.0000000     K    :
          :  accuracy                    1.0000000          :
          :  -> integral cutoff          0.2500000E+02      :
          :  -> integral neglect         0.1000000E-07      :
          :  -> SCF convergence          0.1000000E-05 Eh   :
          :  -> wf. convergence          0.1000000E-03 e    :
          :  Broyden damping             0.4000000          :
          :  net charge                          0          :
          :  unpaired electrons                  0          :
          ...................................................

 iter      E             dE          RMSdq      gap      omega  full diag
   1    -43.6301283 -0.436301E+02  0.460E+00   10.41       0.0  T
   2    -43.6603568 -0.302286E-01  0.254E+00   10.25       1.0  T
   3    -43.6615180 -0.116113E-02  0.645E-01   10.31       1.0  T
   4    -43.6622643 -0.746329E-03  0.143E-01   10.27       1.0  T
   5    -43.6623251 -0.608112E-04  0.564E-02   10.30       1.0  T
   6    -43.6623351 -0.997635E-05  0.182E-02   10.30       1.1  T
   7    -43.6623358 -0.693385E-06  0.569E-03   10.30       3.6  T
   8    -43.6623360 -0.218304E-06  0.168E-03   10.30      12.1  T
   9    -43.6623360 -0.444640E-08  0.643E-04   10.30      31.7  T
  10    -43.6623360 -0.174332E-08  0.195E-04   10.30     104.7  T

   *** convergence criteria satisfied after 10 iterations ***

         #    Occupation            Energy/Eh            Energy/eV
      -------------------------------------------------------------
         1        2.0000           -0.7298621             -19.8606
       ...           ...                  ...                  ...
        30        2.0000           -0.4603029             -12.5255
        31        2.0000           -0.4519379             -12.2979
        32        2.0000           -0.4395846             -11.9617
        33        2.0000           -0.4348376             -11.8325
        34        2.0000           -0.4234726             -11.5233
        35        2.0000           -0.4127146             -11.2305
        36        2.0000           -0.4022220             -10.9450 (HOMO)
        37                         -0.0235713              -0.6414 (LUMO)
        38                         -0.0138580              -0.3771
        39                          0.0168378               0.4582
        40                          0.0305811               0.8322
        41                          0.0437591               1.1907
       ...                                ...                  ...
        60                          0.2965939               8.0707
      -------------------------------------------------------------
                  HL-Gap            0.3786507 Eh           10.3036 eV
             Fermi-level           -0.2128967 Eh           -5.7932 eV

 SCC (total)                   0 d,  0 h,  0 min,  0.023 sec
 SCC setup                      ...        0 min,  0.000 sec (  0.793%)
 Dispersion                     ...        0 min,  0.000 sec (  0.630%)
 classical contributions        ...        0 min,  0.000 sec (  0.118%)
 integral evaluation            ...        0 min,  0.003 sec ( 12.471%)
 iterations                     ...        0 min,  0.012 sec ( 53.293%)
 molecular gradient             ...        0 min,  0.007 sec ( 32.026%)
 printout                       ...        0 min,  0.000 sec (  0.616%)

         :::::::::::::::::::::::::::::::::::::::::::::::::::::
         ::                     SUMMARY                     ::
         :::::::::::::::::::::::::::::::::::::::::::::::::::::
         :: total energy             -43.358586995347 Eh    ::
         :: gradient norm              0.015777246590 Eh/a0 ::
         :: HOMO-LUMO gap             10.303609900158 eV    ::
         ::.................................................::
         :: SCC energy               -43.662143644639 Eh    ::
         :: -> isotropic ES            0.137999547734 Eh    ::
         :: -> anisotropic ES         -0.004442160769 Eh    ::
         :: -> anisotropic XC         -0.010037254173 Eh    ::
         :: -> dispersion             -0.019430581868 Eh    ::
         :: repulsion energy           0.303556649292 Eh    ::
         :: add. restraining           0.000000000000 Eh    ::
         :: total charge              -0.000000000000 e     ::
         :::::::::::::::::::::::::::::::::::::::::::::::::::::

           -------------------------------------------------
          |                Property Printout                |
           -------------------------------------------------

    * Orbital Energies and Occupations

         #    Occupation            Energy/Eh            Energy/eV
      -------------------------------------------------------------
         1        2.0000           -0.7298621             -19.8606
       ...           ...                  ...                  ...
        24        2.0000           -0.5141293             -13.9902
        25        2.0000           -0.5058911             -13.7660
        26        2.0000           -0.5014283             -13.6446
        27        2.0000           -0.4963208             -13.5056
        28        2.0000           -0.4849416             -13.1959
        29        2.0000           -0.4668940             -12.7048
        30        2.0000           -0.4603029             -12.5255
        31        2.0000           -0.4519379             -12.2979
        32        2.0000           -0.4395846             -11.9617
        33        2.0000           -0.4348376             -11.8325
        34        2.0000           -0.4234726             -11.5233
        35        2.0000           -0.4127146             -11.2305
        36        2.0000           -0.4022220             -10.9450 (HOMO)
        37                         -0.0235713              -0.6414 (LUMO)
        38                         -0.0138580              -0.3771
        39                          0.0168378               0.4582
        40                          0.0305811               0.8322
        41                          0.0437591               1.1907
        42                          0.0580888               1.5807
        43                          0.0694534               1.8899
        44                          0.0825786               2.2471
        45                          0.1002913               2.7291
        46                          0.1066389               2.9018
        47                          0.1161212               3.1598
       ...                                ...                  ...
        60                          0.2965939               8.0707
      -------------------------------------------------------------
                  HL-Gap            0.3786507 Eh           10.3036 eV
             Fermi-level           -0.2128967 Eh           -5.7932 eV

     #   Z          covCN         q      C6AA      α(0)
     1   6 C        3.676     0.072    19.587     6.341
     2   6 C        3.741     0.095    19.076     6.232
     3   1 H        0.923     0.061     2.192     2.315
     4   6 C        3.725     0.096    19.097     6.240
     5   1 H        0.923     0.031     2.572     2.508
     6   6 C        3.727     0.087    19.232     6.261
     7   1 H        0.924     0.059     2.212     2.326
     8   6 C        3.725     0.092    19.154     6.249
     9   1 H        0.923     0.039     2.461     2.453
    10   6 C        3.620     0.245    17.204     5.981
    11   1 H        0.923     0.036     2.505     2.475
    12   8 O        1.700    -0.338    19.669     5.988
    13   8 O        1.657    -0.462    22.095     6.345
    14   8 O        1.656    -0.439    21.616     6.276
    15   8 O        1.655    -0.445    21.744     6.295
    16   8 O        1.656    -0.445    21.738     6.294
    17   8 O        1.655    -0.429    21.429     6.249
    18   1 H        0.923     0.031     2.566     2.505
    19   1 H        0.924     0.075     2.031     2.228
    20   1 H        0.804     0.315     0.678     1.293
    21   1 H        0.804     0.307     0.700     1.314
    22   1 H        0.804     0.307     0.699     1.313
    23   1 H        0.804     0.308     0.698     1.312
    24   1 H        0.805     0.301     0.719     1.332

 Mol. C6AA /au·bohr⁶  :       4700.761838
 Mol. C8AA /au·bohr⁸  :      99881.486980
 Mol. α(0) /au        :         98.126897


Wiberg/Mayer (AO) data.
largest (>0.10) Wiberg bond orders for each atom

 ---------------------------------------------------------------------------
     #   Z sym  total        # sym  WBO       # sym  WBO       # sym  WBO
 ---------------------------------------------------------------------------
     1   6 C    3.961 --    17 O    1.013     2 C    0.979    18 H    0.967
                            19 H    0.967
     2   6 C    3.939 --     1 C    0.979     4 C    0.974     3 H    0.956
                            12 O    0.952
     3   1 H    0.996 --     2 C    0.956
     4   6 C    3.959 --    16 O    0.999     2 C    0.974     6 C    0.960
                             5 H    0.956
     5   1 H    0.999 --     4 C    0.956
     6   6 C    3.959 --    15 O    1.005     4 C    0.960     7 H    0.958
                             8 C    0.956
     7   1 H    0.996 --     6 C    0.958
     8   6 C    3.959 --    14 O    1.002    10 C    0.965     9 H    0.958
                             6 C    0.956
     9   1 H    0.998 --     8 C    0.958
    10   6 C    3.935 --    13 O    0.986    12 O    0.984     8 C    0.965
                            11 H    0.950
    11   1 H    0.999 --    10 C    0.950
    12   8 O    2.082 --    10 C    0.984     2 C    0.952
    13   8 O    1.967 --    10 C    0.986    20 H    0.883
    14   8 O    1.966 --     8 C    1.002    21 H    0.890
    15   8 O    1.967 --     6 C    1.005    22 H    0.884
    16   8 O    1.959 --     4 C    0.999    23 H    0.889
    17   8 O    1.966 --     1 C    1.013    24 H    0.894
    18   1 H    0.999 --     1 C    0.967
    19   1 H    0.994 --     1 C    0.967
    20   1 H    0.901 --    13 O    0.883
    21   1 H    0.906 --    14 O    0.890
    22   1 H    0.905 --    15 O    0.884
    23   1 H    0.905 --    16 O    0.889
    24   1 H    0.910 --    17 O    0.894
 ---------------------------------------------------------------------------

Topologies differ in total number of bonds
Writing topology from bond orders to xtbtopo.mol

molecular dipole:
                 x           y           z       tot (Debye)
 q only:        0.829      -0.015      -0.522
   full:        1.353      -0.134      -0.807       4.018
molecular quadrupole (traceless):
                xx          xy          yy          xz          yz          zz
 q only:       -5.582      -3.215       2.921       5.058       4.858       2.661
  q+dip:       -8.898      -4.704       4.942       8.899       8.214       3.956
   full:       -9.103      -4.604       5.153       8.037       7.580       3.949


           -------------------------------------------------
          | TOTAL ENERGY              -43.358586995347 Eh   |
          | GRADIENT NORM               0.015777246590 Eh/α |
          | HOMO-LUMO GAP              10.303609900158 eV   |
           -------------------------------------------------

------------------------------------------------------------------------
 * finished run on 2025/04/06 at 18:00:38.208     
------------------------------------------------------------------------
 total:
 * wall-time:     0 d,  0 h,  0 min,  0.050 sec
 *  cpu-time:     0 d,  0 h,  0 min,  0.027 sec
 * ratio c/w:     0.545 speedup
 SCF:
 * wall-time:     0 d,  0 h,  0 min,  0.023 sec
 *  cpu-time:     0 d,  0 h,  0 min,  0.019 sec
 * ratio c/w:     0.826 speedup

