
                                 *****************
                                 * O   R   C   A *
                                 *****************

                                            #,                                       
                                            ###                                      
                                            ####                                     
                                            #####                                    
                                            ######                                   
                                           ########,                                 
                                     ,,################,,,,,                         
                               ,,#################################,,                 
                          ,,##########################################,,             
                       ,#########################################, ''#####,          
                    ,#############################################,,   '####,        
                  ,##################################################,,,,####,       
                ,###########''''           ''''###############################       
              ,#####''   ,,,,##########,,,,          '''####'''          '####       
            ,##' ,,,,###########################,,,                        '##       
           ' ,,###''''                  '''############,,,                           
         ,,##''                                '''############,,,,        ,,,,,,###''
      ,#''                                            '''#######################'''  
     '                                                          ''''####''''         
             ,#######,   #######,   ,#######,      ##                                
            ,#'     '#,  ##    ##  ,#'     '#,    #''#        ,####,   ,####,        
            ##       ##  ##   ,#'  ##            #'  '#       #'       #'  '#        
            ##       ##  #######   ##           ,######,      #####,   #    #        
            '#,     ,#'  ##    ##  '#,     ,#' ,#      #,     #,   #   #,  ,#        
             '#######'   ##     ##  '#######'  #'      '#     '####' # '####'        



                #########################################################
                #                        -***-                          #
                #          Department of theory and spectroscopy        #
                #                                                       #
                #                      Frank Neese                      #
                #                                                       #
                #     Directorship, Architecture, Infrastructure        #
                #                    SHARK, DRIVERS                     #
                #        Core code/Algorithms in most modules           #
                #                                                       #
                #        Max Planck Institute fuer Kohlenforschung      #
                #                Kaiser Wilhelm Platz 1                 #
                #                 D-45470 Muelheim/Ruhr                 #
                #                      Germany                          #
                #                                                       #
                #                  All rights reserved                  #
                #                        -***-                          #
                #########################################################


                         Program Version 6.0.0  -   RELEASE  -


 With contributions from (in alphabetic order):
   Daniel Aravena         : Magnetic Suceptibility
   Michael Atanasov       : Ab Initio Ligand Field Theory (pilot matlab implementation)
   Alexander A. Auer      : GIAO ZORA, VPT2 properties, NMR spectrum
   Ute Becker             : All parallelization in ORCA, NUMFREQ, NUMCALC
   Giovanni Bistoni       : ED, misc. LED, open-shell LED, HFLD
   Martin Brehm           : Molecular dynamics
   Dmytro Bykov           : pre 5.0 version of the SCF Hessian
   Marcos Casanova-Páez   : Triplet and SCS-CIS(D). UHF-(DLPNO)-IP/EA/STEOM-CCSD. UHF-CVS-IP/STEOM-CCSD
   Vijay G. Chilkuri      : MRCI spin determinant printing, contributions to CSF-ICE
   Pauline Colinet        : FMM embedding
   Dipayan Datta          : RHF DLPNO-CCSD density
   Achintya Kumar Dutta   : EOM-CC, STEOM-CC
   Nicolas Foglia         : Exact transition moments, OPA infrastructure, MCD improvements
   Dmitry Ganyushin       : Spin-Orbit,Spin-Spin,Magnetic field MRCI
   Miquel Garcia          : C-PCM and meta-GGA Hessian, CCSD/C-PCM, Gaussian charge scheme
   Tiago L. C. Gouveia    : GS-ROHF, GS-ROCIS
   Yang Guo               : DLPNO-NEVPT2, F12-NEVPT2, CIM, IAO-localization
   Andreas Hansen         : Spin unrestricted coupled pair/coupled cluster methods
   Ingolf Harden          : AUTO-CI MPn and infrastructure 
   Benjamin Helmich-Paris : MC-RPA, TRAH-(SCF,CASSCF), AVAS, COSX integrals, SCF dyn. polar.
   Lee Huntington         : MR-EOM, pCC
   Robert Izsak           : Overlap fitted RIJCOSX, COSX-SCS-MP3, EOM
   Riya Kayal             : Wick's Theorem for AUTO-CI, AUTO-CI UHF-CCSDT
   Emily Kempfer          : AUTO-CI, RHF CISDT and CCSDT
   Christian Kollmar      : KDIIS, OOCD, Brueckner-CCSD(T), CCSD density, CASPT2, CASPT2-K, improved NEVPT2
   Axel Koslowski         : Symmetry handling
   Simone Kossmann        : Meta GGA functionals, TD-DFT gradient, OOMP2, (MP2 Hessian; deprecated post 5.0)
   Lucas Lang             : DCDCAS
   Marvin Lechner         : AUTO-CI (C++ implementation), FIC-MRCC
   Spencer Leger          : CASSCF response
   Dagmar Lenk            : GEPOL surface, SMD, ORCA-2-JSON
   Dimitrios Liakos       : Extrapolation schemes; Compound Job, initial MDCI parallelization
   Dimitrios Manganas     : Further ROCIS development; embedding schemes. LFT, Crystal Embedding
   Dimitrios Pantazis     : SARC Basis sets
   Anastasios Papadopoulos: AUTO-CI, single reference methods and gradients
   Taras Petrenko         : pre 6.0 DFT Hessian and TD-DFT gradient, (ASA, deprecated), ECA, 1-Electron XAS/XES, NRVS
   Peter Pinski           : DLPNO-MP2, DLPNO-MP2 Gradient
   Christoph Reimann      : Effective Core Potentials
   Marius Retegan         : Local ZFS, SOC
   Christoph Riplinger    : Optimizer, TS searches, QM/MM, DLPNO-CCSD(T), (RO)-DLPNO pert. Triples
   Michael Roemelt        : Original ROCIS implementation
   Masaaki Saitow         : Open-shell DLPNO-CCSD energy and density
   Barbara Sandhoefer     : DKH picture change effects
   Kantharuban Sivalingam : CASSCF convergence/infrastructure, NEVPT2 and variants, FIC-MRCI
   Bernardo de Souza      : ESD, SOC TD-DFT
   Georgi Stoychev        : AutoAux, RI-MP2 NMR, DLPNO-MP2 response, X2C
   Van Anh Tran           : RI-MP2 g-tensors
   Willem Van den Heuvel  : Paramagnetic NMR
   Zikuan Wang            : NOTCH, Electric field optimization 
   Frank Wennmohs         : Technical directorship and infrastructure
   Hang Xu                : AUTO-CI-Response properties 


 We gratefully acknowledge several colleagues who have allowed us to
 interface, adapt or use parts of their codes:
   Stefan Grimme, W. Hujo, H. Kruse, P. Pracht,  : VdW corrections, initial TS optimization,
                  C. Bannwarth, S. Ehlert,         DFT functionals, gCP, sTDA/sTD-DF
                  L. Wittmann, M. Mueller
   Ed Valeev, F. Pavosevic, A. Kumar             : LibInt (2-el integral package), F12 methods
   Garnet Chan, S. Sharma, J. Yang, R. Olivares  : DMRG
   Ulf Ekstrom                                   : XCFun DFT Library
   Mihaly Kallay                                 : mrcc  (arbitrary order and MRCC methods)
   Frank Weinhold                                : gennbo (NPA and NBO analysis)
   Simon Mueller                                 : openCOSMO-RS
   Christopher J. Cramer and Donald G. Truhlar   : smd solvation model
   Lars Goerigk                                  : TD-DFT with DH, B97 family of functionals
   V. Asgeirsson, H. Jonsson                     : NEB implementation
   FAccTs GmbH                                   : IRC, NEB, NEB-TS, DLPNO-Multilevel, CI-OPT
                                                   MM, QMMM, 2- and 3-layer-ONIOM, Crystal-QMMM,
                                                   LR-CPCM, SF, NACMEs, symmetry and pop. for TD-DFT,
                                                   nearIR, NL-DFT gradient (VV10), updates on ESD,
                                                   ML-optimized integration grids, MBIS, APM,
                                                   GOAT, DOCKER, SOLVATOR, interface openCOSMO-RS
   S Lehtola, MJT Oliveira, MAL Marques          : LibXC Library
   Liviu Ungur et al                             : ANISO software


 Your calculation uses the libint2 library for the computation of 2-el integrals
 For citations please refer to: http://libint.valeyev.net

 Your ORCA version has been built with support for libXC version: 6.2.2
 For citations please refer to: https://libxc.gitlab.io

 This ORCA versions uses:
   CBLAS   interface :  Fast vector & matrix operations
   LAPACKE interface :  Fast linear algebra routines
   SCALAPACK package :  Parallel linear algebra routines
   Shared memory     :  Shared parallel matrices
   BLAS/LAPACK       :  OpenBLAS 0.3.27  USE64BITINT DYNAMIC_ARCH NO_AFFINITY SkylakeX SINGLE_THREADED
        Core in use  :  SkylakeX
   Copyright (c) 2011-2014, The OpenBLAS Project


Your calculation utilizes the geometrical counterpoise correction gCP
Please cite in your paper:
H.Kruse, S. Grimme J.Chem.Phys., 136, (2012), 154101 
   

Your calculation utilizes the atom-pairwise dispersion correction
based on EEQ partial charges (D4)


================================================================================

----- Orbital basis set information -----
Your calculation utilizes the basis: def2-SV(P)
   F. Weigend and R. Ahlrichs, Phys. Chem. Chem. Phys. 7, 3297 (2005).

----- AuxJ basis set information -----
Your calculation utilizes the auxiliary basis: def2/J
   F. Weigend, Phys. Chem. Chem. Phys. 8, 1057 (2006).

================================================================================
                                        WARNINGS
                       Please study these warnings very carefully!
================================================================================


================================================================================
                                       INPUT FILE
================================================================================
NAME = sp.inp
|  1> ! pbe def2-sv(p) def2/J RI DEFGRID1 loosescf d4 GCP(DFT/SV(P)) printgap
|  2> %output
|  3>     printlevel normal
|  4> end
|  5> * xyz 0 1
|  6> C -2.2376048469 -1.1686915149 0.0488814286
|  7> C -0.8616686855 -0.5741462931 0.3902584576
|  8> H -0.7976285011 -0.372082092 1.4707410044
|  9> C -0.628819505 0.7493280901 -0.3500687725
| 10> H -0.7561611916 0.5761785175 -1.4317115778
| 11> C 0.8050712919 1.2698202783 -0.1302954718
| 12> H 0.7327949224 2.118728124 0.5595554984
| 13> C 1.7157076078 0.2035961361 0.5158736105
| 14> H 2.7592876462 0.4602192061 0.2798097374
| 15> C 1.4295705642 -1.1595415995 -0.1381619507
| 16> H 2.0332185369 -1.955956364 0.3194952761
| 17> O 0.0893643513 -1.5698656488 0.0347457735
| 18> O 1.7979792606 -1.1529805802 -1.4805555003
| 19> O 1.5001035456 0.2065291456 1.9021096907
| 20> O 1.31320781 1.6543822151 -1.3878702895
| 21> O -1.5145817174 1.746652829 0.0901135585
| 22> O -3.3023580437 -0.3721657738 0.5070525253
| 23> H -2.2810495575 -2.1835493171 0.4555241937
| 24> H -2.3396772221 -1.2312883115 -1.0372105144
| 25> H 1.5006103187 -0.3307987776 -1.9112539408
| 26> H 2.1442198573 -0.3681191831 2.3410457988
| 27> H 2.0055358531 2.3223403883 -1.2865458734
| 28> H -2.4199914821 1.3855758862 0.0713018836
| 29> H -3.383852913 -0.4583873161 1.467708921
| 30> *
| 31> 
| 32>                          ****END OF INPUT****
================================================================================

                       ****************************
                       * Single Point Calculation *
                       ****************************

---------------------------------
CARTESIAN COORDINATES (ANGSTROEM)
---------------------------------
  C     -2.237605   -1.168692    0.048881
  C     -0.861669   -0.574146    0.390258
  H     -0.797629   -0.372082    1.470741
  C     -0.628820    0.749328   -0.350069
  H     -0.756161    0.576179   -1.431712
  C      0.805071    1.269820   -0.130295
  H      0.732795    2.118728    0.559555
  C      1.715708    0.203596    0.515874
  H      2.759288    0.460219    0.279810
  C      1.429571   -1.159542   -0.138162
  H      2.033219   -1.955956    0.319495
  O      0.089364   -1.569866    0.034746
  O      1.797979   -1.152981   -1.480556
  O      1.500104    0.206529    1.902110
  O      1.313208    1.654382   -1.387870
  O     -1.514582    1.746653    0.090114
  O     -3.302358   -0.372166    0.507053
  H     -2.281050   -2.183549    0.455524
  H     -2.339677   -1.231288   -1.037211
  H      1.500610   -0.330799   -1.911254
  H      2.144220   -0.368119    2.341046
  H      2.005536    2.322340   -1.286546
  H     -2.419991    1.385576    0.071302
  H     -3.383853   -0.458387    1.467709

----------------------------
CARTESIAN COORDINATES (A.U.)
----------------------------
  NO LB      ZA    FRAG     MASS         X           Y           Z
   0 C     6.0000    0    12.011   -4.228460   -2.208507    0.092373
   1 C     6.0000    0    12.011   -1.628318   -1.084979    0.737482
   2 H     1.0000    0     1.008   -1.507299   -0.703133    2.779298
   3 C     6.0000    0    12.011   -1.188297    1.416025   -0.661534
   4 H     1.0000    0     1.008   -1.428938    1.088820   -2.705543
   5 C     6.0000    0    12.011    1.521364    2.399613   -0.246223
   6 H     1.0000    0     1.008    1.384782    4.003816    1.057407
   7 C     6.0000    0    12.011    3.242218    0.384741    0.974860
   8 H     1.0000    0     1.008    5.214298    0.869688    0.528764
   9 C     6.0000    0    12.011    2.701497   -2.191216   -0.261088
  10 H     1.0000    0     1.008    3.842226   -3.696222    0.603759
  11 O     8.0000    0    15.999    0.168874   -2.966616    0.065660
  12 O     8.0000    0    15.999    3.397688   -2.178818   -2.797844
  13 O     8.0000    0    15.999    2.834785    0.390284    3.594466
  14 O     8.0000    0    15.999    2.481603    3.126329   -2.622695
  15 O     8.0000    0    15.999   -2.862145    3.300695    0.170290
  16 O     8.0000    0    15.999   -6.240552   -0.703291    0.958190
  17 H     1.0000    0     1.008   -4.310559   -4.126310    0.860816
  18 H     1.0000    0     1.008   -4.421349   -2.326798   -1.960044
  19 H     1.0000    0     1.008    2.835743   -0.625119   -3.611747
  20 H     1.0000    0     1.008    4.051988   -0.695644    4.423935
  21 H     1.0000    0     1.008    3.789914    4.388587   -2.431219
  22 H     1.0000    0     1.008   -4.573121    2.618359    0.134741
  23 H     1.0000    0     1.008   -6.394555   -0.866226    2.773568

--------------------------------
INTERNAL COORDINATES (ANGSTROEM)
--------------------------------
 C      0   0   0     0.000000000000     0.00000000     0.00000000
 C      1   0   0     1.537277664231     0.00000000     0.00000000
 H      2   1   0     1.101078389818   109.93440043     0.00000000
 C      2   1   3     1.534238440228   111.24196846   240.61727392
 H      4   2   1     1.102790931181   108.68212138   304.32932738
 C      4   2   1     1.541186309021   111.32885861   186.14120662
 H      6   4   2     1.096249408285   106.85307234   253.78880894
 C      6   4   2     1.543899900954   112.03764873    11.97927325
 H      8   6   4     1.100291256344   107.97260958   157.53948653
 C      8   6   4     1.538759698345   108.91780306    41.72548055
 H     10   8   6     1.099143980241   111.27089151   182.04526513
 O     10   8   6     1.412237798537   112.44623665   299.58306980
 O     10   8   6     1.392044703508   110.88492368    65.51302269
 O      8   6   4     1.402905621997   108.75162824   277.98911209
 O      6   4   2     1.409817373412   107.47294620   133.46465068
 O      4   2   1     1.404632270832   111.44230859    66.01400678
 O      1   2   3     1.406439966789   112.71981195    53.87213417
 H      1   2   3     1.094158187820   108.16351466   289.51948539
 H      1   2   3     1.092672337608   109.05623052   172.04480473
 H     13  10   8     0.974634470344   110.44903128   315.77046733
 H     14   8   6     0.968385993119   110.14622849   187.62799930
 H     15   6   4     0.967343205747   110.66337710   154.87580274
 H     16   4   2     0.974934500235   108.45859750   309.94453916
 H     17   1   2     0.967954688339   109.66995385   286.08068948

---------------------------
INTERNAL COORDINATES (A.U.)
---------------------------
 C      0   0   0     0.000000000000     0.00000000     0.00000000
 C      1   0   0     2.905033777190     0.00000000     0.00000000
 H      2   1   0     2.080736608734   109.93440043     0.00000000
 C      2   1   3     2.899290476166   111.24196846   240.61727392
 H      4   2   1     2.083972842904   108.68212138   304.32932738
 C      4   2   1     2.912420045398   111.32885861   186.14120662
 H      6   4   2     2.071611156132   106.85307234   253.78880894
 C      6   4   2     2.917547990992   112.03764873    11.97927325
 H      8   6   4     2.079249142038   107.97260958   157.53948653
 C      8   6   4     2.907834415787   108.91780306    41.72548055
 H     10   8   6     2.077081104404   111.27089151   182.04526513
 O     10   8   6     2.668742675208   112.44623665   299.58306980
 O     10   8   6     2.630583255806   110.88492368    65.51302269
 O      8   6   4     2.651107417312   108.75162824   277.98911209
 O      6   4   2     2.664168734594   107.47294620   133.46465068
 O      4   2   1     2.654370310740   111.44230859    66.01400678
 O      1   2   3     2.657786361033   112.71981195    53.87213417
 H      1   2   3     2.067659322167   108.16351466   289.51948539
 H      1   2   3     2.064851472190   109.05623052   172.04480473
 H     13  10   8     1.841792229629   110.44903128   315.77046733
 H     14   8   6     1.829984318921   110.14622849   187.62799930
 H     15   6   4     1.828013736372   110.66337710   154.87580274
 H     16   4   2     1.842359203956   108.45859750   309.94453916
 H     17   1   2     1.829169271006   109.66995385   286.08068948

---------------------
BASIS SET INFORMATION
---------------------
There are 3 groups of distinct atoms

 Group   1 Type C   : 7s4p1d contracted to 3s2p1d pattern {511/31/1}
 Group   2 Type H   : 4s contracted to 2s pattern {31}
 Group   3 Type O   : 7s4p1d contracted to 3s2p1d pattern {511/31/1}

Atom   0C    basis set group =>   1
Atom   1C    basis set group =>   1
Atom   2H    basis set group =>   2
Atom   3C    basis set group =>   1
Atom   4H    basis set group =>   2
Atom   5C    basis set group =>   1
Atom   6H    basis set group =>   2
Atom   7C    basis set group =>   1
Atom   8H    basis set group =>   2
Atom   9C    basis set group =>   1
Atom  10H    basis set group =>   2
Atom  11O    basis set group =>   3
Atom  12O    basis set group =>   3
Atom  13O    basis set group =>   3
Atom  14O    basis set group =>   3
Atom  15O    basis set group =>   3
Atom  16O    basis set group =>   3
Atom  17H    basis set group =>   2
Atom  18H    basis set group =>   2
Atom  19H    basis set group =>   2
Atom  20H    basis set group =>   2
Atom  21H    basis set group =>   2
Atom  22H    basis set group =>   2
Atom  23H    basis set group =>   2
---------------------------------
AUXILIARY/J BASIS SET INFORMATION
---------------------------------
There are 3 groups of distinct atoms

 Group   1 Type C   : 12s5p4d2f1g contracted to 6s4p3d1f1g pattern {711111/2111/211/2/1}
 Group   2 Type H   : 5s2p1d contracted to 3s1p1d pattern {311/2/1}
 Group   3 Type O   : 12s5p4d2f1g contracted to 6s4p3d1f1g pattern {711111/2111/211/2/1}

Atom   0C    basis set group =>   1
Atom   1C    basis set group =>   1
Atom   2H    basis set group =>   2
Atom   3C    basis set group =>   1
Atom   4H    basis set group =>   2
Atom   5C    basis set group =>   1
Atom   6H    basis set group =>   2
Atom   7C    basis set group =>   1
Atom   8H    basis set group =>   2
Atom   9C    basis set group =>   1
Atom  10H    basis set group =>   2
Atom  11O    basis set group =>   3
Atom  12O    basis set group =>   3
Atom  13O    basis set group =>   3
Atom  14O    basis set group =>   3
Atom  15O    basis set group =>   3
Atom  16O    basis set group =>   3
Atom  17H    basis set group =>   2
Atom  18H    basis set group =>   2
Atom  19H    basis set group =>   2
Atom  20H    basis set group =>   2
Atom  21H    basis set group =>   2
Atom  22H    basis set group =>   2
Atom  23H    basis set group =>   2
------------------------------------------------------------------------------
                             ORCA STARTUP CALCULATIONS
                           -- RI-GTO INTEGRALS CHOSEN --
------------------------------------------------------------------------------
------------------------------------------------------------------------------
                   ___                                                        
                  /   \      - P O W E R E D   B Y -                         
                 /     \                                                     
                 |  |  |   _    _      __       _____    __    __             
                 |  |  |  | |  | |    /  \     |  _  \  |  |  /  |          
                  \  \/   | |  | |   /    \    | | | |  |  | /  /          
                 / \  \   | |__| |  /  /\  \   | |_| |  |  |/  /          
                |  |  |   |  __  | /  /__\  \  |    /   |      \           
                |  |  |   | |  | | |   __   |  |    \   |  |\   \          
                \     /   | |  | | |  |  |  |  | |\  \  |  | \   \       
                 \___/    |_|  |_| |__|  |__|  |_| \__\ |__|  \__/        
                                                                              
                      - O R C A' S   B I G   F R I E N D -                    
                                      &                                       
                       - I N T E G R A L  F E E D E R -                       
                                                                              
 v1 FN, 2020, v2 2021, v3 2022-2024                                           
------------------------------------------------------------------------------


----------------------
SHARK INTEGRAL PACKAGE
----------------------

Number of atoms                             ...     24
Number of basis functions                   ...    192
Number of shells                            ...     96
Maximum angular momentum                    ...      2
Integral batch strategy                     ... SHARK/LIBINT Hybrid
RI-J (if used) integral strategy            ... SPLIT-RIJ (Revised 2003 algorithm where possible)
Printlevel                                  ...      1
Contraction scheme used                     ... SEGMENTED contraction
Prescreening option                         ... SCHWARTZ
   Thresh                                   ... 1.000e-09
   Tcut                                     ... 1.000e-10
   Tpresel                                  ... 1.000e-10 
Coulomb Range Separation                    ... NOT USED
Exchange Range Separation                   ... NOT USED
Multipole approximations                    ... NOT USED
Finite Nucleus Model                        ... NOT USED
CABS basis                                  ... NOT available
Auxiliary Coulomb fitting basis             ... AVAILABLE
   # of basis functions in Aux-J            ...    720
   # of shells in Aux-J                     ...    240
   Maximum angular momentum in Aux-J        ...      4
Auxiliary J/K fitting basis                 ... NOT available
Auxiliary Correlation fitting basis         ... NOT available
Auxiliary 'external' fitting basis          ... NOT available

Checking pre-screening integrals            ... done (  0.0 sec) Dimension = 96
Check shell pair data                       ... done (  0.0 sec)
Shell pair information
Shell pair cut-off parameter TPreSel        ...   1.0e-10
Total number of shell pairs                 ...      4656
Shell pairs after pre-screening             ...      4231
Total number of primitive shell pairs       ...     18720
Primitive shell pairs kept                  ...     11355
          la=0 lb=0:   1638 shell pairs
          la=1 lb=0:   1347 shell pairs
          la=1 lb=1:    292 shell pairs
          la=2 lb=0:    622 shell pairs
          la=2 lb=1:    266 shell pairs
          la=2 lb=2:     66 shell pairs

Calculating one electron integrals          ... done (  0.0 sec)
Calculating RI/J V-Matrix + Cholesky decomp.... done (  0.1 sec)
Calculating Nuclear repulsion               ... done (  0.0 sec) ENN=    846.731990949144 Eh

Diagonalization of the overlap matrix:
Smallest eigenvalue                        ... 4.957e-04
Time for diagonalization                   ...    0.003 sec
Threshold for overlap eigenvalues          ... 1.000e-07
Number of eigenvalues below threshold      ... 0
Time for construction of square roots      ...    0.013 sec
Total time needed                          ...    0.025 sec

-------------------
DFT GRID GENERATION
-------------------

General Integration Accuracy     IntAcc      ... 4.159
Radial Grid Type                 RadialGrid  ... OptM3 with GC (2021)
Angular Grid (max. ang.)         AngularGrid ... 3 (Lebedev-194)
Angular grid pruning method      GridPruning ... 4 (adaptive)
Weight generation scheme         WeightScheme... mBecke (2022)
Basis function cutoff            BFCut       ... 1.0000e-10
Integration weight cutoff        WCut        ... 1.0000e-14
Partially contracted basis set               ... off
Rotationally invariant grid construction     ... off
Angular grids for H and He will be reduced by one unit

Total number of grid points                  ...    55649
Total number of batches                      ...      884
Average number of points per batch           ...       62
Average number of grid points per atom       ...     2319
Initializing property integral containers    ... done (  0.0 sec)

SHARK setup successfully completed in   0.9 seconds

Maximum memory used throughout the entire STARTUP-calculation: 28.1 MB
-------------------------------------------------------------------------------
                                 ORCA GUESS
                   Start orbitals & Density for SCF / CASSCF
-------------------------------------------------------------------------------

------------
SCF SETTINGS
------------
Hamiltonian:
 Density Functional     Method          .... DFT(GTOs)
 Exchange Functional    Exchange        .... PBE
   PBE kappa parameter   XKappa         ....  0.804000
   PBE mue parameter    XMuePBE         ....  0.219520
 Correlation Functional Correlation     .... PBE
   PBE beta parameter  CBetaPBE         ....  0.066725
 LDA part of GGA corr.  LDAOpt          .... PW91-LDA
 Gradients option       PostSCFGGA      .... off
   NL short-range parameter             ....  6.400000
 RI-approximation to the Coulomb term is turned on
   Number of AuxJ basis functions       .... 720


General Settings:
 Integral files         IntName         .... sp
 Hartree-Fock type      HFTyp           .... RHF
 Total Charge           Charge          ....    0
 Multiplicity           Mult            ....    1
 Number of Electrons    NEL             ....   96
 Basis Dimension        Dim             ....  192
 Nuclear Repulsion      ENuc            ....    846.7319909491 Eh

Convergence Acceleration:
 AO-DIIS                CNVDIIS         .... on
   Start iteration      DIISMaxIt       ....    12
   Startup error        DIISStart       ....  0.200000
   # of expansion vecs  DIISMaxEq       ....     5
   Bias factor          DIISBfac        ....   1.050
   Max. coefficient     DIISMaxC        ....  10.000
 MO-DIIS                CNVKDIIS        .... off
 Trust-Rad. Augm. Hess. CNVTRAH         .... auto
   Auto Start mean grad. ratio tolernc. ....  1.125000
   Auto Start start iteration           ....    50
   Auto Start num. interpolation iter.  ....    10
   Max. Number of Micro iterations      ....    24
   Max. Number of Macro iterations      .... Maxiter - #DIIS iter
   Number of Davidson start vectors     ....     2
   Converg. threshold    (grad. norm)   ....   1.000e-04
   Grad. Scal. Fac. for Micro threshold ....   0.100
   Minimum threshold for Micro iter.    ....   1.000e-02
   NR start threshold (gradient norm)   ....   1.000e-04
   Initial trust radius                 ....   0.400
   Minimum AH scaling param. (alpha)    ....   1.000
   Maximum AH scaling param. (alpha)    .... 1000.000
   Quad. conv. algorithm                .... NR
   White noise on init. David. guess    .... on
   Maximum white noise                  ....   0.010
   Pseudo random numbers                .... off
   Inactive MOs                         .... canonical
   Orbital update algorithm             .... Taylor
   Preconditioner                       .... Diag
   Full preconditioner red. dimension   ....   250
 SOSCF                  CNVSOSCF        .... on
   Start iteration      SOSCFMaxIt      ....   150
   Startup grad/error   SOSCFStart      ....  0.003300
   Hessian update       SOSCFHessUp     .... L-BFGS
 Level Shifting         CNVShift        .... on
   Level shift para.    LevelShift      ....    0.2500
   Turn off err/grad.   ShiftErr        ....    0.0010
 Zerner damping         CNVZerner       .... off
 Static damping         CNVDamp         .... on
   Fraction old density DampFac         ....    0.7000
   Max. Damping (<1)    DampMax         ....    0.9800
   Min. Damping (>=0)   DampMin         ....    0.0000
   Turn off err/grad.   DampErr         ....    0.1000

SCF Procedure:
 Maximum # iterations   MaxIter         ....   125
 SCF integral mode      SCFMode         .... Direct
   Integral package                     .... SHARK and LIBINT hybrid scheme
 Reset frequency        DirectResetFreq ....    20
 Integral Threshold     Thresh          ....  1.000e-09 Eh
 Primitive CutOff       TCut            ....  1.000e-10 Eh

Convergence Tolerance:
 Convergence Check Mode ConvCheckMode   .... Total+1el-Energy
 Convergence forced     ConvForced      .... 0
 Energy Change          TolE            ....  1.000e-05 Eh
 1-El. energy change                    ....  1.000e-02 Eh
 Orbital Gradient       TolG            ....  1.000e-04
 Orbital Rotation angle TolX            ....  1.000e-04
 DIIS Error             TolErr          ....  5.000e-04

------------------------------
INITIAL GUESS: MODEL POTENTIAL
------------------------------
Loading Hartree-Fock densities                     ... done
Calculating cut-offs                               ... done
Initializing the effective Hamiltonian             ... done
Setting up the integral package (SHARK)            ... done
Starting the Coulomb interaction                   ... done (   0.2 sec)
Making the grid                                    ... done (   0.3 sec)
Mapping shells                                     ... done
Starting the XC term evaluation                    ... done (   0.3 sec)
  promolecular density results
     # of electrons  =     95.987547897
     EX              =    -83.236196714
     EC              =     -3.272801847
     EX+EC           =    -86.508998562
Transforming the Hamiltonian                       ... done (   0.0 sec)
Diagonalizing the Hamiltonian                      ... done (   0.0 sec)
Back transforming the eigenvectors                 ... done (   0.0 sec)
Now organizing SCF variables                       ... done
                      ------------------
                      INITIAL GUESS DONE (   0.8 sec)
                      ------------------
             **** ENERGY FILE WAS UPDATED (sp.en.tmp) ****
Finished Guess after   1.0 sec
Maximum memory used throughout the entire GUESS-calculation: 21.9 MB

-------------------------------------------------------------------------------------------
                                      ORCA LEAN-SCF
                              memory conserving SCF solver
-------------------------------------------------------------------------------------------

----------------------------------------D-I-I-S--------------------------------------------
Iteration    Energy (Eh)           Delta-E    RMSDP     MaxDP     DIISErr   Damp  Time(sec)
-------------------------------------------------------------------------------------------
               ***  Starting incremental Fock matrix formation  ***
    1    -685.5278503037307019     0.00e+00  4.84e-03  1.97e-01  2.25e-01  0.700   1.2
    2    -685.6748919982524058    -1.47e-01  3.17e-03  1.38e-01  9.17e-02  0.700   1.2
                               ***Turning on AO-DIIS***
    3    -685.7216973864508418    -4.68e-02  1.15e-03  3.77e-02  2.03e-02  0.700   1.2
    4    -685.7527715501792045    -3.11e-02  1.51e-03  2.28e-02  1.03e-02  0.000   1.1
    5    -685.8244875714444788    -7.17e-02  4.75e-04  2.29e-02  4.86e-03  0.000   1.1
                              *** Initializing SOSCF ***
---------------------------------------S-O-S-C-F--------------------------------------
Iteration    Energy (Eh)           Delta-E    RMSDP     MaxDP     MaxGrad    Time(sec)
--------------------------------------------------------------------------------------
    6    -685.8247916133798299    -3.04e-04  1.38e-04  4.59e-03  1.18e-03     1.1
               *** Restarting incremental Fock matrix formation ***
    7    -685.8248182554327741    -2.66e-05  8.75e-05  2.93e-03  1.68e-04     1.2
    8    -685.8248188565919463    -6.01e-07  3.30e-05  9.03e-04  1.62e-04     1.0
                 **** Energy Check signals convergence ****

               *****************************************************
               *                     SUCCESS                       *
               *           SCF CONVERGED AFTER   8 CYCLES          *
               *****************************************************

             **** ENERGY FILE WAS UPDATED (sp.en.tmp) ****

----------------
TOTAL SCF ENERGY
----------------

Total Energy       :       -685.82481885659195 Eh          -18662.24209 eV

Components:
Nuclear Repulsion  :        846.73199094914435 Eh           23040.74884 eV
Electronic Energy  :      -1532.55680980573629 Eh          -41702.99093 eV
One Electron Energy:      -2622.75466630106757 Eh          -71368.78279 eV
Two Electron Energy:       1090.19785649533128 Eh           29665.79185 eV

Virial components:
Potential Energy   :      -1366.90971576967172 Eh          -37195.50435 eV
Kinetic Energy     :        681.08489691307977 Eh           18533.26226 eV
Virial Ratio       :          2.00695937021214

DFT components:
N(Alpha)           :       48.000089272390 electrons
N(Beta)            :       48.000089272390 electrons
N(Total)           :       96.000178544779 electrons
E(X)               :      -84.598294263419 Eh       
E(C)               :       -3.284276880690 Eh       
E(XC)              :      -87.882571144108 Eh       

---------------
SCF CONVERGENCE
---------------

  Last Energy change         ...    6.0116e-07  Tolerance :   1.0000e-05
  Last MAX-Density change    ...    9.0310e-04  Tolerance :   1.0000e-03
  Last RMS-Density change    ...    3.3007e-05  Tolerance :   1.0000e-04
  Last DIIS Error            ...    1.1752e-03  Tolerance :   5.0000e-04
  Last Orbital Gradient      ...    1.6239e-04  Tolerance :   1.0000e-04
  Last Orbital Rotation      ...    1.3070e-04  Tolerance :   1.0000e-04


----------------
ORBITAL ENERGIES
----------------

  NO   OCC          E(Eh)            E(eV) 
   0   2.0000     -18.772948      -510.8379 
   1   2.0000     -18.772195      -510.8174 
   2   2.0000     -18.766123      -510.6522 
   3   2.0000     -18.759115      -510.4615 
   4   2.0000     -18.741521      -509.9827 
   5   2.0000     -18.736205      -509.8380 
   6   2.0000      -9.979152      -271.5465 
   7   2.0000      -9.948277      -270.7064 
   8   2.0000      -9.947962      -270.6978 
   9   2.0000      -9.938257      -270.4337 
  10   2.0000      -9.937861      -270.4229 
  11   2.0000      -9.935493      -270.3585 
  12   2.0000      -0.971840       -26.4451 
  13   2.0000      -0.947574       -25.7848 
  14   2.0000      -0.945396       -25.7255 
  15   2.0000      -0.937349       -25.5066 
  16   2.0000      -0.914660       -24.8892 
  17   2.0000      -0.898715       -24.4553 
  18   2.0000      -0.703037       -19.1306 
  19   2.0000      -0.688764       -18.7422 
  20   2.0000      -0.622159       -16.9298 
  21   2.0000      -0.584233       -15.8978 
  22   2.0000      -0.567905       -15.4535 
  23   2.0000      -0.518095       -14.0981 
  24   2.0000      -0.511476       -13.9180 
  25   2.0000      -0.488254       -13.2861 
  26   2.0000      -0.471101       -12.8193 
  27   2.0000      -0.468026       -12.7356 
  28   2.0000      -0.449633       -12.2351 
  29   2.0000      -0.443379       -12.0650 
  30   2.0000      -0.418005       -11.3745 
  31   2.0000      -0.393117       -10.6973 
  32   2.0000      -0.382110       -10.3977 
  33   2.0000      -0.372605       -10.1391 
  34   2.0000      -0.364133        -9.9086 
  35   2.0000      -0.346635        -9.4324 
  36   2.0000      -0.323427        -8.8009 
  37   2.0000      -0.317420        -8.6374 
  38   2.0000      -0.301327        -8.1995 
  39   2.0000      -0.296972        -8.0810 
  40   2.0000      -0.289714        -7.8835 
  41   2.0000      -0.274256        -7.4629 
  42   2.0000      -0.252091        -6.8598 
  43   2.0000      -0.248765        -6.7692 
  44   2.0000      -0.229421        -6.2429 
  45   2.0000      -0.218943        -5.9577 
  46   2.0000      -0.214362        -5.8331 
  47   2.0000      -0.199655        -5.4329 
  48   0.0000       0.009689         0.2636 
  49   0.0000       0.013162         0.3582 
  50   0.0000       0.015732         0.4281 
  51   0.0000       0.056219         1.5298 
  52   0.0000       0.070870         1.9285 
  53   0.0000       0.079006         2.1499 
  54   0.0000       0.090915         2.4739 
  55   0.0000       0.094680         2.5764 
  56   0.0000       0.101484         2.7615 
  57   0.0000       0.108200         2.9443 
  58   0.0000       0.120094         3.2679 
*Only the first 10 virtual orbitals were printed.

                    ********************************
                    * MULLIKEN POPULATION ANALYSIS *
                    ********************************

-----------------------
MULLIKEN ATOMIC CHARGES
-----------------------
   0 C :    0.066362
   1 C :    0.025339
   2 H :    0.056381
   3 C :    0.038423
   4 H :    0.051711
   5 C :    0.061322
   6 H :    0.081199
   7 C :   -0.007948
   8 H :    0.061054
   9 C :    0.198871
  10 H :    0.049288
  11 O :   -0.309777
  12 O :   -0.401174
  13 O :   -0.404802
  14 O :   -0.412488
  15 O :   -0.429920
  16 O :   -0.435973
  17 H :    0.095557
  18 H :    0.088042
  19 H :    0.301341
  20 H :    0.308352
  21 H :    0.311852
  22 H :    0.297923
  23 H :    0.309063
Sum of atomic charges:    0.0000000

--------------------------------
MULLIKEN REDUCED ORBITAL CHARGES
--------------------------------
  0 C s       :     3.020226  s :     3.020226
      pz      :     1.063424  p :     2.851664
      px      :     0.829346
      py      :     0.958894
      dz2     :     0.014315  d :     0.061749
      dxz     :     0.008984
      dyz     :     0.006686
      dx2y2   :     0.018283
      dxy     :     0.013481

  1 C s       :     3.043297  s :     3.043297
      pz      :     1.066406  p :     2.865214
      px      :     0.905583
      py      :     0.893225
      dz2     :     0.015930  d :     0.066149
      dxz     :     0.008762
      dyz     :     0.011650
      dx2y2   :     0.012910
      dxy     :     0.016897

  2 H s       :     0.943619  s :     0.943619

  3 C s       :     3.060149  s :     3.060149
      pz      :     1.036139  p :     2.833282
      px      :     0.938074
      py      :     0.859070
      dz2     :     0.016369  d :     0.068145
      dxz     :     0.007793
      dyz     :     0.012521
      dx2y2   :     0.015073
      dxy     :     0.016389

  4 H s       :     0.948289  s :     0.948289

  5 C s       :     3.023607  s :     3.023607
      pz      :     0.775619  p :     2.849799
      px      :     0.992282
      py      :     1.081898
      dz2     :     0.014620  d :     0.065272
      dxz     :     0.014875
      dyz     :     0.018027
      dx2y2   :     0.009636
      dxy     :     0.008114

  6 H s       :     0.918801  s :     0.918801

  7 C s       :     3.062832  s :     3.062832
      pz      :     0.762065  p :     2.877919
      px      :     1.063479
      py      :     1.052374
      dz2     :     0.020421  d :     0.067198
      dxz     :     0.013668
      dyz     :     0.016674
      dx2y2   :     0.010441
      dxy     :     0.005994

  8 H s       :     0.938946  s :     0.938946

  9 C s       :     3.015043  s :     3.015043
      pz      :     0.826899  p :     2.685710
      px      :     0.833698
      py      :     1.025113
      dz2     :     0.024061  d :     0.100375
      dxz     :     0.025294
      dyz     :     0.016547
      dx2y2   :     0.016799
      dxy     :     0.017675

 10 H s       :     0.950712  s :     0.950712

 11 O s       :     3.755467  s :     3.755467
      pz      :     1.771798  p :     4.539625
      px      :     1.210302
      py      :     1.557526
      dz2     :     0.002242  d :     0.014685
      dxz     :     0.001664
      dyz     :     0.001998
      dx2y2   :     0.003577
      dxy     :     0.005203

 12 O s       :     3.759435  s :     3.759435
      pz      :     1.302295  p :     4.626582
      px      :     1.779096
      py      :     1.545190
      dz2     :     0.003556  d :     0.015157
      dxz     :     0.002587
      dyz     :     0.003764
      dx2y2   :     0.002726
      dxy     :     0.002524

 13 O s       :     3.783616  s :     3.783616
      pz      :     1.271235  p :     4.605892
      px      :     1.634296
      py      :     1.700361
      dz2     :     0.003603  d :     0.015295
      dxz     :     0.003753
      dyz     :     0.002772
      dx2y2   :     0.000931
      dxy     :     0.004236

 14 O s       :     3.780476  s :     3.780476
      pz      :     1.466840  p :     4.617063
      px      :     1.549884
      py      :     1.600339
      dz2     :     0.005471  d :     0.014949
      dxz     :     0.002237
      dyz     :     0.002098
      dx2y2   :     0.000554
      dxy     :     0.004590

 15 O s       :     3.776564  s :     3.776564
      pz      :     1.833812  p :     4.638182
      px      :     1.238234
      py      :     1.566136
      dz2     :     0.002724  d :     0.015173
      dxz     :     0.000786
      dyz     :     0.002386
      dx2y2   :     0.003773
      dxy     :     0.005505

 16 O s       :     3.789525  s :     3.789525
      pz      :     1.312620  p :     4.631061
      px      :     1.620125
      py      :     1.698316
      dz2     :     0.007753  d :     0.015387
      dxz     :     0.001126
      dyz     :     0.001205
      dx2y2   :     0.002054
      dxy     :     0.003249

 17 H s       :     0.904443  s :     0.904443

 18 H s       :     0.911958  s :     0.911958

 19 H s       :     0.698659  s :     0.698659

 20 H s       :     0.691648  s :     0.691648

 21 H s       :     0.688148  s :     0.688148

 22 H s       :     0.702077  s :     0.702077

 23 H s       :     0.690937  s :     0.690937


------------------------
MULLIKEN OVERLAP CHARGES
------------------------
B(  0-C ,  1-C ) :   0.5393 B(  0-C ,  2-H ) :  -0.1179 B(  0-C ,  4-H ) :  -0.0605 
B(  0-C , 11-O ) :  -0.0813 B(  0-C , 16-O ) :   0.5968 B(  0-C , 17-H ) :   0.6932 
B(  0-C , 18-H ) :   0.6464 B(  0-C , 23-H ) :  -0.0875 B(  1-C ,  2-H ) :   0.6174 
B(  1-C ,  3-C ) :   0.4905 B(  1-C ,  9-C ) :  -0.1401 B(  1-C , 11-O ) :   0.4984 
B(  1-C , 16-O ) :  -0.0802 B(  1-C , 17-H ) :  -0.0717 B(  2-H ,  5-C ) :  -0.0885 
B(  3-C ,  4-H ) :   0.6132 B(  3-C ,  5-C ) :  -0.0522 B(  3-C ,  9-C ) :  -0.0766 
B(  3-C , 11-O ) :  -0.0562 B(  3-C , 14-O ) :  -0.1151 B(  3-C , 15-O ) :   0.6087 
B(  3-C , 22-H ) :  -0.0629 B(  4-H ,  5-C ) :  -0.0780 B(  4-H , 15-O ) :  -0.0542 
B(  5-C ,  6-H ) :   0.4805 B(  5-C ,  8-H ) :  -0.0880 B(  5-C ,  9-C ) :   0.0859 
B(  5-C , 11-O ) :  -0.0547 B(  5-C , 13-O ) :  -0.0872 B(  5-C , 14-O ) :   0.5224 
B(  5-C , 15-O ) :  -0.1000 B(  5-C , 21-H ) :  -0.0668 B(  7-C ,  8-H ) :   0.6649 
B(  7-C ,  9-C ) :   0.4909 B(  7-C , 10-H ) :  -0.0732 B(  7-C , 12-O ) :  -0.0782 
B(  7-C , 13-O ) :   0.4218 B(  7-C , 14-O ) :  -0.0647 B(  7-C , 20-H ) :  -0.0637 
B(  8-H ,  9-C ) :  -0.0844 B(  9-C , 10-H ) :   0.6792 B(  9-C , 11-O ) :   0.6206 
B(  9-C , 12-O ) :   0.6856 B(  9-C , 13-O ) :  -0.0504 B(  9-C , 19-H ) :  -0.0907 
B( 10-H , 11-O ) :  -0.0797 B( 10-H , 12-O ) :  -0.0805 B( 11-O , 12-O ) :  -0.1429 
B( 12-O , 19-H ) :   0.5340 B( 13-O , 20-H ) :   0.5174 B( 14-O , 19-H ) :   0.0994 
B( 14-O , 21-H ) :   0.5199 B( 15-O , 22-H ) :   0.5217 B( 16-O , 18-H ) :  -0.0547 
B( 16-O , 22-H ) :   0.1188 B( 16-O , 23-H ) :   0.5242 B( 17-H , 18-H ) :  -0.0668 



                     *******************************
                     * LOEWDIN POPULATION ANALYSIS *
                     *******************************

----------------------
LOEWDIN ATOMIC CHARGES
----------------------
   0 C :   -0.128162
   1 C :   -0.085130
   2 H :    0.102218
   3 C :   -0.066139
   4 H :    0.103051
   5 C :   -0.061545
   6 H :    0.121426
   7 C :   -0.101600
   8 H :    0.102680
   9 C :   -0.004309
  10 H :    0.097782
  11 O :   -0.149304
  12 O :   -0.312093
  13 O :   -0.309419
  14 O :   -0.306622
  15 O :   -0.326928
  16 O :   -0.319878
  17 H :    0.108410
  18 H :    0.117103
  19 H :    0.270188
  20 H :    0.291687
  21 H :    0.293996
  22 H :    0.270786
  23 H :    0.291800

-------------------------------
LOEWDIN REDUCED ORBITAL CHARGES
-------------------------------
  0 C s       :     2.923912  s :     2.923912
      pz      :     1.100292  p :     3.062606
      px      :     0.934062
      py      :     1.028252
      dz2     :     0.033805  d :     0.141644
      dxz     :     0.017788
      dyz     :     0.014146
      dx2y2   :     0.043606
      dxy     :     0.032301

  1 C s       :     2.904287  s :     2.904287
      pz      :     1.095243  p :     3.026835
      px      :     0.959993
      py      :     0.971598
      dz2     :     0.036960  d :     0.154008
      dxz     :     0.017682
      dyz     :     0.028311
      dx2y2   :     0.031535
      dxy     :     0.039520

  2 H s       :     0.897782  s :     0.897782

  3 C s       :     2.893361  s :     2.893361
      pz      :     1.073180  p :     3.013324
      px      :     0.976173
      py      :     0.963971
      dz2     :     0.039070  d :     0.159454
      dxz     :     0.016066
      dyz     :     0.030480
      dx2y2   :     0.036495
      dxy     :     0.037343

  4 H s       :     0.896949  s :     0.896949

  5 C s       :     2.898110  s :     2.898110
      pz      :     0.911467  p :     3.011441
      px      :     1.039280
      py      :     1.060694
      dz2     :     0.033023  d :     0.151994
      dxz     :     0.032567
      dyz     :     0.042093
      dx2y2   :     0.022549
      dxy     :     0.021761

  6 H s       :     0.878574  s :     0.878574

  7 C s       :     2.902516  s :     2.902516
      pz      :     0.867089  p :     3.039989
      px      :     1.083720
      py      :     1.089179
      dz2     :     0.047616  d :     0.159095
      dxz     :     0.030180
      dyz     :     0.039866
      dx2y2   :     0.025682
      dxy     :     0.015752

  8 H s       :     0.897320  s :     0.897320

  9 C s       :     2.885723  s :     2.885723
      pz      :     0.918895  p :     2.892924
      px      :     0.897298
      py      :     1.076731
      dz2     :     0.056050  d :     0.225662
      dxz     :     0.054061
      dyz     :     0.037144
      dx2y2   :     0.040365
      dxy     :     0.038042

 10 H s       :     0.902218  s :     0.902218

 11 O s       :     3.471311  s :     3.471311
      pz      :     1.782248  p :     4.649125
      px      :     1.277438
      py      :     1.589438
      dz2     :     0.003822  d :     0.028868
      dxz     :     0.003432
      dyz     :     0.002761
      dx2y2   :     0.007796
      dxy     :     0.011056

 12 O s       :     3.527566  s :     3.527566
      pz      :     1.372418  p :     4.757812
      px      :     1.798202
      py      :     1.587192
      dz2     :     0.008001  d :     0.026715
      dxz     :     0.004603
      dyz     :     0.006757
      dx2y2   :     0.003951
      dxy     :     0.003403

 13 O s       :     3.533186  s :     3.533186
      pz      :     1.345664  p :     4.749058
      px      :     1.679681
      py      :     1.723712
      dz2     :     0.008000  d :     0.027175
      dxz     :     0.006664
      dyz     :     0.005201
      dx2y2   :     0.000968
      dxy     :     0.006343

 14 O s       :     3.532351  s :     3.532351
      pz      :     1.534195  p :     4.747779
      px      :     1.585612
      py      :     1.627972
      dz2     :     0.009670  d :     0.026492
      dxz     :     0.004151
      dyz     :     0.003684
      dx2y2   :     0.000978
      dxy     :     0.008010

 15 O s       :     3.531932  s :     3.531932
      pz      :     1.850305  p :     4.768497
      px      :     1.304827
      py      :     1.613366
      dz2     :     0.004241  d :     0.026498
      dxz     :     0.001734
      dyz     :     0.003390
      dx2y2   :     0.006817
      dxy     :     0.010315

 16 O s       :     3.534764  s :     3.534764
      pz      :     1.384286  p :     4.758398
      px      :     1.641603
      py      :     1.732509
      dz2     :     0.013595  d :     0.026715
      dxz     :     0.002301
      dyz     :     0.002125
      dx2y2   :     0.003164
      dxy     :     0.005530

 17 H s       :     0.891590  s :     0.891590

 18 H s       :     0.882897  s :     0.882897

 19 H s       :     0.729812  s :     0.729812

 20 H s       :     0.708313  s :     0.708313

 21 H s       :     0.706004  s :     0.706004

 22 H s       :     0.729214  s :     0.729214

 23 H s       :     0.708200  s :     0.708200


---------------------------------
LOEWDIN BOND ORDERS (THRESH 0.050000)
---------------------------------
B(  0-C ,  1-C ) :   1.0562 B(  0-C ,  3-C ) :   0.0572 B(  0-C , 11-O ) :   0.0688 
B(  0-C , 16-O ) :   1.2270 B(  0-C , 17-H ) :   0.9083 B(  0-C , 18-H ) :   0.9066 
B(  1-C ,  2-H ) :   0.8636 B(  1-C ,  3-C ) :   1.0212 B(  1-C ,  5-C ) :   0.0522 
B(  1-C ,  9-C ) :   0.0592 B(  1-C , 11-O ) :   1.1290 B(  1-C , 15-O ) :   0.0845 
B(  1-C , 16-O ) :   0.0786 B(  3-C ,  4-H ) :   0.8620 B(  3-C ,  5-C ) :   1.0181 
B(  3-C , 11-O ) :   0.0648 B(  3-C , 14-O ) :   0.0637 B(  3-C , 15-O ) :   1.2302 
B(  5-C ,  6-H ) :   0.8677 B(  5-C ,  7-C ) :   1.0151 B(  5-C ,  9-C ) :   0.0547 
B(  5-C , 13-O ) :   0.0595 B(  5-C , 14-O ) :   1.1989 B(  5-C , 15-O ) :   0.0643 
B(  7-C ,  8-H ) :   0.8690 B(  7-C ,  9-C ) :   1.0190 B(  7-C , 11-O ) :   0.0555 
B(  7-C , 12-O ) :   0.0830 B(  7-C , 13-O ) :   1.2171 B(  7-C , 14-O ) :   0.0809 
B(  9-C , 10-H ) :   0.8844 B(  9-C , 11-O ) :   1.1766 B(  9-C , 12-O ) :   1.2913 
B(  9-C , 13-O ) :   0.0796 B( 11-O , 12-O ) :   0.0941 B( 12-O , 19-H ) :   0.8515 
B( 13-O , 20-H ) :   0.8795 B( 14-O , 19-H ) :   0.0725 B( 14-O , 21-H ) :   0.8785 
B( 15-O , 22-H ) :   0.8461 B( 16-O , 22-H ) :   0.0885 B( 16-O , 23-H ) :   0.8844 


------------------------------------------
LOEWDIN REDUCED ORBITAL POPULATIONS PER MO
-------------------------------------------
THRESHOLD FOR PRINTING IS 0.1%%
                      0         1         2         3         4         5   
                 -18.77295 -18.77220 -18.76612 -18.75911 -18.74152 -18.73620
                   2.00000   2.00000   2.00000   2.00000   2.00000   2.00000
                  --------  --------  --------  --------  --------  --------
11 O  s               0.0       0.0       0.0      99.9       0.0       0.0
12 O  s               0.0       0.0       0.0       0.0      99.9       0.0
13 O  s               0.0       0.0      99.9       0.0       0.0       0.0
14 O  s               0.0      99.9       0.0       0.0       0.0       0.0
15 O  s               0.0       0.0       0.0       0.0       0.0      99.9
16 O  s              99.9       0.0       0.0       0.0       0.0       0.0

                      6         7         8         9        10        11   
                  -9.97915  -9.94828  -9.94796  -9.93826  -9.93786  -9.93549
                   2.00000   2.00000   2.00000   2.00000   2.00000   2.00000
                  --------  --------  --------  --------  --------  --------
 0 C  s               0.0       0.0       0.0       0.0      99.6       0.0
 1 C  s               0.0       0.0       0.0       0.0       0.0      99.6
 3 C  s               0.0       0.0       0.0      99.5       0.0       0.0
 5 C  s               0.0      99.0       0.6       0.0       0.0       0.0
 7 C  s               0.0       0.6      99.0       0.0       0.0       0.0
 9 C  s              99.6       0.0       0.0       0.0       0.0       0.0
11 O  px              0.1       0.0       0.0       0.0       0.0       0.0
12 O  pz              0.1       0.0       0.0       0.0       0.0       0.0
13 O  pz              0.0       0.0       0.1       0.0       0.0       0.0

                     12        13        14        15        16        17   
                  -0.97184  -0.94757  -0.94540  -0.93735  -0.91466  -0.89872
                   2.00000   2.00000   2.00000   2.00000   2.00000   2.00000
                  --------  --------  --------  --------  --------  --------
 0 C  s               0.8       8.6       0.5       0.1       0.3       0.2
 0 C  pz              0.0       1.1       0.1       0.0       0.1       0.0
 0 C  px              0.2       3.3       0.8       0.3       1.0       0.6
 0 C  py              0.1       2.5       0.3       0.1       0.1       0.0
 0 C  dxz             0.0       0.2       0.0       0.0       0.0       0.0
 0 C  dxy             0.0       0.4       0.0       0.0       0.1       0.0
 1 C  s               4.3       1.2       0.3       0.3       1.0       3.4
 1 C  pz              0.3       0.0       0.0       0.1       0.2       0.1
 1 C  px              1.5       0.9       1.0       0.2       0.1       1.6
 1 C  py              0.8       0.0       1.0       0.2       0.8       2.2
 1 C  dxy             0.2       0.0       0.1       0.0       0.0       0.2
 2 H  s               0.7       0.2       0.0       0.0       0.2       0.3
 3 C  s               1.7       0.2       1.1       0.1       9.2       0.1
 3 C  pz              0.1       0.1       0.0       0.0       1.0       0.0
 3 C  px              0.2       0.7       0.1       0.0       3.9       0.5
 3 C  py              0.1       0.0       1.0       0.0       2.8       1.3
 3 C  dxy             0.0       0.0       0.0       0.0       0.5       0.0
 4 H  s               0.3       0.0       0.3       0.0       1.0       0.0
 5 C  s               3.1       1.1       6.9       0.1       0.1       0.0
 5 C  pz              0.3       0.5       4.8       1.6       0.2       0.1
 5 C  px              0.2       0.5       0.6       0.0       2.0       0.0
 5 C  py              0.3       0.0       0.8       0.3       0.0       0.0
 5 C  dz2             0.0       0.0       0.2       0.0       0.0       0.0
 5 C  dxz             0.0       0.0       0.2       0.0       0.0       0.0
 5 C  dyz             0.0       0.0       0.1       0.0       0.0       0.0
 6 H  s               0.4       0.1       0.9       0.0       0.1       0.0
 7 C  s               5.3       0.8       0.0       5.6       0.0       0.1
 7 C  pz              0.1       0.2       0.1      10.2       0.0       0.1
 7 C  px              0.6       0.0       0.0       0.0       0.0       0.1
 7 C  py              0.4       0.1       1.4       0.0       0.0       0.0
 7 C  dz2             0.1       0.0       0.0       0.7       0.0       0.0
 8 H  s               0.8       0.1       0.0       0.5       0.0       0.0
 9 C  s              12.2       0.0       2.9       0.9       0.2       0.7
 9 C  pz              0.6       0.0       0.3       1.9       0.6       7.2
 9 C  px              1.8       0.1       0.7       0.3       0.3       6.0
 9 C  py              0.1       0.1       0.2       0.5       0.0       0.4
 9 C  dz2             0.0       0.0       0.0       0.0       0.1       0.9
 9 C  dx2y2           0.1       0.0       0.1       0.1       0.0       0.2
10 H  s               1.5       0.0       0.4       0.1       0.0       0.1
11 O  s              21.6       0.5       7.7       3.2       0.6      20.6
11 O  pz              0.0       0.0       0.0       0.0       0.0       0.2
11 O  px              0.4       0.0       0.2       0.0       0.1       0.2
11 O  py              1.2       0.0       0.3       0.1       0.1       0.9
12 O  s              12.1       0.1       3.4       4.5       3.2      35.3
12 O  pz              0.8       0.0       0.2       0.1       0.0       0.3
12 O  px              0.3       0.0       0.1       0.1       0.0       0.3
12 O  py              0.2       0.0       0.0       0.1       0.1       1.1
13 O  s               7.6       2.5       0.0      48.3       0.0       0.2
13 O  pz              0.3       0.1       0.0       0.7       0.0       0.0
13 O  px              0.2       0.1       0.0       1.3       0.0       0.0
13 O  py              0.1       0.0       0.0       0.7       0.0       0.0
14 O  s               6.2       6.0      40.8       3.0       2.1       1.0
14 O  pz              0.4       0.3       1.8       0.1       0.0       0.0
14 O  px              0.0       0.0       0.2       0.0       0.0       0.0
14 O  py              0.0       0.0       0.2       0.0       0.0       0.0
15 O  s               1.0       1.3       2.2       0.0      48.4       4.3
15 O  pz              0.0       0.0       0.0       0.0       0.3       0.0
15 O  py              0.1       0.1       0.2       0.0       2.6       0.2
16 O  s               1.1      48.1       4.6       1.3       4.8       0.1
16 O  pz              0.0       0.7       0.1       0.0       0.1       0.0
16 O  px              0.1       1.2       0.1       0.0       0.1       0.0
16 O  py              0.0       0.8       0.1       0.0       0.1       0.0
17 H  s               0.1       1.0       0.0       0.0       0.0       0.1
18 H  s               0.1       1.0       0.0       0.0       0.0       0.0
19 H  s               3.0       0.1       0.3       1.0       0.7       6.8
20 H  s               1.5       0.5       0.0       9.7       0.0       0.1
21 H  s               1.2       1.2       8.2       0.6       0.4       0.2
22 H  s               0.3       1.0       0.6       0.0       8.8       0.9
23 H  s               0.2       9.6       0.9       0.3       1.0       0.0

                     18        19        20        21        22        23   
                  -0.70304  -0.68876  -0.62216  -0.58423  -0.56790  -0.51809
                   2.00000   2.00000   2.00000   2.00000   2.00000   2.00000
                  --------  --------  --------  --------  --------  --------
 0 C  s               2.2       8.7      12.3       2.0       5.5       0.1
 0 C  pz              0.0       0.0       0.3       0.5       1.0       0.5
 0 C  px              1.0       3.5       0.2       0.5       2.1       2.1
 0 C  py              0.1       0.0       0.2       0.1       1.7       0.2
 1 C  s               6.5      11.7       0.3       0.5       6.7       0.9
 1 C  pz              0.3       0.1       0.1       0.8       0.3       0.1
 1 C  px              0.2       2.2       4.5       1.3       0.4       0.1
 1 C  py              2.1       0.5       1.1       3.3       5.0       1.7
 1 C  dxy             0.1       0.0       0.1       0.2       0.0       0.0
 2 H  s               1.2       2.0       0.0       0.2       3.1       0.2
 3 C  s              10.7       0.3       4.8       6.0       2.1       1.1
 3 C  pz              0.1       0.0       0.2       0.8       0.5       0.7
 3 C  px              3.9       1.3       2.2       0.0       1.5       0.2
 3 C  py              1.4       2.5       0.2       0.0       5.6       0.3
 3 C  dyz             0.0       0.0       0.0       0.0       0.1       0.0
 3 C  dxy             0.2       0.0       0.0       0.0       0.0       0.0
 4 H  s               2.0       0.2       1.3       2.4       0.4       0.0
 5 C  s              13.0       3.4       1.6       0.1       6.8       0.3
 5 C  pz              1.0       0.7       0.4       1.9       0.1       8.1
 5 C  px              1.0       0.5       5.2       5.1       0.1       1.0
 5 C  py              2.6       0.7       0.3       0.1       1.5       0.2
 5 C  dz2             0.1       0.0       0.0       0.0       0.1       0.1
 6 H  s               2.2       0.7       0.5       0.1       3.0       0.8
 7 C  s               5.6       8.5       7.8       3.8       0.5       0.1
 7 C  pz              1.5       1.8       0.6       0.1       0.0       5.7
 7 C  px              1.2       0.2       0.9       0.0       0.3       2.1
 7 C  py              1.4       0.1       1.2       4.0       4.2       1.4
 8 H  s               0.9       1.6       2.9       1.5       0.2       0.6
 9 C  s               0.2       7.8       4.4       7.6       1.4       0.5
 9 C  pz              0.0       2.0       1.2       0.1       0.5       0.0
 9 C  px              0.7       0.2       2.1       0.1       2.0       3.0
 9 C  py              3.2       0.4       0.9       3.8       0.8       0.8
 9 C  dz2             0.0       0.2       0.0       0.0       0.0       0.0
 9 C  dx2y2           0.1       0.0       0.1       0.0       0.1       0.1
10 H  s               0.1       1.8       1.6       4.4       0.7       0.4
11 O  s               3.6       0.1       1.0       0.8       2.5       0.2
11 O  pz              0.1       0.2       0.0       0.8       0.3       0.3
11 O  px              1.6       8.9       0.1       9.7       0.2       3.0
11 O  py              0.6       0.2       0.1       0.5       1.7       0.2
11 O  dxy             0.0       0.1       0.0       0.0       0.0       0.0
12 O  s               0.0       3.1       0.9       0.9       0.2       0.5
12 O  pz              0.0       1.9       2.2       6.2       1.3       2.1
12 O  px              0.0       0.0       0.1       0.0       0.1       0.2
12 O  py              0.1       0.4       0.2       2.7       0.1       0.0
13 O  s               1.5       2.2       1.3       0.2       0.2       0.1
13 O  pz              1.7       2.5       3.4       4.5       0.4       9.6
13 O  px              0.3       0.2       0.1       0.4       0.0       2.9
13 O  py              0.4       0.2       0.1       1.5       0.2       3.4
14 O  s               3.3       0.9       0.1       0.1       0.8       0.0
14 O  pz              1.2       0.5       0.2       0.0       3.8       3.7
14 O  px              1.8       0.3       1.7       0.6       4.4       7.6
14 O  py              1.7       0.4       0.5       0.0       2.8       9.1
15 O  s               4.1       0.3       0.7       1.2       0.7       0.2
15 O  pz              0.1       0.0       0.1       0.4       0.0       0.1
15 O  px              2.5       0.0       2.8       4.0       0.1       5.1
15 O  py              0.2       0.1       0.1       0.5       0.9       0.3
16 O  s               0.5       1.9       1.8       0.2       0.2       0.0
16 O  pz              0.3       1.3       4.7       2.3       5.4       2.7
16 O  px              0.2       1.1       2.9       0.9       1.4       0.4
16 O  py              0.1       0.3       0.8       0.6       1.7       0.5
17 H  s               0.4       1.9       3.2       0.3       2.5       0.0
18 H  s               0.5       2.1       3.7       1.1       2.8       0.2
19 H  s               0.0       1.4       0.9       2.7       0.4       0.4
20 H  s               1.2       1.4       1.2       1.9       0.1       4.6
21 H  s               2.3       0.6       0.7       0.0       3.2       5.8
22 H  s               1.9       0.1       1.0       1.7       0.1       1.6
23 H  s               0.3       1.2       2.9       1.1       2.2       0.9

                     24        25        26        27        28        29   
                  -0.51148  -0.48825  -0.47110  -0.46803  -0.44963  -0.44338
                   2.00000   2.00000   2.00000   2.00000   2.00000   2.00000
                  --------  --------  --------  --------  --------  --------
 0 C  s               0.0       0.5       0.3       0.6       1.9       0.1
 0 C  pz              2.5       0.0       3.4       0.9       0.2       0.8
 0 C  px              2.4       0.5       0.8       1.7       0.7       3.6
 0 C  py              0.8       7.5       0.9       2.6      10.5       0.6
 0 C  dz2             0.0       0.0       0.0       0.0       0.1       0.0
 0 C  dxy             0.1       0.0       0.0       0.1       0.2       0.2
 1 C  s               1.7       1.4       0.1       0.0       0.6       0.2
 1 C  pz              4.6       2.0      11.6       0.7       2.0       0.0
 1 C  px              0.8       0.0       0.1       1.3       0.0       9.4
 1 C  py              0.7       6.0       0.0       0.1       0.2       3.1
 1 C  dxy             0.0       0.0       0.0       0.1       0.3       0.1
 2 H  s               2.9       2.9       3.9       0.4       1.0       0.2
 3 C  s               1.1       1.4       0.6       0.0       0.0       0.1
 3 C  pz              5.6       2.8       5.6       1.7       0.0       0.0
 3 C  px              0.2       0.5       0.7       0.0       1.3       4.3
 3 C  py              1.9       6.3       3.9       0.0       1.4       0.8
 3 C  dyz             0.0       0.2       0.0       0.0       0.0       0.0
 3 C  dxy             0.0       0.1       0.0       0.0       0.0       0.0
 4 H  s               3.9       1.5       3.7       0.6       0.0       0.1
 5 C  s               2.8       0.9       0.0       0.7       0.3       0.0
 5 C  pz              4.7       0.1       0.0       4.8       2.3       0.1
 5 C  px              0.0       0.6       1.1       0.7       0.0       4.4
 5 C  py              6.4       0.2       0.0       0.3       3.1       0.5
 5 C  dz2             0.0       0.0       0.0       0.4       0.2       0.0
 6 H  s               6.6       0.1       0.0       2.2       0.0       0.2
 7 C  s               0.9       1.4       0.0       0.3       0.1       0.3
 7 C  pz              0.4       0.0       1.2       7.9       2.8       0.2
 7 C  px              0.2       7.1       0.9       3.3       6.6       5.5
 7 C  py              1.6       0.4       5.8       1.1       0.1       4.4
 7 C  dz2             0.0       0.0       0.1       0.3       0.0       0.1
 8 H  s               0.4       3.8       0.4       3.8       1.8       4.3
 9 C  s               0.5       0.1       0.3       0.2       0.2       0.1
 9 C  pz              1.7       0.2       7.8       0.9       0.9       0.8
 9 C  px              2.5       2.2       0.3       0.1       3.5       4.0
 9 C  py              5.7       0.4       2.2       1.6       2.6       3.8
 9 C  dz2             0.1       0.0       0.1       0.0       0.0       0.2
 9 C  dxy             0.1       0.0       0.0       0.0       0.0       0.3
10 H  s               1.8       0.0       0.1       0.7       1.6       0.1
11 O  s               0.1       0.8       0.3       0.3       0.9       0.3
11 O  pz              0.2       0.0       4.3       0.1       2.4       1.2
11 O  px              0.5       4.8       2.1       1.5       1.9      12.5
11 O  py              0.7       0.6       0.2       0.5       0.8       5.0
12 O  s               0.4       0.0       0.1       0.0       0.5       0.0
12 O  pz              6.7       0.0       7.1       0.5       0.4       6.7
12 O  px              0.4       0.3       0.0       0.0       1.4       0.7
12 O  py              6.4       0.1       6.3       0.0       0.4       0.8
13 O  s               0.1       0.4       0.2       0.5       0.2       0.3
13 O  pz              0.1       0.6       1.9      14.7       4.6       0.5
13 O  px              0.2       1.6       0.0       5.3       0.2       2.9
13 O  py              0.4       0.0       3.7       1.6       0.2       0.1
14 O  s               0.5       0.0       0.1       1.6       0.2       0.3
14 O  pz              1.5       0.7       0.3       0.2       0.9       1.4
14 O  px              0.1       0.2       0.0       7.1       4.4       0.3
14 O  py              2.3       0.5       0.1       3.8       1.2       0.4
15 O  s               0.1       0.1       0.4       0.0       0.1       0.6
15 O  pz              0.4       2.0       0.3       0.0       0.3       0.0
15 O  px              1.0      15.3       5.2       1.0       3.2       0.1
15 O  py              0.2       0.0       0.2       0.0       0.3       2.2
15 O  dxy             0.0       0.1       0.0       0.0       0.0       0.0
16 O  s               0.3       0.1       0.3       0.8       1.0       0.8
16 O  pz              4.5       5.5       0.0       6.2       9.8       4.7
16 O  px              0.2       2.4       0.6       0.3       2.4       0.4
16 O  py              0.0       0.6       2.1       0.0       0.2       0.5
17 H  s               0.6       3.2       1.2       2.2       6.3       0.0
18 H  s               0.5       0.4       0.5       0.0       1.7       0.1
19 H  s               4.1       0.0       3.7       0.3       0.0       1.9
20 H  s               0.0       0.0       0.9       6.0       0.8       0.4
21 H  s               0.2       0.3       0.0       2.6       1.7       0.1
22 H  s               0.3       5.0       1.6       0.2       0.7       0.1
23 H  s               1.2       2.1       0.1       1.7       3.4       1.0

                     30        31        32        33        34        35   
                  -0.41800  -0.39312  -0.38211  -0.37261  -0.36413  -0.34664
                   2.00000   2.00000   2.00000   2.00000   2.00000   2.00000
                  --------  --------  --------  --------  --------  --------
 0 C  s               0.0       0.1       0.1       0.0       0.1       0.1
 0 C  pz              5.2      15.4       8.1       0.0       0.0       3.4
 0 C  px              1.0       3.5       3.2       0.9       4.2       0.5
 0 C  py              0.1       1.9       6.2       1.2       3.5       0.3
 0 C  dz2             0.0       0.1       0.1       0.0       0.0       0.1
 0 C  dxz             0.0       0.0       0.0       0.0       0.0       0.3
 1 C  s               0.0       0.1       0.1       0.3       0.0       0.2
 1 C  pz              2.2       1.8       0.5       0.1       0.8      17.2
 1 C  px              0.0       1.2       5.3       1.1       4.4       0.2
 1 C  py              0.2       0.0       3.5       2.9       0.6       0.7
 1 C  dz2             0.0       0.0       0.0       0.0       0.1       0.4
 1 C  dx2y2           0.0       0.0       0.3       0.0       0.0       0.0
 1 C  dxy             0.0       0.0       0.0       0.0       0.1       0.0
 2 H  s               0.8       0.4       0.8       0.1       1.0      11.0
 3 C  s               0.1       1.6       0.2       0.0       0.1       0.1
 3 C  pz              0.9       6.4       6.9       2.7       2.5       6.7
 3 C  px              0.9       3.5       0.5       1.5       9.7       0.4
 3 C  py              0.9       0.8       1.0       1.2       0.9       2.7
 3 C  dz2             0.0       0.2       0.0       0.0       0.1       0.2
 3 C  dx2y2           0.0       0.1       0.0       0.1       0.1       0.0
 3 C  dxy             0.2       0.0       0.0       0.1       0.2       0.0
 4 H  s               0.6       5.5       1.8       1.2       2.1       3.8
 5 C  s               1.4       0.2       0.1       0.1       0.2       0.1
 5 C  pz              1.8       0.5       0.1       0.8       0.7       0.2
 5 C  px              1.5       1.2       0.0       3.8       9.3       1.1
 5 C  py              5.5       1.0       4.8       7.3       4.5       0.3
 5 C  dxz             0.0       0.2       0.0       0.0       0.1       0.2
 5 C  dx2y2           0.1       0.0       0.1       0.0       0.0       0.0
 5 C  dxy             0.1       0.0       0.0       0.2       0.0       0.0
 6 H  s               5.7       0.0       2.6       0.8       0.1       0.3
 7 C  s               0.2       0.0       0.0       0.0       0.1       0.1
 7 C  pz              0.5       0.0       0.0       4.6       0.0       0.2
 7 C  px              0.0       1.5       1.3       8.9       0.2       1.4
 7 C  py              3.2       1.7       3.8       2.0       0.0       0.2
 7 C  dz2             0.1       0.0       0.0       0.0       0.0       0.0
 7 C  dx2y2           0.1       0.1       0.1       0.1       0.1       0.1
 7 C  dxy             0.0       0.0       0.0       0.1       0.0       0.0
 8 H  s               0.5       1.5       1.7       2.3       0.2       1.6
 9 C  s               0.6       0.3       0.5       0.2       0.0       0.1
 9 C  pz             12.1       0.0       0.2       1.2       0.1       1.4
 9 C  px              3.3       0.5       0.9       2.3       0.1       1.7
 9 C  py              1.4       2.5       7.3       1.1       0.3       0.7
 9 C  dx2y2           0.0       0.0       0.0       0.2       0.0       0.0
 9 C  dxy             0.1       0.0       0.0       0.1       0.0       0.1
10 H  s               7.2       0.8       2.3       3.2       0.1       2.3
11 O  s               0.1       0.1       0.0       0.4       0.5       0.1
11 O  pz              1.8       1.1       0.9       2.6       2.4       1.9
11 O  px              0.2       0.0       0.0       1.3       0.3       2.5
11 O  py              0.1       0.8       0.7       5.4       4.8       0.4
12 O  s               0.3       0.3       0.5       0.0       0.3       0.3
12 O  pz              8.6       0.4       1.0       0.1       0.0       1.6
12 O  px              1.7       0.6       1.7       1.7       0.2       2.0
12 O  py              0.8       0.9       2.3       0.1       0.1       0.5
13 O  s               0.6       0.2       0.0       2.0       0.2       0.0
13 O  pz              0.1       0.2       0.2       6.3       0.1       0.4
13 O  px              0.1       1.1       0.3       9.6       1.9       0.0
13 O  py              1.9       0.1       0.7       0.9       0.0       0.6
14 O  s               0.7       0.1       0.7       0.0       2.1       0.0
14 O  pz              0.3       1.8       1.0       0.4      22.3       2.6
14 O  px              0.0       0.7       0.2       5.5       0.3       0.5
14 O  py              4.3       1.0       4.1       2.9       0.9       1.0
15 O  s               0.3       0.1       0.0       0.1       0.4       0.2
15 O  pz              0.1       0.3       2.2       3.0       4.0       2.5
15 O  px              6.0       9.7       0.0       0.9       0.0       0.4
15 O  py              0.3       0.7       0.2       0.7       3.4       1.1
16 O  s               0.2       0.6       0.5       0.1       0.0       1.1
16 O  pz              0.0       0.1       0.7       0.2       0.1       2.0
16 O  px              1.7       3.6      10.6       0.1       2.4       5.6
16 O  py              3.3       7.1       0.1       1.1       3.9       7.9
17 H  s               0.3       2.9       1.1       0.6       1.3       0.0
18 H  s               2.2       6.6       4.7       0.1       0.1       2.8
19 H  s               1.7       0.0       0.1       0.3       0.4       0.0
20 H  s               0.2       0.1       0.0       0.0       0.1       0.0
21 H  s               0.5       0.9       0.2       0.1       0.1       0.1
22 H  s               2.2       2.0       0.0       0.2       0.2       0.6
23 H  s               0.2       0.4       0.1       0.1       0.0       0.2

                     36        37        38        39        40        41   
                  -0.32343  -0.31742  -0.30133  -0.29697  -0.28971  -0.27426
                   2.00000   2.00000   2.00000   2.00000   2.00000   2.00000
                  --------  --------  --------  --------  --------  --------
 0 C  s               0.0       0.2       0.0       0.1       0.2       0.2
 0 C  pz              0.0       1.9       0.9       2.8       4.7       0.4
 0 C  px              0.5       0.2       0.3       0.6       2.6       0.0
 0 C  py              0.1       3.6       0.4       0.7       1.3       0.0
 0 C  dz2             0.0       0.2       0.1       0.3       0.3       0.1
 0 C  dx2y2           0.0       0.1       0.0       0.0       0.1       0.1
 1 C  s               0.2       0.5       0.1       1.1       0.0       0.3
 1 C  pz              1.2       0.0       0.1       0.3       1.6       0.2
 1 C  px              0.6       0.0       0.5       0.0       0.2       1.3
 1 C  py              0.3       0.3       0.3       0.6       0.7       1.4
 1 C  dz2             0.0       0.1       0.0       0.0       0.1       0.1
 1 C  dx2y2           0.0       0.4       0.1       0.0       0.1       0.1
 1 C  dxy             0.0       0.0       0.2       0.0       0.1       0.0
 2 H  s               0.1       0.3       0.1       0.2       2.1       0.6
 3 C  s               0.2       0.4       0.5       0.2       0.0       0.2
 3 C  pz              0.0       2.6       0.2       0.6       0.1       0.2
 3 C  px              0.3       1.5       3.8       0.8       0.1       1.6
 3 C  py              0.9       0.1       0.4       0.4       0.3       2.3
 3 C  dx2y2           0.2       0.2       0.0       0.2       0.0       0.2
 4 H  s               0.1       0.6       0.1       0.4       0.7       0.8
 5 C  s               0.7       0.1       0.2       0.1       0.1       0.2
 5 C  pz              0.6       0.5       5.3       1.7       0.3       0.9
 5 C  px              0.0       0.5       0.8       2.8       0.2       1.2
 5 C  py              4.7       1.1       0.4       0.1       0.1       1.3
 5 C  dz2             0.1       0.0       0.1       0.0       0.0       0.0
 5 C  dyz             0.1       0.0       0.1       0.1       0.1       0.0
 5 C  dx2y2           0.0       0.0       0.1       0.0       0.0       0.2
 5 C  dxy             0.0       0.0       0.2       0.0       0.0       0.1
 6 H  s               3.7       1.2       3.1       1.3       0.5       1.5
 7 C  s               0.7       0.0       0.2       0.3       0.2       1.0
 7 C  pz              0.4       0.0       0.1       1.3       0.8       1.3
 7 C  px              3.2       0.0       1.0       1.0       0.2       0.0
 7 C  py              0.3       0.9       0.5       1.1       0.0       1.0
 7 C  dz2             0.0       0.0       0.1       0.0       0.1       0.1
 7 C  dxz             0.2       0.0       0.0       0.1       0.0       0.2
 7 C  dyz             0.5       0.0       0.0       0.0       0.1       0.1
[...]
 3 C  dxy             0.0       0.0       7.5       0.0       0.7       0.6
 5 C  s               0.2       1.6       0.1       0.3       0.4       0.0
 5 C  pz              0.1       1.5       0.0       0.9       0.7       0.0
 5 C  px              0.0       0.4       0.2       0.1       0.1       0.0
 5 C  py              0.0       0.2       0.0       0.1       0.1       0.0
 5 C  dz2             0.2       4.4       0.2       1.7       0.8       0.0
 5 C  dxz             0.2       1.1       0.0       1.0       1.5       0.0
 5 C  dyz             0.0       2.6       0.0       0.1       0.2       0.0
 5 C  dx2y2           0.0       0.0       0.6       0.0       0.0       0.0
 5 C  dxy             0.0       0.1       0.0       0.1       0.1       0.0
 7 C  s               0.0       0.9       0.1       0.7       0.8       0.1
 7 C  pz              0.0       1.0       0.1       0.8       1.8       0.0
 7 C  px              0.1       0.0       0.0       0.0       0.3       0.1
 7 C  py              0.0       0.0       0.0       0.0       0.0       0.1
 7 C  dz2             0.0       5.0       0.4       3.3       3.7       0.0
 7 C  dxz             0.0       0.0       0.1       0.5       0.7       0.0
 7 C  dyz             0.1       0.1       0.0       1.0       0.1       0.1
 9 C  s               0.8       0.1       0.1       0.7       1.0       0.4
 9 C  pz              0.5       0.0       0.3       0.7       0.9       0.5
 9 C  px              0.1       0.0       0.2       0.1       0.0       2.4
 9 C  py              0.1       0.0       0.0       0.0       0.0       0.2
 9 C  dz2             0.6       0.3       0.8       3.7       2.2       4.1
 9 C  dxz             0.7       0.0       0.0       0.5       2.0       0.0
 9 C  dyz             0.1       0.4       0.0       0.2       0.3       0.1
 9 C  dx2y2           0.2       0.0       0.2       0.2       0.4       3.4
 9 C  dxy             0.6       0.0       0.0       1.1       0.1       0.8
11 O  s               0.5       0.0       0.0       1.0       0.6       0.0
11 O  pz              0.0       0.0       0.0       0.0       0.0       0.3
11 O  px              0.0       0.0       0.4       0.3       0.5       5.0
11 O  py              0.0       0.0       0.0       0.1       0.2       0.3
11 O  dz2             1.9       0.0       0.3       3.1       0.8       0.5
11 O  dxz             0.0       0.0       0.1       2.4       3.7       0.1
11 O  dyz             0.0       0.1       0.4       0.2       1.0       2.6
11 O  dx2y2           5.3       0.0       0.1       2.2       0.0      16.9
11 O  dxy             0.3       0.0       1.7       8.8       6.9      33.9
12 O  s               0.5       0.0       0.4       0.8       1.4       0.4
12 O  pz              0.7       0.1       0.3       1.0       1.2       0.5
12 O  py              0.1       0.0       0.0       0.1       0.0       0.0
12 O  dz2             9.7       0.9       2.6      12.2      14.9       4.0
12 O  dxz             1.4       0.6       1.6       4.0       1.8       3.4
12 O  dyz             0.5       0.5       0.1       0.2       0.5       0.1
12 O  dx2y2           0.2       0.0       0.1       0.6       0.0       0.1
13 O  s               0.0       1.0       0.2       1.3       2.9       0.1
13 O  pz              0.0       1.5       0.2       1.2       1.8       0.0
13 O  py              0.0       0.0       0.0       0.1       0.0       0.0
13 O  dz2             0.1      19.2       2.2      15.2      21.1       0.2
13 O  dxz             0.0       4.3       0.1       1.2       0.3       0.0
13 O  dyz             0.1       0.4       0.2       0.8       0.4       0.3
13 O  dxy             0.0       0.1       0.0       0.1       0.0       0.0
14 O  s               0.1       2.4       0.0       1.5       1.3       0.0
14 O  pz              0.1       1.6       0.0       0.5       0.6       0.0
14 O  px              0.0       1.0       0.0       0.2       0.1       0.0
14 O  py              0.0       0.4       0.1       0.3       0.2       0.0
14 O  dz2             1.2      19.4       0.2       5.4       5.2       0.0
14 O  dxz             0.7      15.4       0.2       3.0       1.6       0.0
14 O  dyz             0.3       5.4       0.1       3.8       3.3       0.1
14 O  dx2y2           0.0       0.4       0.0       0.0       0.1       0.0
14 O  dxy             0.0       0.3       0.0       0.3       0.2       0.0
15 O  s               0.0       0.1       3.9       0.0       0.0       0.5
15 O  pz              0.0       0.0       0.2       0.0       0.0       0.0
15 O  px              0.0       0.1       3.1       0.0       0.1       0.2
15 O  py              0.0       0.0       1.1       0.0       0.0       0.2
15 O  dz2             0.3       0.3       4.8       0.0       0.0       0.9
15 O  dxz             0.0       0.5       5.9       0.3       0.2       0.3
15 O  dyz             0.0       0.2       7.1       0.1       0.4       0.4
15 O  dx2y2           0.1       0.0       1.1       0.1       0.0       0.3
15 O  dxy             0.4       0.7      39.0       0.0       1.2       2.8
16 O  s               2.7       0.0       0.0       0.2       0.1       0.0
16 O  pz              0.9       0.0       0.0       0.0       0.0       0.0
16 O  px              1.5       0.0       0.0       0.1       0.0       0.0
16 O  py              0.8       0.0       0.0       0.0       0.0       0.0
16 O  dz2             8.3       0.1       0.0       0.5       0.1       0.0
16 O  dxz             7.5       0.1       0.0       0.4       0.1       0.1
16 O  dyz             5.0       0.1       0.0       0.2       0.0       0.2
16 O  dx2y2           2.2       0.0       0.0       0.4       0.3       0.4
16 O  dxy            25.2       0.4       0.0       1.5       0.2       0.2
19 H  s               0.2       0.0       0.1       0.2       0.1       0.0
20 H  s               0.0       0.3       0.0       0.1       0.2       0.0
21 H  s               0.0       0.4       0.0       0.1       0.1       0.0
22 H  s               0.0       0.0       0.8       0.0       0.0       0.0
23 H  s               0.5       0.0       0.0       0.0       0.0       0.0



                      *****************************
                      * MAYER POPULATION ANALYSIS *
                      *****************************

  NA   - Mulliken gross atomic population
  ZA   - Total nuclear charge
  QA   - Mulliken gross atomic charge
  VA   - Mayer's total valence
  BVA  - Mayer's bonded valence
  FA   - Mayer's free valence

  ATOM       NA         ZA         QA         VA         BVA        FA
  0 C      5.9336     6.0000     0.0664     3.9017     3.9017    -0.0000
  1 C      5.9747     6.0000     0.0253     4.0690     4.0690     0.0000
  2 H      0.9436     1.0000     0.0564     1.0009     1.0009     0.0000
  3 C      5.9616     6.0000     0.0384     4.1424     4.1424     0.0000
  4 H      0.9483     1.0000     0.0517     0.9908     0.9908    -0.0000
  5 C      5.9387     6.0000     0.0613     3.9483     3.9483    -0.0000
  6 H      0.9188     1.0000     0.0812     0.9979     0.9979     0.0000
  7 C      6.0079     6.0000    -0.0079     4.0956     4.0956     0.0000
  8 H      0.9389     1.0000     0.0611     0.9766     0.9766     0.0000
  9 C      5.8011     6.0000     0.1989     4.1769     4.1769    -0.0000
 10 H      0.9507     1.0000     0.0493     0.9680     0.9680    -0.0000
 11 O      8.3098     8.0000    -0.3098     2.1512     2.1512    -0.0000
 12 O      8.4012     8.0000    -0.4012     2.0543     2.0543    -0.0000
 13 O      8.4048     8.0000    -0.4048     1.9906     1.9906     0.0000
 14 O      8.4125     8.0000    -0.4125     2.0402     2.0402    -0.0000
 15 O      8.4299     8.0000    -0.4299     2.0161     2.0161    -0.0000
 16 O      8.4360     8.0000    -0.4360     2.0501     2.0501     0.0000
 17 H      0.9044     1.0000     0.0956     0.9599     0.9599     0.0000
 18 H      0.9120     1.0000     0.0880     0.9718     0.9718     0.0000
 19 H      0.6987     1.0000     0.3013     0.9373     0.9373    -0.0000
 20 H      0.6916     1.0000     0.3084     0.8771     0.8771     0.0000
 21 H      0.6881     1.0000     0.3119     0.8771     0.8771    -0.0000
 22 H      0.7021     1.0000     0.2979     0.9386     0.9386     0.0000
 23 H      0.6909     1.0000     0.3091     0.8792     0.8792     0.0000

  Mayer bond orders larger than 0.100000
B(  0-C ,  1-C ) :   1.0149 B(  0-C , 16-O ) :   1.0321 B(  0-C , 17-H ) :   0.9239 
B(  0-C , 18-H ) :   0.9136 B(  1-C ,  2-H ) :   0.8583 B(  1-C ,  3-C ) :   1.0695 
B(  1-C , 11-O ) :   0.9851 B(  3-C ,  4-H ) :   0.8646 B(  3-C ,  5-C ) :   1.0156 
B(  3-C , 15-O ) :   1.0967 B(  5-C ,  6-H ) :   0.8560 B(  5-C ,  7-C ) :   1.0084 
B(  5-C , 14-O ) :   1.0535 B(  7-C ,  8-H ) :   0.8925 B(  7-C ,  9-C ) :   0.9897 
B(  7-C , 13-O ) :   1.0350 B(  9-C , 10-H ) :   0.9007 B(  9-C , 11-O ) :   1.0511 
B(  9-C , 12-O ) :   1.1484 B( 12-O , 19-H ) :   0.8084 B( 13-O , 20-H ) :   0.8445 
B( 14-O , 21-H ) :   0.8412 B( 15-O , 22-H ) :   0.8026 B( 16-O , 22-H ) :   0.1135 
B( 16-O , 23-H ) :   0.8430 

-------
TIMINGS
-------

Total SCF time: 0 days 0 hours 0 min 9 sec 

Total time                  ....       9.405 sec
Sum of individual times     ....       8.968 sec  ( 95.4%)

SCF preparation             ....       0.160 sec  (  1.7%)
Fock matrix formation       ....       8.094 sec  ( 86.1%)
  Startup                   ....       0.055 sec  (  0.7% of F)
  Split-RI-J                ....       3.634 sec  ( 44.9% of F)
  XC integration            ....       3.973 sec  ( 49.1% of F)
    XC Preparation          ....       0.000 sec  (  0.0% of XC)
    Basis function eval.    ....       1.347 sec  ( 33.9% of XC)
    Density eval.           ....       0.759 sec  ( 19.1% of XC)
    XC-Functional eval.     ....       0.278 sec  (  7.0% of XC)
    XC-Potential eval.      ....       0.999 sec  ( 25.1% of XC)
Diagonalization             ....       0.000 sec  (  0.0%)
Density matrix formation    ....       0.159 sec  (  1.7%)
Total Energy calculation    ....       0.026 sec  (  0.3%)
Population analysis         ....       0.096 sec  (  1.0%)
Orbital Transformation      ....       0.052 sec  (  0.6%)
Orbital Orthonormalization  ....       0.000 sec  (  0.0%)
DIIS solution               ....       0.299 sec  (  3.2%)
  MO trafo                  ....       0.000 sec  (  0.0 % of DIIS)
  Orb grad                  ....       0.000 sec  (  0.0 % of DIIS)
  Energy W gradient         ....       0.000 sec  (  0.0 % of DIIS)
  DIIS error                ....       0.006 sec  (  1.9 % of DIIS)
  DIIS work                 ....       0.248 sec  ( 83.0 % of DIIS)
  Form Q                    ....       0.000 sec  (  0.0 % of DIIS)
  Form QpQm                 ....       0.000 sec  (  0.0 % of DIIS)
  Exp/Cayley                ....       0.000 sec  (  0.0 % of DIIS)
  Orb update                ....       0.000 sec  (  0.0 % of DIIS)
  Wake-sleep                ....       0.017 sec  (  5.5 % of DIIS)
SOSCF solution              ....       0.083 sec  (  0.9%)
  MO trafo                  ....       0.047 sec  ( 55.9 % of SOSCF)
  Orb grad                  ....       0.001 sec  (  1.3 % of SOSCF)
  Rot update                ....       0.017 sec  ( 20.0 % of SOSCF)
  Step                      ....       0.019 sec  ( 22.7 % of SOSCF)
Finished LeanSCF after   9.5 sec

Maximum memory used throughout the entire LEANSCF-calculation: 18.4 MB


-------------------------------------------------------------------------------
                          DFT DISPERSION CORRECTION                            
                                                                               
                                DFTD4 V3.4.0                                   
-------------------------------------------------------------------------------
The PBE functional is recognized
Active option DFTDOPT                   ...         5   

-------------------------   ----------------
Dispersion correction           -0.024855901
-------------------------   ----------------

------------------   -----------------
gCP correction             0.157047325
------------------   -----------------

-------------------------   --------------------
FINAL SINGLE POINT ENERGY      -685.692627432437
-------------------------   --------------------


------------------------------------------------------------------------------
                              ORCA PROPERTY CALCULATIONS
------------------------------------------------------------------------------

GBWName                                 ... sp.gbw
Number of atoms                         ...     24
Number of basis functions               ...    192
Max core memory                         ...   1024 MB

Electric properties:
Dipole moment                           ... YES
Quadrupole moment                       ...  NO
Static polarizability (Dipole/Dipole)   ...  NO
Static polarizability (Dipole/Quad.)    ...  NO
Static polarizability (Quad./Quad.)     ...  NO
Static polarizability (Velocity)        ...  NO

Atomic electric properties:
Dipole moment                           ...  NO
Quadrupole moment                       ...  NO
Static polarizability                   ...  NO

Choice of electric origin               ... Center of mass
Position of electric origin             ...    -0.000000    -0.000002     0.000003

General magnetic properties:
Magnetizability                         ...  NO

EPR properties:
g-Tensor (aka g-matrix)                 ...  NO
Zero-Field splitting spin-orbit         ...  NO
Zero-field splitting spin-spin          ...  NO
Hyperfine couplings                     ...  NO (   0 nuclei)
Quadrupole couplings                    ...  NO (   0 nuclei)
Contact density                         ...  NO (   0 nuclei)

NMR properties:
Chemical shifts                         ...  NO (   0 nuclei)
Spin-rotation constants                 ...  NO (   0 nuclei)
Spin-spin couplings                     ...  NO (   0 nuclei,    0 pairs)

Choice of magnetic origin               ... GIAO
Position of magnetic origin             ...     0.000000     0.000000     0.000000

Properties with geometric perturbations:
SCF Hessian                             ...  NO
IR spectrum                             ...  NO
VCD spectrum                            ...  NO
X-ray spectroscopy properties:
SCF XES/XAS/RIXS spectra                ...  NO


-------------
DIPOLE MOMENT
-------------

Method             : SCF
Type of density    : Electron Density
Multiplicity       :   1
Irrep              :   0
Energy             :  -685.8248188565919463 Eh
Relativity type    : 
Basis              : AO
                                X                 Y                 Z
Electronic contribution:      1.231246336       0.219384128      -0.299129752
Nuclear contribution   :     -0.754785974      -0.027249725       1.213222725
                        -----------------------------------------
Total Dipole Moment    :      0.476460362       0.192134404       0.914092973
                        -----------------------------------------
Magnitude (a.u.)       :      1.048568581
Magnitude (Debye)      :      2.665249522



--------------------
Rotational spectrum 
--------------------
 
Rotational constants in cm-1:             0.043482             0.024974             0.021827 
Rotational constants in MHz :          1303.544090           748.710863           654.354402 

Dipole components along the rotational axes: 
x,y,z [a.u.] :     0.353610    -0.052512     0.985748 
x,y,z [Debye]:     0.898806    -0.133474     2.505571 

 

Dipole moment calculation done in   0.0 sec 

Maximum memory used throughout the entire PROP-calculation: 11.9 MB

--------------------------------
SUGGESTED CITATIONS FOR THIS RUN
--------------------------------

Below you find a list of papers that are relevant to this ORCA run
We neither can nor want to force you to cite these papers, but we appreciate if you do
You receive ORCA, which is the product of decades of hard work by many enthusiastic individuals, for free
The only thing we kindly ask in return is that you cite our papers,
We deeply appreciate it, if you show your appreciation for ORCA by not just citing the generic ORCA reference.

Please note that relegating all ORCA citations to the supporting information does *not* help us.
SI sections are not indexed - citations you put there will not count into any citation statistics
But we need these citations in order to attract the funding resources that allow us to do what we are doing

Therefore, if you are a happy ORCA user, please consider citing a few of the papers listed below in the main body of your paper

In addition to the list printed below, the program has created the file sp.bibtex that contains the list in bibtex format
You can import this file easily into all common literature databanks and citation aid programs


List of essential papers. We consider these as the minimum necessary citations

  1. Neese,F.
     Software update: the ORCA program system, version 5.0
     WIRES Comput. Molec. Sci., 2022 12(1)e1606
     doi.org/10.1002/wcms.1606

List of papers to cite with high priority. The work reported in these papers was absolutely
necessary for this run to complete.
Our perspective: the developers of density functionals and basis sets usually get cited in chemistry papers
Good! But without the algorithms to do something with them, the functionals or basis sets would not do anything.
Hence, in our opinion, the algorithm design and method developments papers are equally worthy of getting cited

  1. Neese,F.
     An improvement of the resolution of the identity approximation for the formation of the Coulomb matrix
     J. Comp. Chem., 2003 24(14)1740-1747
     doi.org/10.1002/jcc.10318
  2. Neese,F.
     The SHARK Integral Generation and Digestion System
     J. Comp. Chem., 2022  1-16
     doi.org/10.1002/jcc.26942
  3. Caldeweyher,E.; Bannwarth,C.; Grimme,S.
     Extension of the D3 dispersion coefficient model
     J. Chem. Phys., 2017 147 034112-XXXX
     doi.org/10.1063/1.4993215
  4. Caldeweyher,E.; Ehlert,S.; Hansen,A.; Neugebauer,H.; Spicher,S.; Bannwarth,C.; Grimme,S.
     A generally applicable atomic-charge dependent London dispersion correction
     J. Chem. Phys., 2019 150 154122-XXXX
     doi.org/10.1063/1.5090222
  5. Caldeweyher,E.; Mewes,J.; Ehlert,S.; Grimme,S.
     Extension and evaluation of the D4 London-dispersion model for periodic systems
     Phys. Chem. Chem. Phys., 2020 22(16)8499-8512
     doi.org/10.1039/D0CP00502A

List of suggested additional citations. These are papers that are important in the 'surrounding' of 
of this run, or papers that preceded the highly important papers. If you like your results we are grateful for a citation.

  1. Neese,F.
     The ORCA program system
     WIRES Comput. Molec. Sci., 2012 2(1)73-78
     doi.org/10.1002/wcms.81
  2. Neese,F.
     Software update: the ORCA program system, version 4.0
     WIRES Comput. Molec. Sci., 2018 8(1)1-6
     doi.org/10.1002/wcms.1327
  3. Neese,F.; Wennmohs,F.; Becker,U.; Riplinger,C.
     The ORCA quantum chemistry program package
     J. Chem. Phys., 2020 152 Art. No. L224108
     doi.org/10.1063/5.0004608

List of optional additional citations

  1. Neese,F.
     Approximate second-order SCF convergence for spin unrestricted wavefunctions
     Chem. Phys. Lett., 2000 325(1-3)93-98
     doi.org/10.1016/s0009-2614(00)00662-x

Timings for individual modules:

Sum of individual times          ...       11.536 sec (=   0.192 min)
Startup calculation              ...        0.898 sec (=   0.015 min)   7.8 %
SCF iterations                   ...       10.542 sec (=   0.176 min)  91.4 %
Property calculations            ...        0.096 sec (=   0.002 min)   0.8 %
                             ****ORCA TERMINATED NORMALLY****
TOTAL RUN TIME: 0 days 0 hours 0 minutes 12 seconds 162 msec
