 Entering Gaussian System
 *********************************************
 Gaussian 98:
 frequency output generated by the xtb code
 *********************************************
                         Standard orientation:
 --------------------------------------------------------------------
  Center     Atomic     Atomic              Coordinates (Angstroms)
  Number     Number      Type              X           Y           Z
 --------------------------------------------------------------------
    1          6             0        1.996221   -0.796033   -0.360343
    2          8             0        1.136619    0.338883   -0.404663
    3         16             0       -0.368683    0.051791    0.091401
    4          8             0       -0.324518   -0.345098    1.481375
    5          8             0       -0.966123   -0.919310   -0.798298
    6          6             0       -1.062357    1.667773   -0.120363
    7          1             0        2.965340   -0.462331   -0.721910
    8          1             0        1.588258   -1.581838   -0.997910
    9          1             0        2.063176   -1.157304    0.667002
   10          1             0       -0.493160    2.334089    0.511257
   11          1             0       -0.960002    1.913599   -1.167260
   12          1             0       -2.100558    1.623987    0.179343
 --------------------------------------------------------------------
     1 basis functions        1 primitive gaussians
     1 alpha electrons        1 beta electrons
 
 Harmonic frequencies (cm**-1), IR intensities (km*mol⁻¹),
 Raman scattering activities (A**4/amu), Raman depolarization ratios,
 reduced masses (AMU), force constants (mDyne/A) and normal coordinates:
                      1                      2                      3
                        a                      a                      a 
 Frequencies --    53.9229                86.7441               108.6847
 Red. masses --    11.4520                 1.4468                 1.7142
 Frc consts  --     0.0000                 0.0000                 0.0000
 IR Inten    --     9.8741                 0.9537                 1.2607
 Raman Activ --     0.0000                 0.0000                 0.0000
 Depolar     --     0.0000                 0.0000                 0.0000
 Atom AN      X      Y      Z        X      Y      Z        X      Y      Z
   1   6     0.13   0.12   0.46     0.03   0.03   0.12    -0.04  -0.04  -0.14
   2   8    -0.12  -0.10  -0.42    -0.00  -0.00  -0.00     0.01   0.01   0.03
   3  16    -0.04  -0.03  -0.13    -0.01  -0.01  -0.05     0.01   0.01   0.04
   4   8     0.32  -0.12  -0.13    -0.00  -0.06  -0.05     0.03   0.09   0.05
   5   8    -0.35   0.09   0.01    -0.03   0.03  -0.06     0.02  -0.06   0.09
   6   6     0.04   0.04   0.15     0.01   0.01   0.03    -0.02  -0.02  -0.06
   7   1     0.08   0.07   0.28     0.03   0.03   0.12     0.14   0.12   0.48
   8   1     0.20  -0.05   0.13     0.07   0.02  -0.01     0.26   0.21  -0.48
   9   1    -0.12   0.13   0.18    -0.06  -0.01   0.03    -0.43  -0.36  -0.14
  10   1    -0.03  -0.03   0.13     0.37   0.08  -0.40    -0.04  -0.00   0.01
  11   1     0.09   0.08   0.07    -0.50  -0.20  -0.09     0.04  -0.00  -0.01
  12   1    -0.01  -0.01  -0.04     0.15   0.13   0.54    -0.02  -0.02  -0.07
                      4                      5                      6
                        a                      a                      a 
 Frequencies --   168.8560               274.3295               277.5253
 Red. masses --    11.0632                12.8424                11.3942
 Frc consts  --     0.0000                 0.0000                 0.0000
 IR Inten    --    24.8462                 0.0244                19.9851
 Raman Activ --     0.0000                 0.0000                 0.0000
 Depolar     --     0.0000                 0.0000                 0.0000
 Atom AN      X      Y      Z        X      Y      Z        X      Y      Z
   1   6    -0.39  -0.31   0.19     0.00  -0.00  -0.00     0.44  -0.15  -0.09
   2   8     0.14   0.09  -0.06    -0.05  -0.05  -0.20     0.20  -0.35   0.03
   3  16     0.16   0.16  -0.09    -0.06  -0.05  -0.22     0.11   0.09  -0.05
   4   8     0.27   0.07  -0.08    -0.30   0.39  -0.03    -0.20   0.25   0.03
   5   8     0.27   0.06  -0.10     0.29  -0.39   0.01    -0.22   0.24  -0.03
   6   6    -0.40  -0.08   0.13     0.12   0.11   0.43    -0.35  -0.10   0.12
   7   1    -0.05  -0.24   0.07     0.01   0.01   0.02     0.09   0.05  -0.04
   8   1    -0.21  -0.06   0.08     0.03  -0.02   0.01     0.18  -0.06  -0.04
   9   1    -0.20  -0.06   0.07    -0.02   0.03   0.01     0.18  -0.06  -0.03
  10   1    -0.18   0.02   0.05     0.12  -0.13   0.22    -0.20   0.04   0.05
  11   1    -0.17   0.02   0.04    -0.01   0.23   0.17    -0.20   0.03   0.04
  12   1    -0.10  -0.15   0.07     0.06   0.05   0.20    -0.08  -0.22   0.08
                      7                      8                      9
                        a                      a                      a 
 Frequencies --   407.9630               450.5794               479.0006
 Red. masses --    17.7565                17.8634                17.7019
 Frc consts  --     0.0000                 0.0000                 0.0000
 IR Inten    --    55.1681                88.7938               214.5483
 Raman Activ --     0.0000                 0.0000                 0.0000
 Depolar     --     0.0000                 0.0000                 0.0000
 Atom AN      X      Y      Z        X      Y      Z        X      Y      Z
   1   6    -0.01  -0.01  -0.04    -0.01   0.01   0.00     0.20  -0.14  -0.02
   2   8    -0.16  -0.15  -0.58     0.25   0.21  -0.12    -0.04  -0.29   0.08
   3  16     0.11   0.09   0.38     0.29   0.20  -0.13    -0.37   0.34   0.02
   4   8    -0.34  -0.18   0.22    -0.40  -0.38  -0.23     0.23  -0.29  -0.14
   5   8     0.38   0.22  -0.09    -0.18  -0.19   0.53     0.30  -0.22   0.12
   6   6    -0.01  -0.01  -0.04    -0.04   0.08  -0.01    -0.19   0.41  -0.05
   7   1     0.01   0.01   0.04     0.03  -0.08   0.01     0.02   0.05  -0.02
   8   1     0.08  -0.07   0.02    -0.05   0.02   0.01     0.11  -0.05  -0.02
   9   1    -0.07   0.08   0.02    -0.05   0.01   0.01     0.11  -0.05  -0.02
  10   1    -0.05   0.09  -0.07    -0.05   0.05   0.00    -0.03   0.10  -0.02
  11   1     0.02  -0.11  -0.04    -0.05   0.05   0.00    -0.03   0.10  -0.02
  12   1    -0.01  -0.01  -0.04    -0.00  -0.06   0.01    -0.06   0.15  -0.02
                     10                     11                     12
                        a                      a                      a 
 Frequencies --   648.7734               733.9525               838.9179
 Red. masses --    17.9451                17.5154                 5.3759
 Frc consts  --     0.0000                 0.0000                 0.0000
 IR Inten    --   272.7561               172.3361               121.4303
 Raman Activ --     0.0000                 0.0000                 0.0000
 Depolar     --     0.0000                 0.0000                 0.0000
 Atom AN      X      Y      Z        X      Y      Z        X      Y      Z
   1   6    -0.16   0.07   0.03    -0.06   0.04   0.01    -0.02   0.06  -0.01
   2   8    -0.63  -0.30   0.25    -0.07   0.00   0.02     0.08   0.04  -0.03
   3  16     0.42   0.18  -0.16     0.38  -0.44   0.00    -0.24  -0.03   0.08
   4   8     0.01  -0.02  -0.16    -0.02   0.00   0.22     0.05  -0.04   0.08
   5   8     0.09   0.05   0.13    -0.12  -0.09  -0.15     0.01  -0.08  -0.06
   6   6     0.11  -0.07  -0.01    -0.23   0.59  -0.09     0.37   0.13  -0.14
   7   1    -0.12   0.21  -0.02    -0.02   0.01   0.00     0.02  -0.06   0.01
   8   1     0.04  -0.00  -0.01    -0.01   0.01  -0.00    -0.03   0.02   0.01
   9   1     0.04  -0.00  -0.01    -0.01   0.01   0.00    -0.04   0.02   0.00
  10   1    -0.06   0.04   0.01    -0.11   0.21  -0.03    -0.25   0.25   0.05
  11   1    -0.06   0.04   0.00    -0.10   0.22  -0.02    -0.27   0.24  -0.02
  12   1     0.05  -0.19   0.03    -0.07   0.16  -0.02     0.17  -0.65   0.12
                     13                     14                     15
                        a                      a                      a 
 Frequencies --   850.6901              1016.6961              1074.0821
 Red. masses --     4.0976                13.5790                19.6365
 Frc consts  --     0.0000                 0.0000                 0.0000
 IR Inten    --     8.5901               189.4274               433.3326
 Raman Activ --     0.0000                 0.0000                 0.0000
 Depolar     --     0.0000                 0.0000                 0.0000
 Atom AN      X      Y      Z        X      Y      Z        X      Y      Z
   1   6     0.00   0.00   0.01     0.45  -0.49  -0.00     0.09  -0.05  -0.01
   2   8     0.01   0.01   0.02    -0.47   0.51   0.00    -0.09   0.07   0.01
   3  16    -0.03  -0.02  -0.08     0.05   0.07  -0.03    -0.13  -0.47   0.16
   4   8    -0.02   0.10  -0.11     0.00  -0.03   0.10    -0.01   0.17  -0.56
   5   8    -0.02  -0.15  -0.05    -0.05  -0.07  -0.07     0.24   0.40   0.35
   6   6     0.12   0.10   0.41     0.03  -0.01  -0.01     0.00   0.05  -0.01
   7   1    -0.00  -0.00  -0.00     0.13  -0.17   0.01     0.05  -0.09   0.01
   8   1    -0.00   0.01  -0.00    -0.02  -0.05   0.01    -0.02  -0.00   0.01
   9   1     0.00  -0.01  -0.00    -0.01  -0.05   0.02    -0.02   0.00   0.00
  10   1    -0.22   0.53  -0.19    -0.00   0.00   0.00    -0.06   0.08  -0.02
  11   1     0.16  -0.58  -0.02    -0.00   0.00  -0.00    -0.05   0.09   0.01
  12   1    -0.04  -0.05  -0.16     0.01  -0.04   0.01    -0.00   0.05  -0.01
                     16                     17                     18
                        a                      a                      a 
 Frequencies --  1109.8324              1116.3564              1173.3252
 Red. masses --     4.8953                 3.8646                22.7912
 Frc consts  --     0.0000                 0.0000                 0.0000
 IR Inten    --    32.7307                16.9839               717.9640
 Raman Activ --     0.0000                 0.0000                 0.0000
 Depolar     --     0.0000                 0.0000                 0.0000
 Atom AN      X      Y      Z        X      Y      Z        X      Y      Z
   1   6     0.23   0.34  -0.15     0.11   0.10   0.39    -0.01  -0.01  -0.03
   2   8    -0.13  -0.28   0.11    -0.06  -0.06  -0.22     0.00   0.00   0.01
   3  16     0.03   0.06  -0.02     0.02   0.01   0.06     0.17   0.16   0.62
   4   8     0.01  -0.01   0.03    -0.00   0.01  -0.04    -0.02   0.14  -0.51
   5   8    -0.01  -0.02  -0.02    -0.01  -0.02  -0.03    -0.22  -0.35  -0.33
   6   6    -0.03  -0.00   0.01    -0.00  -0.00  -0.00    -0.01  -0.01  -0.04
   7   1     0.31  -0.57   0.06    -0.06  -0.06  -0.22     0.01   0.01   0.02
   8   1    -0.31   0.15   0.10    -0.35   0.45  -0.19     0.03  -0.04   0.02
   9   1    -0.34   0.13   0.01     0.26  -0.52  -0.12    -0.02   0.04   0.01
  10   1     0.02  -0.02   0.00     0.00  -0.01   0.00     0.02  -0.04   0.02
  11   1     0.02  -0.02   0.00    -0.00   0.01   0.00    -0.01   0.05   0.00
  12   1    -0.01   0.03  -0.00     0.00   0.00   0.00     0.00   0.00   0.01
                     19                     20                     21
                        a                      a                      a 
 Frequencies --  1247.8500              1364.8494              1371.9321
 Red. masses --     3.7061                 2.3813                 1.6918
 Frc consts  --     0.0000                 0.0000                 0.0000
 IR Inten    --   105.7888                 5.1156                28.0876
 Raman Activ --     0.0000                 0.0000                 0.0000
 Depolar     --     0.0000                 0.0000                 0.0000
 Atom AN      X      Y      Z        X      Y      Z        X      Y      Z
   1   6    -0.00   0.01  -0.00     0.24  -0.21  -0.01     0.04  -0.03  -0.00
   2   8     0.01  -0.01  -0.00     0.09  -0.09  -0.00     0.01  -0.01  -0.00
   3  16    -0.01   0.08  -0.02    -0.02  -0.02   0.01     0.01   0.00  -0.00
   4   8     0.01  -0.02   0.05    -0.00   0.00  -0.01    -0.00  -0.00  -0.00
   5   8    -0.02  -0.04  -0.03     0.00   0.01   0.00     0.00   0.00   0.01
   6   6     0.18  -0.43   0.06    -0.03  -0.02   0.01     0.21   0.08  -0.08
   7   1     0.01  -0.02   0.00    -0.18   0.51  -0.08    -0.03   0.08  -0.01
   8   1     0.01  -0.01   0.00    -0.46   0.27  -0.04    -0.07   0.04  -0.00
   9   1     0.01  -0.01  -0.00    -0.40   0.31   0.14    -0.06   0.04   0.02
  10   1    -0.30   0.38  -0.16     0.04   0.04  -0.08    -0.31  -0.21   0.53
  11   1    -0.22   0.44   0.10     0.07   0.07   0.03    -0.50  -0.38  -0.16
  12   1    -0.03   0.49  -0.11    -0.00  -0.03   0.01     0.00   0.28  -0.07
                     22                     23                     24
                        a                      a                      a 
 Frequencies --  1373.2730              1423.5449              1459.5316
 Red. masses --     1.6734                 1.5315                 1.6136
 Frc consts  --     0.0000                 0.0000                 0.0000
 IR Inten    --    27.1353                14.2324                 6.8096
 Raman Activ --     0.0000                 0.0000                 0.0000
 Depolar     --     0.0000                 0.0000                 0.0000
 Atom AN      X      Y      Z        X      Y      Z        X      Y      Z
   1   6    -0.00   0.00  -0.00     0.06   0.05   0.20     0.14   0.16  -0.08
   2   8     0.00   0.00   0.00     0.01   0.01   0.04     0.01   0.04  -0.01
   3  16    -0.00  -0.00  -0.01     0.00   0.00   0.00    -0.00  -0.01   0.00
   4   8     0.00   0.00  -0.00    -0.00   0.00  -0.00    -0.00   0.00  -0.00
   5   8    -0.00  -0.00  -0.00     0.00  -0.00  -0.00    -0.00   0.00  -0.00
   6   6    -0.06  -0.06  -0.23    -0.00  -0.00  -0.00    -0.00   0.00  -0.00
   7   1     0.00   0.00   0.00    -0.19  -0.17  -0.67    -0.07   0.23  -0.04
   8   1    -0.00   0.00   0.00     0.42  -0.04  -0.21    -0.12  -0.37   0.54
   9   1     0.00  -0.00  -0.00    -0.47  -0.01   0.04    -0.32  -0.55  -0.18
  10   1    -0.39   0.12   0.18    -0.00   0.00   0.00     0.00   0.00  -0.00
  11   1     0.44  -0.07  -0.00     0.00  -0.00  -0.00     0.00   0.00   0.00
  12   1     0.19   0.17   0.68     0.00   0.00   0.00     0.00  -0.00   0.00
                     25                     26                     27
                        a                      a                      a 
 Frequencies --  2968.2751              2972.2946              3021.5214
 Red. masses --     1.9669                 1.3481                 1.8310
 Frc consts  --     0.0000                 0.0000                 0.0000
 IR Inten    --    19.3820                22.4892                 1.2394
 Raman Activ --     0.0000                 0.0000                 0.0000
 Depolar     --     0.0000                 0.0000                 0.0000
 Atom AN      X      Y      Z        X      Y      Z        X      Y      Z
   1   6     0.08   0.07   0.28     0.03   0.16  -0.05     0.23   0.11  -0.09
   2   8     0.00   0.00   0.00    -0.01   0.01  -0.00     0.01  -0.00  -0.00
   3  16    -0.00   0.00   0.00     0.00   0.00  -0.00     0.00   0.00  -0.00
   4   8     0.00   0.00  -0.00    -0.00  -0.00   0.00    -0.00  -0.00   0.00
   5   8    -0.00  -0.00  -0.00    -0.00  -0.00  -0.00    -0.00  -0.00  -0.00
   6   6    -0.00  -0.00  -0.00    -0.00  -0.00   0.00    -0.00   0.00   0.00
   7   1     0.01   0.01   0.04     0.13   0.06  -0.05    -0.85  -0.30   0.32
   8   1    -0.26  -0.49  -0.37    -0.26  -0.48  -0.42    -0.01  -0.05  -0.07
   9   1    -0.02   0.24  -0.64     0.05  -0.20   0.65     0.03  -0.01   0.08
  10   1     0.00   0.00   0.00     0.00   0.00   0.00    -0.00  -0.00  -0.00
  11   1    -0.00  -0.00   0.00     0.00   0.00  -0.00    -0.00  -0.00   0.00
  12   1     0.00  -0.00  -0.00    -0.00  -0.00   0.00     0.00   0.00  -0.00
                     28                     29                     30
                        a                      a                      a 
 Frequencies --  3067.1920              3087.9229              3097.3765
 Red. masses --     1.2529                 1.9757                 2.0498
 Frc consts  --     0.0000                 0.0000                 0.0000
 IR Inten    --     9.8847                 8.5711                 8.0166
 Raman Activ --     0.0000                 0.0000                 0.0000
 Depolar     --     0.0000                 0.0000                 0.0000
 Atom AN      X      Y      Z        X      Y      Z        X      Y      Z
   1   6     0.00  -0.00  -0.00     0.00   0.00  -0.00     0.00   0.00   0.00
   2   8    -0.00   0.00   0.00    -0.00   0.00   0.00     0.00   0.00   0.00
   3  16     0.00  -0.00   0.00     0.00   0.00  -0.00     0.00   0.00   0.00
   4   8    -0.00   0.00  -0.00     0.00  -0.00   0.00     0.00   0.00  -0.00
   5   8     0.00   0.00   0.00    -0.00  -0.00  -0.00    -0.00  -0.00  -0.00
   6   6     0.12  -0.09  -0.01     0.25   0.13  -0.10     0.08   0.07   0.29
   7   1    -0.01  -0.00   0.00     0.00  -0.00   0.00    -0.00  -0.00  -0.00
   8   1     0.00   0.00   0.00    -0.00  -0.00  -0.00    -0.00  -0.00  -0.00
   9   1    -0.00   0.00  -0.00     0.00  -0.00   0.00    -0.00   0.00  -0.00
  10   1     0.25   0.26   0.26    -0.26  -0.32  -0.33    -0.37  -0.42  -0.38
  11   1     0.06   0.09  -0.43    -0.03  -0.11   0.52     0.08   0.16  -0.65
  12   1    -0.73  -0.05   0.22    -0.57  -0.02   0.16     0.01   0.01   0.03
