
                                 *****************
                                 * O   R   C   A *
                                 *****************

                                            #,                                       
                                            ###                                      
                                            ####                                     
                                            #####                                    
                                            ######                                   
                                           ########,                                 
                                     ,,################,,,,,                         
                               ,,#################################,,                 
                          ,,##########################################,,             
                       ,#########################################, ''#####,          
                    ,#############################################,,   '####,        
                  ,##################################################,,,,####,       
                ,###########''''           ''''###############################       
              ,#####''   ,,,,##########,,,,          '''####'''          '####       
            ,##' ,,,,###########################,,,                        '##       
           ' ,,###''''                  '''############,,,                           
         ,,##''                                '''############,,,,        ,,,,,,###''
      ,#''                                            '''#######################'''  
     '                                                          ''''####''''         
             ,#######,   #######,   ,#######,      ##                                
            ,#'     '#,  ##    ##  ,#'     '#,    #''#        ,####,   ,####,        
            ##       ##  ##   ,#'  ##            #'  '#       #'       #'  '#        
            ##       ##  #######   ##           ,######,      #####,   #    #        
            '#,     ,#'  ##    ##  '#,     ,#' ,#      #,     #,   #   #,  ,#        
             '#######'   ##     ##  '#######'  #'      '#     '####' # '####'        



                #########################################################
                #                        -***-                          #
                #          Department of theory and spectroscopy        #
                #                                                       #
                #                      Frank Neese                      #
                #                                                       #
                #     Directorship, Architecture, Infrastructure        #
                #                    SHARK, DRIVERS                     #
                #        Core code/Algorithms in most modules           #
                #                                                       #
                #        Max Planck Institute fuer Kohlenforschung      #
                #                Kaiser Wilhelm Platz 1                 #
                #                 D-45470 Muelheim/Ruhr                 #
                #                      Germany                          #
                #                                                       #
                #                  All rights reserved                  #
                #                        -***-                          #
                #########################################################


                         Program Version 6.0.0  -   RELEASE  -


 With contributions from (in alphabetic order):
   Daniel Aravena         : Magnetic Suceptibility
   Michael Atanasov       : Ab Initio Ligand Field Theory (pilot matlab implementation)
   Alexander A. Auer      : GIAO ZORA, VPT2 properties, NMR spectrum
   Ute Becker             : All parallelization in ORCA, NUMFREQ, NUMCALC
   Giovanni Bistoni       : ED, misc. LED, open-shell LED, HFLD
   Martin Brehm           : Molecular dynamics
   Dmytro Bykov           : pre 5.0 version of the SCF Hessian
   Marcos Casanova-Páez   : Triplet and SCS-CIS(D). UHF-(DLPNO)-IP/EA/STEOM-CCSD. UHF-CVS-IP/STEOM-CCSD
   Vijay G. Chilkuri      : MRCI spin determinant printing, contributions to CSF-ICE
   Pauline Colinet        : FMM embedding
   Dipayan Datta          : RHF DLPNO-CCSD density
   Achintya Kumar Dutta   : EOM-CC, STEOM-CC
   Nicolas Foglia         : Exact transition moments, OPA infrastructure, MCD improvements
   Dmitry Ganyushin       : Spin-Orbit,Spin-Spin,Magnetic field MRCI
   Miquel Garcia          : C-PCM and meta-GGA Hessian, CCSD/C-PCM, Gaussian charge scheme
   Tiago L. C. Gouveia    : GS-ROHF, GS-ROCIS
   Yang Guo               : DLPNO-NEVPT2, F12-NEVPT2, CIM, IAO-localization
   Andreas Hansen         : Spin unrestricted coupled pair/coupled cluster methods
   Ingolf Harden          : AUTO-CI MPn and infrastructure 
   Benjamin Helmich-Paris : MC-RPA, TRAH-(SCF,CASSCF), AVAS, COSX integrals, SCF dyn. polar.
   Lee Huntington         : MR-EOM, pCC
   Robert Izsak           : Overlap fitted RIJCOSX, COSX-SCS-MP3, EOM
   Riya Kayal             : Wick's Theorem for AUTO-CI, AUTO-CI UHF-CCSDT
   Emily Kempfer          : AUTO-CI, RHF CISDT and CCSDT
   Christian Kollmar      : KDIIS, OOCD, Brueckner-CCSD(T), CCSD density, CASPT2, CASPT2-K, improved NEVPT2
   Axel Koslowski         : Symmetry handling
   Simone Kossmann        : Meta GGA functionals, TD-DFT gradient, OOMP2, (MP2 Hessian; deprecated post 5.0)
   Lucas Lang             : DCDCAS
   Marvin Lechner         : AUTO-CI (C++ implementation), FIC-MRCC
   Spencer Leger          : CASSCF response
   Dagmar Lenk            : GEPOL surface, SMD, ORCA-2-JSON
   Dimitrios Liakos       : Extrapolation schemes; Compound Job, initial MDCI parallelization
   Dimitrios Manganas     : Further ROCIS development; embedding schemes. LFT, Crystal Embedding
   Dimitrios Pantazis     : SARC Basis sets
   Anastasios Papadopoulos: AUTO-CI, single reference methods and gradients
   Taras Petrenko         : pre 6.0 DFT Hessian and TD-DFT gradient, (ASA, deprecated), ECA, 1-Electron XAS/XES, NRVS
   Peter Pinski           : DLPNO-MP2, DLPNO-MP2 Gradient
   Christoph Reimann      : Effective Core Potentials
   Marius Retegan         : Local ZFS, SOC
   Christoph Riplinger    : Optimizer, TS searches, QM/MM, DLPNO-CCSD(T), (RO)-DLPNO pert. Triples
   Michael Roemelt        : Original ROCIS implementation
   Masaaki Saitow         : Open-shell DLPNO-CCSD energy and density
   Barbara Sandhoefer     : DKH picture change effects
   Kantharuban Sivalingam : CASSCF convergence/infrastructure, NEVPT2 and variants, FIC-MRCI
   Bernardo de Souza      : ESD, SOC TD-DFT
   Georgi Stoychev        : AutoAux, RI-MP2 NMR, DLPNO-MP2 response, X2C
   Van Anh Tran           : RI-MP2 g-tensors
   Willem Van den Heuvel  : Paramagnetic NMR
   Zikuan Wang            : NOTCH, Electric field optimization 
   Frank Wennmohs         : Technical directorship and infrastructure
   Hang Xu                : AUTO-CI-Response properties 


 We gratefully acknowledge several colleagues who have allowed us to
 interface, adapt or use parts of their codes:
   Stefan Grimme, W. Hujo, H. Kruse, P. Pracht,  : VdW corrections, initial TS optimization,
                  C. Bannwarth, S. Ehlert,         DFT functionals, gCP, sTDA/sTD-DF
                  L. Wittmann, M. Mueller
   Ed Valeev, F. Pavosevic, A. Kumar             : LibInt (2-el integral package), F12 methods
   Garnet Chan, S. Sharma, J. Yang, R. Olivares  : DMRG
   Ulf Ekstrom                                   : XCFun DFT Library
   Mihaly Kallay                                 : mrcc  (arbitrary order and MRCC methods)
   Frank Weinhold                                : gennbo (NPA and NBO analysis)
   Simon Mueller                                 : openCOSMO-RS
   Christopher J. Cramer and Donald G. Truhlar   : smd solvation model
   Lars Goerigk                                  : TD-DFT with DH, B97 family of functionals
   V. Asgeirsson, H. Jonsson                     : NEB implementation
   FAccTs GmbH                                   : IRC, NEB, NEB-TS, DLPNO-Multilevel, CI-OPT
                                                   MM, QMMM, 2- and 3-layer-ONIOM, Crystal-QMMM,
                                                   LR-CPCM, SF, NACMEs, symmetry and pop. for TD-DFT,
                                                   nearIR, NL-DFT gradient (VV10), updates on ESD,
                                                   ML-optimized integration grids, MBIS, APM,
                                                   GOAT, DOCKER, SOLVATOR, interface openCOSMO-RS
   S Lehtola, MJT Oliveira, MAL Marques          : LibXC Library
   Liviu Ungur et al                             : ANISO software


 Your calculation uses the libint2 library for the computation of 2-el integrals
 For citations please refer to: http://libint.valeyev.net

 Your ORCA version has been built with support for libXC version: 6.2.2
 For citations please refer to: https://libxc.gitlab.io

 This ORCA versions uses:
   CBLAS   interface :  Fast vector & matrix operations
   LAPACKE interface :  Fast linear algebra routines
   SCALAPACK package :  Parallel linear algebra routines
   Shared memory     :  Shared parallel matrices
   BLAS/LAPACK       :  OpenBLAS 0.3.27  USE64BITINT DYNAMIC_ARCH NO_AFFINITY SkylakeX SINGLE_THREADED
        Core in use  :  SkylakeX
   Copyright (c) 2011-2014, The OpenBLAS Project


Your calculation utilizes the geometrical counterpoise correction gCP
Please cite in your paper:
H.Kruse, S. Grimme J.Chem.Phys., 136, (2012), 154101 
   

Your calculation utilizes the DFT-NL dispersion correction.
Cite in your paper:
Vydrov, O. A.; Van Voorhis, T. J. Chem. Phys. 2010, 133, 244103
Hujo, W.; Grimme, S. J. Chem. Theory Comput. 2011, 7, 3866 
   

Your calculation utilizes the SMD solvation module
Please cite in your paper:
A.V. Marenich, C.J. Cramer, D.G. Truhlar J. Phys. Chem. B, 113, (2009), 6378 

================================================================================

----- Orbital basis set information -----
Your calculation utilizes the basis: def2-TZVP
   F. Weigend and R. Ahlrichs, Phys. Chem. Chem. Phys. 7, 3297 (2005).

----- AuxJ basis set information -----
Your calculation utilizes the auxiliary basis: def2/J
   F. Weigend, Phys. Chem. Chem. Phys. 8, 1057 (2006).

================================================================================
                                        WARNINGS
                       Please study these warnings very carefully!
================================================================================


================================================================================
                                       INPUT FILE
================================================================================
NAME = sp_solv.inp
|  1> ! wb97x-v def2-tzvp def2/J RIJCOSX DEFGRID2 scfconv7 GCP(DFT/TZ) printgap
|  2> %output
|  3>     printlevel normal
|  4> end
|  5> %cpcm
|  6>     smd true
|  7>     smdsolvent "water"
|  8> end
|  9> * xyz 0 1
| 10> C -0.4831447760766194 0.4531018353128061 0.0008385614096148895
| 11> C 0.48311438012346186 -0.4530807184921344 0.000400030280042223
| 12> Cl 2.1564880035545992 0.04785491131335271 -0.0005947301721024341
| 13> Cl -2.156502150325499 -0.04784324800126051 -0.0006973686298752551
| 14> H -0.3358024821074536 1.526864807838442 -0.0001603038473242298
| 15> H 0.33577835797111144 -1.526848894419304 -0.0006470173653252411
| 16> *
| 17> 
| 18>                          ****END OF INPUT****
================================================================================

                       ****************************
                       * Single Point Calculation *
                       ****************************

---------------------------------
CARTESIAN COORDINATES (ANGSTROEM)
---------------------------------
  C     -0.483145    0.453102    0.000839
  C      0.483114   -0.453081    0.000400
  Cl     2.156488    0.047855   -0.000595
  Cl    -2.156502   -0.047843   -0.000697
  H     -0.335802    1.526865   -0.000160
  H      0.335778   -1.526849   -0.000647

----------------------------
CARTESIAN COORDINATES (A.U.)
----------------------------
  NO LB      ZA    FRAG     MASS         X           Y           Z
   0 C     6.0000    0    12.011   -0.913011    0.856238    0.001585
   1 C     6.0000    0    12.011    0.912954   -0.856198    0.000756
   2 Cl   17.0000    0    35.453    4.075172    0.090433   -0.001124
   3 Cl   17.0000    0    35.453   -4.075198   -0.090411   -0.001318
   4 H     1.0000    0     1.008   -0.634575    2.885356   -0.000303
   5 H     1.0000    0     1.008    0.634529   -2.885326   -0.001223

--------------------------------
INTERNAL COORDINATES (ANGSTROEM)
--------------------------------
 C      0   0   0     0.000000000000     0.00000000     0.00000000
 C      1   0   0     1.324697614579     0.00000000     0.00000000
 Cl     2   1   0     1.746744623107   120.17226485     0.00000000
 Cl     1   2   3     1.746732159643   120.17177567   179.90398086
 H      1   2   3     1.083825479720   125.34891652     0.05147737
 H      2   1   3     1.083829827679   125.34932458   180.08112445

---------------------------
INTERNAL COORDINATES (A.U.)
---------------------------
 C      0   0   0     0.000000000000     0.00000000     0.00000000
 C      1   0   0     2.503315701813     0.00000000     0.00000000
 Cl     2   1   0     3.300868963571   120.17226485     0.00000000
 Cl     1   2   3     3.300845411038   120.17177567   179.90398086
 H      1   2   3     2.048133333637   125.34891652     0.05147737
 H      2   1   3     2.048141550088   125.34932458   180.08112445

---------------------
BASIS SET INFORMATION
---------------------
There are 3 groups of distinct atoms

 Group   1 Type C   : 11s6p2d1f contracted to 5s3p2d1f pattern {62111/411/11/1}
 Group   2 Type Cl  : 14s9p3d1f contracted to 5s5p2d1f pattern {73211/51111/21/1}
 Group   3 Type H   : 5s1p contracted to 3s1p pattern {311/1}

Atom   0C    basis set group =>   1
Atom   1C    basis set group =>   1
Atom   2Cl   basis set group =>   2
Atom   3Cl   basis set group =>   2
Atom   4H    basis set group =>   3
Atom   5H    basis set group =>   3
---------------------------------
AUXILIARY/J BASIS SET INFORMATION
---------------------------------
There are 3 groups of distinct atoms

 Group   1 Type C   : 12s5p4d2f1g contracted to 6s4p3d1f1g pattern {711111/2111/211/2/1}
 Group   2 Type Cl  : 14s5p5d2f1g contracted to 8s4p3d1f1g pattern {71111111/2111/311/2/1}
 Group   3 Type H   : 5s2p1d contracted to 3s1p1d pattern {311/2/1}

Atom   0C    basis set group =>   1
Atom   1C    basis set group =>   1
Atom   2Cl   basis set group =>   2
Atom   3Cl   basis set group =>   2
Atom   4H    basis set group =>   3
Atom   5H    basis set group =>   3

Checking for AutoStart:
The File: sp_solv.gbw exists
Trying to determine its content:
     ... Fine, the file contains calculation information
     ... Fine, the calculation information was read
     ... Fine, the file contains a basis set
     ... Fine, the basis set was read
     ... Fine, the file contains a geometry
     ... Fine, the geometry was read
     ... Fine, the file contains a set of orbitals
     ... Fine, the orbitals can be read
     => possible old guess file was deleted
     => GBW file was renamed to GES file
     => GES file is set as startup file
     => Guess is set to MORead
     ... now leaving AutoStart

------------------------------------------------------------------------------
                             ORCA STARTUP CALCULATIONS
                           -- RI-GTO INTEGRALS CHOSEN --
------------------------------------------------------------------------------
------------------------------------------------------------------------------
                   ___                                                        
                  /   \      - P O W E R E D   B Y -                         
                 /     \                                                     
                 |  |  |   _    _      __       _____    __    __             
                 |  |  |  | |  | |    /  \     |  _  \  |  |  /  |          
                  \  \/   | |  | |   /    \    | | | |  |  | /  /          
                 / \  \   | |__| |  /  /\  \   | |_| |  |  |/  /          
                |  |  |   |  __  | /  /__\  \  |    /   |      \           
                |  |  |   | |  | | |   __   |  |    \   |  |\   \          
                \     /   | |  | | |  |  |  |  | |\  \  |  | \   \       
                 \___/    |_|  |_| |__|  |__|  |_| \__\ |__|  \__/        
                                                                              
                      - O R C A' S   B I G   F R I E N D -                    
                                      &                                       
                       - I N T E G R A L  F E E D E R -                       
                                                                              
 v1 FN, 2020, v2 2021, v3 2022-2024                                           
------------------------------------------------------------------------------


----------------------
SHARK INTEGRAL PACKAGE
----------------------

Number of atoms                             ...      6
Number of basis functions                   ...    148
Number of shells                            ...     56
Maximum angular momentum                    ...      3
Integral batch strategy                     ... SHARK/LIBINT Hybrid
RI-J (if used) integral strategy            ... SPLIT-RIJ (Revised 2003 algorithm where possible)
Printlevel                                  ...      1
Contraction scheme used                     ... SEGMENTED contraction
Prescreening option                         ... SCHWARTZ
   Thresh                                   ... 3.000e-11
   Tcut                                     ... 1.000e-12
   Tpresel                                  ... 1.000e-12 
Coulomb Range Separation                    ... NOT USED
Exchange Range Separation                   ... Long Range
   Mu parameter                             ... 3.000e-01
   Scaling (regular/separated)              ... 1.670e-01 8.330e-01
Multipole approximations                    ... NOT USED
Finite Nucleus Model                        ... NOT USED
CABS basis                                  ... NOT available
Auxiliary Coulomb fitting basis             ... AVAILABLE
   # of basis functions in Aux-J            ...    222
   # of shells in Aux-J                     ...     74
   Maximum angular momentum in Aux-J        ...      4
Auxiliary J/K fitting basis                 ... NOT available
Auxiliary Correlation fitting basis         ... NOT available
Auxiliary 'external' fitting basis          ... NOT available

Checking pre-screening integrals            ... done (  0.0 sec) Dimension = 56
Check shell pair data                       ... done (  0.0 sec)
Shell pair information
Shell pair cut-off parameter TPreSel        ...   1.0e-12
Total number of shell pairs                 ...      1596
Shell pairs after pre-screening             ...      1497
Total number of primitive shell pairs       ...      5793
Primitive shell pairs kept                  ...      4231
          la=0 lb=0:    315 shell pairs
          la=1 lb=0:    436 shell pairs
          la=1 lb=1:    162 shell pairs
          la=2 lb=0:    202 shell pairs
          la=2 lb=1:    138 shell pairs
          la=2 lb=2:     36 shell pairs
          la=3 lb=0:     98 shell pairs
          la=3 lb=1:     68 shell pairs
          la=3 lb=2:     32 shell pairs
          la=3 lb=3:     10 shell pairs

Calculating one electron integrals          ... done (  0.0 sec)
Calculating RI/J V-Matrix + Cholesky decomp.... done (  0.0 sec)
Calculating Nuclear repulsion               ... done (  0.0 sec) ENN=    174.730413357088 Eh

Diagonalization of the overlap matrix:
Smallest eigenvalue                        ... 1.828e-04
Time for diagonalization                   ...    0.002 sec
Threshold for overlap eigenvalues          ... 1.000e-07
Number of eigenvalues below threshold      ... 0
Time for construction of square roots      ...    0.014 sec
Total time needed                          ...    0.025 sec

-------------------
DFT GRID GENERATION
-------------------

General Integration Accuracy     IntAcc      ... 4.388
Radial Grid Type                 RadialGrid  ... OptM3 with GC (2021)
Angular Grid (max. ang.)         AngularGrid ... 4 (Lebedev-302)
Angular grid pruning method      GridPruning ... 4 (adaptive)
Weight generation scheme         WeightScheme... mBecke (2022)
Basis function cutoff            BFCut       ... 1.0000e-11
Integration weight cutoff        WCut        ... 1.0000e-14
Partially contracted basis set               ... off
Rotationally invariant grid construction     ... off
Angular grids for H and He will be reduced by one unit

Total number of grid points                  ...    33406
Total number of batches                      ...      526
Average number of points per batch           ...       63
Average number of grid points per atom       ...     5568

--------------------
COSX GRID GENERATION
--------------------

GRIDX 1
-------
General Integration Accuracy     IntAcc      ... 3.816
Radial Grid Type                 RadialGrid  ... OptM3 with GC (2021)
Angular Grid (max. ang.)         AngularGrid ... 1 (Lebedev-50)
Angular grid pruning method      GridPruning ... 4 (adaptive)
Weight generation scheme         WeightScheme... mBecke (2022)
Basis function cutoff            BFCut       ... 1.0000e-11
Integration weight cutoff        WCut        ... 1.0000e-14
Partially contracted basis set               ... on
Rotationally invariant grid construction     ... off
Angular grids for H and He will be reduced by one unit

Total number of grid points                  ...     6336
Total number of batches                      ...       52
Average number of points per batch           ...      121
Average number of grid points per atom       ...     1056
UseSFitting                                  ... on

GRIDX 2
-------
General Integration Accuracy     IntAcc      ... 4.020
Radial Grid Type                 RadialGrid  ... OptM3 with GC (2021)
Angular Grid (max. ang.)         AngularGrid ... 2 (Lebedev-110)
Angular grid pruning method      GridPruning ... 4 (adaptive)
Weight generation scheme         WeightScheme... mBecke (2022)
Basis function cutoff            BFCut       ... 1.0000e-11
Integration weight cutoff        WCut        ... 1.0000e-14
Partially contracted basis set               ... on
Rotationally invariant grid construction     ... off
Angular grids for H and He will be reduced by one unit

Total number of grid points                  ...     9266
Total number of batches                      ...       76
Average number of points per batch           ...      121
Average number of grid points per atom       ...     1544
UseSFitting                                  ... on

GRIDX 3
-------
General Integration Accuracy     IntAcc      ... 4.338
Radial Grid Type                 RadialGrid  ... OptM3 with GC (2021)
Angular Grid (max. ang.)         AngularGrid ... 3 (Lebedev-194)
Angular grid pruning method      GridPruning ... 4 (adaptive)
Weight generation scheme         WeightScheme... mBecke (2022)
Basis function cutoff            BFCut       ... 1.0000e-11
Integration weight cutoff        WCut        ... 1.0000e-14
Partially contracted basis set               ... on
Rotationally invariant grid construction     ... off
Angular grids for H and He will be reduced by one unit

Total number of grid points                  ...    21716
Total number of batches                      ...      172
Average number of points per batch           ...      126
Average number of grid points per atom       ...     3619
UseSFitting                                  ... on
Initializing property integral containers    ... done (  0.0 sec)

SHARK setup successfully completed in   0.8 seconds

Maximum memory used throughout the entire STARTUP-calculation: 18.5 MB
-------------------------------------------------------------------------------
                                 ORCA GUESS
                   Start orbitals & Density for SCF / CASSCF
-------------------------------------------------------------------------------

------------
SCF SETTINGS
------------
Hamiltonian:
 Density Functional     Method          .... DFT(GTOs)
 Exchange Functional    Exchange        .... WB97X-V
 Correlation Functional Correlation     .... WB97X-V
 Gradients option       PostSCFGGA      .... off
 Hybrid DFT is turned on
   Fraction HF Exchange ScalHFX         ....  0.167000
   Scaling of DF-GGA-X  ScalDFX         ....  0.000000
   Scaling of DF-GGA-C  ScalDFC         ....  1.000000
   Scaling of DF-LDA-C  ScalLDAC        ....  1.000000
   Perturbative correction              ....  0.000000
 Long-range corrected/Screened/Range-Separated Hybrid DFT is turned on
   Amount of maximum screened exact exchange              ....  0.833000
   Range separation parameter mu (erf(mu*r12)/r12)        ....  0.300000
   NL short-range parameter             ....  6.000000
   NL long-range parameter              ....  0.010000
 RI-approximation to the Coulomb term is turned on
   Number of AuxJ basis functions       .... 222
   RIJ-COSX (HFX calculated with COS-X)).... on


General Settings:
 Integral files         IntName         .... sp_solv
 Hartree-Fock type      HFTyp           .... RHF
 Total Charge           Charge          ....    0
 Multiplicity           Mult            ....    1
 Number of Electrons    NEL             ....   48
 Basis Dimension        Dim             ....  148
 Nuclear Repulsion      ENuc            ....    174.7304133571 Eh

Convergence Acceleration:
 AO-DIIS                CNVDIIS         .... on
   Start iteration      DIISMaxIt       ....    12
   Startup error        DIISStart       ....  0.200000
   # of expansion vecs  DIISMaxEq       ....     5
   Bias factor          DIISBfac        ....   1.050
   Max. coefficient     DIISMaxC        ....  10.000
 MO-DIIS                CNVKDIIS        .... off
 Trust-Rad. Augm. Hess. CNVTRAH         .... auto
   Auto Start mean grad. ratio tolernc. ....  1.125000
   Auto Start start iteration           ....     1
   Auto Start num. interpolation iter.  ....    10
   Max. Number of Micro iterations      ....    24
   Max. Number of Macro iterations      .... Maxiter - #DIIS iter
   Number of Davidson start vectors     ....     2
   Converg. threshold    (grad. norm)   ....   1.000e-04
   Grad. Scal. Fac. for Micro threshold ....   0.100
   Minimum threshold for Micro iter.    ....   1.000e-02
   NR start threshold (gradient norm)   ....   1.000e-04
   Initial trust radius                 ....   0.400
   Minimum AH scaling param. (alpha)    ....   1.000
   Maximum AH scaling param. (alpha)    .... 1000.000
   Quad. conv. algorithm                .... NR
   White noise on init. David. guess    .... on
   Maximum white noise                  ....   0.010
   Pseudo random numbers                .... off
   Inactive MOs                         .... canonical
   Orbital update algorithm             .... Taylor
   Preconditioner                       .... Diag
   Full preconditioner red. dimension   ....   250
 SOSCF                  CNVSOSCF        .... on
   Start iteration      SOSCFMaxIt      ....   150
   Startup grad/error   SOSCFStart      ....  0.003300
   Hessian update       SOSCFHessUp     .... L-BFGS
 Level Shifting         CNVShift        .... on
   Level shift para.    LevelShift      ....    0.2500
   Turn off err/grad.   ShiftErr        ....    0.0010
 Zerner damping         CNVZerner       .... off
 Static damping         CNVDamp         .... on
   Fraction old density DampFac         ....    0.7000
   Max. Damping (<1)    DampMax         ....    0.9800
   Min. Damping (>=0)   DampMin         ....    0.0000
   Turn off err/grad.   DampErr         ....    0.1000

SCF Procedure:
 Maximum # iterations   MaxIter         ....   125
 SCF integral mode      SCFMode         .... Direct
   Integral package                     .... SHARK and LIBINT hybrid scheme
 Reset frequency        DirectResetFreq ....    20
 Integral Threshold     Thresh          ....  3.000e-11 Eh
 Primitive CutOff       TCut            ....  1.000e-12 Eh

Convergence Tolerance:
 Convergence Check Mode ConvCheckMode   .... Total+1el-Energy
 Convergence forced     ConvForced      .... 0
 Energy Change          TolE            ....  1.000e-07 Eh
 1-El. energy change                    ....  1.000e-04 Eh
 Orbital Gradient       TolG            ....  1.000e-04
 Orbital Rotation angle TolX            ....  1.000e-04
 DIIS Error             TolErr          ....  1.000e-07

---------------------
INITIAL GUESS: MOREAD
---------------------
Guess MOs are being read from file: sp_solv.ges
Input Geometry matches current geometry (good)
Atom 0: N(Shells)= 11 and 9 - projection required
Input basis set needs projection
NBasis(read)= 102
NBasis(calc)= 148
Basis set overlap was calculated
Using GuessMode=FMatrix for the initial guess
C*T matrix was formed
Effective Fockian was calculated
Effective Fockian was diagonalized
Initial density was built
                      ------------------
                      INITIAL GUESS DONE (   0.0 sec)
                      ------------------
             **** ENERGY FILE WAS UPDATED (sp_solv.en.tmp) ****
Finished Guess after   0.2 sec
Maximum memory used throughout the entire GUESS-calculation: 12.1 MB

-------------------------------------------------------------------------------------------
                                      ORCA LEAN-SCF
                              memory conserving SCF solver
-------------------------------------------------------------------------------------------

--------------------
CPCM SOLVATION MODEL
--------------------
CPCM parameters:
  Epsilon                                         ...      78.3550
  Refrac                                          ...       1.3328
  Rsolv                                           ...       1.3000
  Surface type                                    ... GAUSSIAN VDW
  Discretization scheme                           ... Constant charge density
    Threshold for H atoms                         ...       5.0000 (charges/Ang^2)
    Threshold for non-H atoms                     ...       5.0000 (charges/Ang^2)
  Epsilon function type                           ...         CPCM
Solvent:                                          ... WATER
SMD-CDS solvent descriptors:
  Soln                                            ...       1.3328
  Soln25                                          ...       1.3323
  Sola                                            ...       0.0000
  Solb                                            ...       0.0000
  Solg                                            ...       0.0000
  Solc                                            ...       0.0000
  Solh                                            ...       0.0000
Radii:
  Scheme                                          ... Element-dependent radii
  Radius for C  used is    3.4960 Bohr (=   1.8500 Ang.)
  Radius for Cl used is    4.4975 Bohr (=   2.3800 Ang.)
  Radius for H  used is    2.2677 Bohr (=   1.2000 Ang.)
Calculating surface                               ...        done! (  0.0s)
Cavity surface points                             ...          762
Cavity Volume                                     ...     826.8153
Cavity Surface-area                               ...     487.6374
Calculating surface distance matrix               ...        done! (  0.0s)
Performing Cholesky decomposition & store         ...        done! (  0.0s)
Overall time for CPCM initialization              ...                 0.0s

----------------------------------------D-I-I-S--------------------------------------------
Iteration    Energy (Eh)           Delta-E    RMSDP     MaxDP     DIISErr   Damp  Time(sec)
-------------------------------------------------------------------------------------------
               ***  Starting incremental Fock matrix formation  ***
    1    -997.8676466424957425     0.00e+00  1.13e-03  2.34e-02  4.46e-02  0.700   2.9
    2    -997.8715066242383500    -3.86e-03  9.48e-04  2.01e-02  3.30e-02  0.700   2.1
                               ***Turning on AO-DIIS***
    3    -997.8744019210417946    -2.90e-03  7.77e-04  1.66e-02  2.39e-02  0.700   2.0
    4    -997.8765301777638115    -2.13e-03  1.94e-03  4.14e-02  1.69e-02  0.000   2.0
                              *** Initializing SOSCF ***
---------------------------------------S-O-S-C-F--------------------------------------
Iteration    Energy (Eh)           Delta-E    RMSDP     MaxDP     MaxGrad    Time(sec)
--------------------------------------------------------------------------------------
    5    -997.8819661403232431    -5.44e-03  9.92e-05  1.54e-03  1.56e-03     2.1
               *** Restarting incremental Fock matrix formation ***
    6    -997.8819905297906416    -2.44e-05  5.41e-05  9.04e-04  1.04e-03     3.2
    7    -997.8819994478261606    -8.92e-06  2.92e-05  4.72e-04  4.09e-04     2.5
    8    -997.8820010051937288    -1.56e-06  3.75e-06  8.44e-05  4.10e-05     3.1
    9    -997.8820010227271950    -1.75e-08  1.11e-06  4.04e-05  1.51e-05     2.2
                 **** Energy Check signals convergence ****

               *****************************************************
               *                     SUCCESS                       *
               *           SCF CONVERGED AFTER   9 CYCLES          *
               *****************************************************


------------------
NL GRID GENERATION
------------------

General Integration Accuracy     IntAcc      ... 4.004
Radial Grid Type                 RadialGrid  ... OptM3 with GC (2021)
Angular Grid (max. ang.)         AngularGrid ... 2 (Lebedev-110)
Angular grid pruning method      GridPruning ... 4 (adaptive)
Weight generation scheme         WeightScheme... mBecke (2022)
Basis function cutoff            BFCut       ... 1.0000e-10
Integration weight cutoff        WCut        ... 1.0000e-14
Partially contracted basis set               ... off
Rotationally invariant grid construction     ... off
Angular grids for H and He will be reduced by one unit

Total number of grid points                  ...    10658
Total number of batches                      ...      168
Average number of points per batch           ...       63
Average number of grid points per atom       ...     1776
Final grid set up in    0.1 sec

-------------------------------------------------------------------------------
                    post-SCF DFT-NL dispersion correction                      
-------------------------------------------------------------------------------

SCF Energy:     -997.882001023 
NL    Energy:      0.195669058 
SC+NL Energy:   -997.686331964 
NL done in  :              0.4 sec
-------------------------------------------------------------------------------
Recomputing exchange energy using gridx3       ... done (    4.505 sec)
Old exchange energy                            :    -17.414228777 Eh
New exchange energy                            :    -17.414208116 Eh
Exchange energy change after final integration :      0.000020661 Eh
Total energy after final integration           :   -997.686311303 Eh

SMD CDS free energy correction energy :                 2.70410     Kcal/mol
Total Energy after SMD CDS correction =              -997.682002048 Eh
             **** ENERGY FILE WAS UPDATED (sp_solv.en.tmp) ****

----------------
TOTAL SCF ENERGY
----------------

Total Energy       :       -997.68200204795994 Eh          -27148.30747 eV

Components:
Nuclear Repulsion  :        174.73041335708800 Eh            4754.65627 eV
Electronic Energy  :      -1172.60670841115189 Eh          -31908.25072 eV
One Electron Energy:      -1721.72222693500680 Eh          -46850.44363 eV
Two Electron Energy:        549.11551852385480 Eh           14942.19291 eV
CPCM Dielectric    :         -0.00570596866308 Eh              -0.15527 eV
SMD CDS (Gcds)     :          0.00430925511596 Eh               0.11726 eV

Virial components:
Potential Energy   :      -1993.65091412589572 Eh          -54249.99939 eV
Kinetic Energy     :        995.96891207793578 Eh           27101.69192 eV
Virial Ratio       :          2.00172002353613

DFT components:
N(Alpha)           :       23.999996731469 electrons
N(Beta)            :       23.999996731469 electrons
N(Total)           :       47.999993462938 electrons
E(X)               :      -48.335777821678 Eh       
E(C)               :       -2.361009783621 Eh       
NL Energy, E(C,NL) :        0.195669058308 Eh       
E(XC)              :      -50.501118546990 Eh       

CPCM Solvation Model Properties:
Surface-charge          :         -0.00968648978647
Corrected charge        :         -0.00000000000000
Outlying charge corr.   :          0.00000750350934 Eh               0.00020 eV
Free-energy (cav+disp)  :          0.00430925511596 Eh               0.11726 eV

---------------
SCF CONVERGENCE
---------------

  Last Energy change         ...    1.7533e-08  Tolerance :   1.0000e-07
  Last MAX-Density change    ...    4.0412e-05  Tolerance :   1.0000e-05
  Last RMS-Density change    ...    1.1090e-06  Tolerance :   1.0000e-06
  Last DIIS Error            ...    1.5622e-03  Tolerance :   1.0000e-07
  Last Orbital Gradient      ...    1.5072e-05  Tolerance :   1.0000e-04
  Last Orbital Rotation      ...    7.7551e-06  Tolerance :   1.0000e-04


----------------
ORBITAL ENERGIES
----------------

  NO   OCC          E(Eh)            E(eV) 
   0   2.0000    -107.155237     -2915.8423 
   1   2.0000    -107.155231     -2915.8421 
   2   2.0000     -12.120740      -329.8221 
   3   2.0000     -12.117986      -329.7472 
   4   2.0000     -11.308394      -307.7170 
   5   2.0000     -11.308267      -307.7136 
   6   2.0000      -9.100485      -247.6368 
   7   2.0000      -9.099167      -247.6009 
   8   2.0000      -9.097424      -247.5535 
   9   2.0000      -9.097115      -247.5451 
  10   2.0000      -9.097055      -247.5434 
  11   2.0000      -9.096767      -247.5356 
  12   2.0000      -1.443551       -39.2810 
  13   2.0000      -1.417679       -38.5770 
  14   2.0000      -1.282167       -34.8895 
  15   2.0000      -1.067520       -29.0487 
  16   2.0000      -0.957323       -26.0501 
  17   2.0000      -0.955655       -26.0047 
  18   2.0000      -0.867495       -23.6057 
  19   2.0000      -0.835886       -22.7456 
  20   2.0000      -0.813392       -22.1335 
  21   2.0000      -0.800311       -21.7776 
  22   2.0000      -0.790027       -21.4977 
  23   2.0000      -0.687483       -18.7074 
  24   0.0000      -0.306801        -8.3485 
  25   0.0000      -0.247834        -6.7439 
  26   0.0000      -0.201915        -5.4944 
  27   0.0000       0.006506         0.1770 
  28   0.0000       0.060896         1.6571 
  29   0.0000       0.066756         1.8165 
  30   0.0000       0.101391         2.7590 
  31   0.0000       0.115326         3.1382 
  32   0.0000       0.136683         3.7193 
  33   0.0000       0.168359         4.5813 
  34   0.0000       0.169231         4.6050 
*Only the first 10 virtual orbitals were printed.

                    ********************************
                    * MULLIKEN POPULATION ANALYSIS *
                    ********************************

-----------------------
MULLIKEN ATOMIC CHARGES
-----------------------
   0 C :   -0.110644
   1 C :   -0.110635
   2 Cl:   -0.098518
   3 Cl:   -0.098510
   4 H :    0.209154
   5 H :    0.209154
Sum of atomic charges:    0.0000000

--------------------------------
MULLIKEN REDUCED ORBITAL CHARGES
--------------------------------
  0 C s       :     3.195692  s :     3.195692
      pz      :     1.008969  p :     2.797452
      px      :     0.805239
      py      :     0.983245
      dz2     :     0.006088  d :     0.109370
      dxz     :     0.027463
      dyz     :     0.007985
      dx2y2   :     0.040080
      dxy     :     0.027753
      f0      :     0.001752  f :     0.008130
      f+1     :     0.000944
      f-1     :     0.000741
      f+2     :     0.000465
      f-2     :     0.000930
      f+3     :     0.001653
      f-3     :     0.001645

  1 C s       :     3.195694  s :     3.195694
      pz      :     1.008968  p :     2.797446
      px      :     0.805236
      py      :     0.983241
      dz2     :     0.006089  d :     0.109366
      dxz     :     0.027463
      dyz     :     0.007985
      dx2y2   :     0.040079
      dxy     :     0.027750
      f0      :     0.001752  f :     0.008130
      f+1     :     0.000944
      f-1     :     0.000741
      f+2     :     0.000465
      f-2     :     0.000930
      f+3     :     0.001653
      f-3     :     0.001645

  2 Cls       :     5.878759  s :     5.878759
      pz      :     3.929020  p :    11.154328
      px      :     3.319683
      py      :     3.905625
      dz2     :     0.007970  d :     0.059887
      dxz     :     0.016858
      dyz     :     0.000830
      dx2y2   :     0.020598
      dxy     :     0.013631
      f0      :     0.000563  f :     0.005543
      f+1     :     0.001019
      f-1     :     0.000156
      f+2     :     0.000692
      f-2     :     0.000180
      f+3     :     0.001452
      f-3     :     0.001481

  3 Cls       :     5.878757  s :     5.878757
      pz      :     3.929017  p :    11.154320
      px      :     3.319684
      py      :     3.905619
      dz2     :     0.007971  d :     0.059889
      dxz     :     0.016859
      dyz     :     0.000830
      dx2y2   :     0.020599
      dxy     :     0.013631
      f0      :     0.000563  f :     0.005543
      f+1     :     0.001019
      f-1     :     0.000156
      f+2     :     0.000692
      f-2     :     0.000180
      f+3     :     0.001452
      f-3     :     0.001481

  4 H s       :     0.768189  s :     0.768189
      pz      :     0.004294  p :     0.022657
      px      :     0.003080
      py      :     0.015283

  5 H s       :     0.768189  s :     0.768189
      pz      :     0.004294  p :     0.022657
      px      :     0.003080
      py      :     0.015283


------------------------
MULLIKEN OVERLAP CHARGES
------------------------
B(  0-C ,  1-C ) :   1.3509 B(  0-C ,  2-Cl) :  -0.0834 B(  0-C ,  3-Cl) :   0.6020 
B(  0-C ,  4-H ) :   0.8121 B(  0-C ,  5-H ) :  -0.0623 B(  1-C ,  2-Cl) :   0.6020 
B(  1-C ,  3-Cl) :  -0.0834 B(  1-C ,  4-H ) :  -0.0623 B(  1-C ,  5-H ) :   0.8121 
B(  2-Cl,  5-H ) :  -0.0827 B(  3-Cl,  4-H ) :  -0.0827 


                     *******************************
                     * LOEWDIN POPULATION ANALYSIS *
                     *******************************

----------------------
LOEWDIN ATOMIC CHARGES
----------------------
   0 C :   -0.478111
   1 C :   -0.478099
   2 Cl:    0.336662
   3 Cl:    0.336677
   4 H :    0.141435
   5 H :    0.141436

-------------------------------
LOEWDIN REDUCED ORBITAL CHARGES
-------------------------------
  0 C s       :     2.890648  s :     2.890648
      pz      :     0.969616  p :     3.080925
      px      :     1.020093
      py      :     1.091216
      dz2     :     0.031990  d :     0.459870
      dxz     :     0.096220
      dyz     :     0.017911
      dx2y2   :     0.186014
      dxy     :     0.127735
      f0      :     0.003875  f :     0.046668
      f+1     :     0.005465
      f-1     :     0.003766
      f+2     :     0.002740
      f-2     :     0.006979
      f+3     :     0.011839
      f-3     :     0.012003

  1 C s       :     2.890651  s :     2.890651
      pz      :     0.969616  p :     3.080917
      px      :     1.020087
      py      :     1.091215
      dz2     :     0.031990  d :     0.459864
      dxz     :     0.096217
      dyz     :     0.017911
      dx2y2   :     0.186014
      dxy     :     0.127732
      f0      :     0.003875  f :     0.046667
      f+1     :     0.005465
      f-1     :     0.003766
      f+2     :     0.002740
      f-2     :     0.006979
      f+3     :     0.011839
      f-3     :     0.012003

  2 Cls       :     5.556681  s :     5.556681
      pz      :     3.855938  p :    10.994127
      px      :     3.309544
      py      :     3.828646
      dz2     :     0.012412  d :     0.100847
      dxz     :     0.028416
      dyz     :     0.001600
      dx2y2   :     0.031172
      dxy     :     0.027247
      f0      :     0.001281  f :     0.011682
      f+1     :     0.001789
      f-1     :     0.000365
      f+2     :     0.001536
      f-2     :     0.000476
      f+3     :     0.002931
      f-3     :     0.003304

  3 Cls       :     5.556672  s :     5.556672
      pz      :     3.855933  p :    10.994117
      px      :     3.309546
      py      :     3.828639
      dz2     :     0.012412  d :     0.100850
      dxz     :     0.028417
      dyz     :     0.001600
      dx2y2   :     0.031173
      dxy     :     0.027248
      f0      :     0.001281  f :     0.011683
      f+1     :     0.001789
      f-1     :     0.000365
      f+2     :     0.001536
      f-2     :     0.000476
      f+3     :     0.002931
      f-3     :     0.003304

  4 H s       :     0.793049  s :     0.793049
      pz      :     0.013416  p :     0.065516
      px      :     0.009672
      py      :     0.042428

  5 H s       :     0.793049  s :     0.793049
      pz      :     0.013416  p :     0.065515
      px      :     0.009672
      py      :     0.042428


---------------------------------
LOEWDIN BOND ORDERS (THRESH 0.050000)
---------------------------------
B(  0-C ,  1-C ) :   2.1989 B(  0-C ,  2-Cl) :   0.2298 B(  0-C ,  3-Cl) :   1.6746 
B(  0-C ,  4-H ) :   0.8711 B(  0-C ,  5-H ) :   0.1161 B(  1-C ,  2-Cl) :   1.6746 
B(  1-C ,  3-Cl) :   0.2298 B(  1-C ,  4-H ) :   0.1161 B(  1-C ,  5-H ) :   0.8711 
B(  2-Cl,  5-H ) :   0.0507 B(  3-Cl,  4-H ) :   0.0507 

------------------------------------------
LOEWDIN REDUCED ORBITAL POPULATIONS PER MO
-------------------------------------------
THRESHOLD FOR PRINTING IS 0.1%%
                      0         1         2         3         4         5   
                 -107.15524 -107.15523 -12.12074 -12.11799 -11.30839 -11.30827
                   2.00000   2.00000   2.00000   2.00000   2.00000   2.00000
                  --------  --------  --------  --------  --------  --------
 0 C  s               0.0       0.0      49.6      49.5       0.0       0.0
 0 C  dxy             0.0       0.0       0.2       0.1       0.0       0.0
 1 C  s               0.0       0.0      49.4      49.7       0.0       0.0
 1 C  dxy             0.0       0.0       0.2       0.1       0.0       0.0
 2 Cl s              43.0      57.0       0.0       0.0      49.5      50.3
 3 Cl s              57.0      43.0       0.0       0.0      50.4      49.4

                      6         7         8         9        10        11   
                  -9.10048  -9.09917  -9.09742  -9.09712  -9.09705  -9.09677
                   2.00000   2.00000   2.00000   2.00000   2.00000   2.00000
                  --------  --------  --------  --------  --------  --------
 2 Cl pz              0.0       0.0      49.9       0.0       0.0      50.1
 2 Cl px             47.7      41.2       0.0       8.7       2.3       0.0
 2 Cl py              2.2       8.8       0.0      40.4      48.6       0.0
 3 Cl pz              0.0       0.0      50.1       0.0       0.0      49.9
 3 Cl px             47.8      41.1       0.0       8.9       2.1       0.0
 3 Cl py              2.2       8.8       0.0      42.0      47.0       0.0

                     12        13        14        15        16        17   
                  -1.44355  -1.41768  -1.28217  -1.06752  -0.95732  -0.95566
                   2.00000   2.00000   2.00000   2.00000   2.00000   2.00000
                  --------  --------  --------  --------  --------  --------
 0 C  s              15.8       2.7      15.2       9.8       0.6       0.1
 0 C  px              0.5      12.8      11.3       1.8      12.5       7.9
 0 C  py              2.6       0.1       2.5      10.4      12.2      13.4
 0 C  dz2             0.9       0.3       0.0       0.1       0.1       0.0
 0 C  dx2y2           1.5       0.4       0.8       0.1       0.0       0.3
 0 C  dxy             0.0       0.9       1.5       0.5       0.2       0.0
 0 C  f-3             0.2       0.0       0.0       0.0       0.0       0.1
 1 C  s              15.8       2.7      15.2       9.8       0.6       0.1
 1 C  px              0.5      12.8      11.3       1.8      12.5       7.9
 1 C  py              2.6       0.1       2.5      10.4      12.2      13.4
 1 C  dz2             0.9       0.3       0.0       0.1       0.1       0.0
 1 C  dx2y2           1.5       0.4       0.8       0.1       0.0       0.3
 1 C  dxy             0.0       0.9       1.5       0.5       0.2       0.0
 1 C  f-3             0.2       0.0       0.0       0.0       0.0       0.1
 2 Cl s              25.3      32.0      12.3       3.7       1.6       2.2
 2 Cl px              0.8       0.2       3.1       9.2       9.7      18.8
 2 Cl py              0.0       0.0       0.1       2.4       6.7       0.1
 2 Cl dz2             0.1       0.0       0.1       0.2       0.1       0.1
 2 Cl dx2y2           0.2       0.0       0.4       0.2       0.0       0.5
 2 Cl dxy             0.0       0.0       0.0       0.5       0.6       0.0
 3 Cl s              25.3      32.0      12.3       3.7       1.6       2.2
 3 Cl px              0.8       0.2       3.1       9.2       9.7      18.8
 3 Cl py              0.0       0.0       0.1       2.4       6.7       0.1
 3 Cl dz2             0.1       0.0       0.1       0.2       0.1       0.1
 3 Cl dx2y2           0.2       0.0       0.4       0.2       0.0       0.5
 3 Cl dxy             0.0       0.0       0.0       0.5       0.6       0.0
 4 H  s               2.0       0.3       2.0      10.0       5.2       6.0
 4 H  px              0.0       0.0       0.0       0.1       0.3       0.0
 4 H  py              0.1       0.0       0.3       0.8       0.2       0.3
 5 H  s               2.0       0.3       2.0      10.0       5.2       6.0
 5 H  px              0.0       0.0       0.0       0.1       0.3       0.0
 5 H  py              0.1       0.0       0.3       0.8       0.2       0.3

                     18        19        20        21        22        23   
                  -0.86749  -0.83589  -0.81339  -0.80031  -0.79003  -0.68748
                   2.00000   2.00000   2.00000   2.00000   2.00000   2.00000
                  --------  --------  --------  --------  --------  --------
 0 C  s               0.7       0.0       0.0       0.3       0.2       0.0
 0 C  pz              0.0      13.3       2.5       0.0       0.0      32.6
 0 C  px              3.1       0.0       0.0       0.3       0.7       0.0
 0 C  py              9.9       0.0       0.0       0.6       2.8       0.0
 0 C  dxz             0.0       0.2       2.2       0.0       0.0       2.4
 0 C  dyz             0.0       0.5       0.0       0.0       0.0       0.4
 0 C  dx2y2           4.1       0.0       0.0       0.8       1.4       0.0
 0 C  dxy             0.3       0.0       0.0       1.3       1.4       0.0
 0 C  f0              0.0       0.1       0.0       0.0       0.0       0.0
 0 C  f-2             0.0       0.0       0.1       0.0       0.0       0.3
 0 C  f+3             0.2       0.0       0.0       0.1       0.0       0.0
 0 C  f-3             0.1       0.0       0.0       0.1       0.0       0.0
 1 C  s               0.7       0.0       0.0       0.3       0.2       0.0
 1 C  pz              0.0      13.3       2.5       0.0       0.0      32.6
 1 C  px              3.1       0.0       0.0       0.3       0.7       0.0
 1 C  py              9.9       0.0       0.0       0.6       2.8       0.0
 1 C  dxz             0.0       0.2       2.2       0.0       0.0       2.4
 1 C  dyz             0.0       0.5       0.0       0.0       0.0       0.4
 1 C  dx2y2           4.1       0.0       0.0       0.8       1.4       0.0
 1 C  dxy             0.3       0.0       0.0       1.3       1.4       0.0
 1 C  f0              0.0       0.1       0.0       0.0       0.0       0.0
 1 C  f-2             0.0       0.0       0.1       0.0       0.0       0.3
 1 C  f+3             0.2       0.0       0.0       0.1       0.0       0.0
 1 C  f-3             0.1       0.0       0.0       0.1       0.0       0.0
 2 Cl s               0.9       0.0       0.0       0.0       0.0       0.0
 2 Cl pz              0.0      35.5      45.1       0.0       0.0      12.3
 2 Cl px             19.7       0.0       0.0       1.6       2.4       0.0
 2 Cl py              0.6       0.0       0.0      43.6      37.9       0.0
 2 Cl dxz             0.0       0.1       0.0       0.0       0.0       1.3
 2 Cl dx2y2           0.2       0.0       0.0       0.0       0.1       0.0
 3 Cl s               0.9       0.0       0.0       0.0       0.0       0.0
 3 Cl pz              0.0      35.5      45.0       0.0       0.0      12.3
 3 Cl px             19.7       0.0       0.0       1.6       2.4       0.0
 3 Cl py              0.6       0.0       0.0      43.6      37.9       0.0
 3 Cl dxz             0.0       0.1       0.0       0.0       0.0       1.3
 3 Cl dx2y2           0.2       0.0       0.0       0.0       0.1       0.0
 4 H  s               9.9       0.0       0.0       1.2       2.9       0.0
 4 H  pz              0.0       0.1       0.0       0.0       0.0       0.5
 4 H  py              0.3       0.0       0.0       0.0       0.0       0.0
 5 H  s               9.9       0.0       0.0       1.2       2.9       0.0
 5 H  pz              0.0       0.1       0.0       0.0       0.0       0.5
 5 H  py              0.3       0.0       0.0       0.0       0.0       0.0

                     24        25        26        27        28        29   
                  -0.30680  -0.24783  -0.20191   0.00651   0.06090   0.06676
                   0.00000   0.00000   0.00000   0.00000   0.00000   0.00000
                  --------  --------  --------  --------  --------  --------
 0 C  s               4.9       0.0       4.2       6.6       6.7       0.9
 0 C  pz              0.0      35.1       0.0       0.0       0.0       0.0
 0 C  px              9.0       0.0      14.2       1.3       2.0       9.6
 0 C  py              2.0       0.0       0.3       5.4       6.1       3.2
 0 C  dz2             1.3       0.0       1.1       3.2       0.0       0.7
 0 C  dxz             0.0       2.7       0.0       0.0       0.0       0.0
 0 C  dyz             0.0       3.2       0.0       0.0       0.0       0.0
 0 C  dx2y2           4.3       0.0       0.3       7.8       0.0       0.4
 0 C  dxy             0.1       0.0       1.9       1.1       1.6      11.9
 0 C  f0              0.0       0.4       0.0       0.0       0.0       0.0
 0 C  f-1             0.0       0.0       0.0       0.0       0.1       0.1
 0 C  f-2             0.0       0.6       0.0       0.0       0.0       0.0
 0 C  f+3             0.0       0.0       0.4       0.3       0.5       0.0
 0 C  f-3             0.6       0.0       0.0       0.2       0.1       0.0
 1 C  s               4.9       0.0       4.2       6.6       6.7       0.9
 1 C  pz              0.0      35.1       0.0       0.0       0.0       0.0
 1 C  px              9.0       0.0      14.2       1.3       2.0       9.6
 1 C  py              2.0       0.0       0.3       5.4       6.1       3.2
 1 C  dz2             1.3       0.0       1.1       3.2       0.0       0.7
 1 C  dxz             0.0       2.7       0.0       0.0       0.0       0.0
 1 C  dyz             0.0       3.2       0.0       0.0       0.0       0.0
 1 C  dx2y2           4.3       0.0       0.3       7.8       0.0       0.4
 1 C  dxy             0.1       0.0       1.9       1.1       1.6      11.9
 1 C  f0              0.0       0.4       0.0       0.0       0.0       0.0
 1 C  f-1             0.0       0.0       0.0       0.0       0.1       0.1
 1 C  f-2             0.0       0.6       0.0       0.0       0.0       0.0
 1 C  f+3             0.0       0.0       0.4       0.3       0.5       0.0
 1 C  f-3             0.6       0.0       0.0       0.2       0.1       0.0
 2 Cl s               2.3       0.0       1.7       0.0       2.9       1.4
 2 Cl pz              0.0       3.3       0.0       0.0       0.0       0.0
 2 Cl px             17.5       0.0       9.8       0.0       1.4       0.0
 2 Cl py              0.6       0.0       2.3       0.4       0.4       0.8
 2 Cl dz2             1.8       0.0       2.1       0.0       0.3       0.9
 2 Cl dxz             0.0       3.0       0.0       0.0       0.0       0.0
 2 Cl dyz             0.0       0.5       0.0       0.0       0.0       0.0
 2 Cl dx2y2           4.0       0.0       4.7       0.4       1.2      10.2
 2 Cl dxy             0.8       0.0       4.1       1.5       2.9       6.9
 2 Cl f+1             0.2       0.0       0.2       0.0       0.0       0.0
 2 Cl f+3             0.2       0.0       0.1       0.0       0.0       0.1
 2 Cl f-3             0.1       0.0       0.3       0.1       0.0       0.0
 3 Cl s               2.3       0.0       1.7       0.0       2.9       1.4
 3 Cl pz              0.0       3.3       0.0       0.0       0.0       0.0
 3 Cl px             17.5       0.0       9.8       0.0       1.4       0.0
 3 Cl py              0.6       0.0       2.3       0.4       0.4       0.8
 3 Cl dz2             1.8       0.0       2.1       0.0       0.3       0.9
 3 Cl dxz             0.0       3.0       0.0       0.0       0.0       0.0
 3 Cl dyz             0.0       0.5       0.0       0.0       0.0       0.0
 3 Cl dx2y2           4.0       0.0       4.7       0.4       1.2      10.2
 3 Cl dxy             0.8       0.0       4.1       1.5       2.9       6.9
 3 Cl f+1             0.2       0.0       0.2       0.0       0.0       0.0
 3 Cl f+3             0.2       0.0       0.1       0.0       0.0       0.1
 3 Cl f-3             0.1       0.0       0.3       0.1       0.0       0.0
 4 H  s               0.0       0.0       1.5      15.9      19.4       1.1
 4 H  pz              0.0       1.1       0.0       0.0       0.0       0.0
 4 H  px              0.3       0.0       0.5       0.0       0.1       1.7
 4 H  py              0.0       0.0       0.2       5.6       4.0       0.1
 5 H  s               0.0       0.0       1.5      15.9      19.4       1.1
 5 H  pz              0.0       1.1       0.0       0.0       0.0       0.0
 5 H  px              0.3       0.0       0.5       0.0       0.1       1.7
 5 H  py              0.0       0.0       0.2       5.6       4.0       0.1

                     30        31        32        33        34        35   
                   0.10139   0.11533   0.13668   0.16836   0.16923   0.17733
                   0.00000   0.00000   0.00000   0.00000   0.00000   0.00000
                  --------  --------  --------  --------  --------  --------
 0 C  s              12.3       1.5       2.5       5.7       0.0       0.0
 0 C  pz              0.0       0.0       0.0       0.0      33.0       4.5
 0 C  px              4.4      19.2       4.2       0.6       0.0       0.0
 0 C  py              1.4       2.5      11.2       2.7       0.0       0.0
 0 C  dz2             6.7       1.7       2.8       2.1       0.0       0.0
 0 C  dxz             0.0       0.0       0.0       0.0       1.8       2.3
 0 C  dyz             0.0       0.0       0.0       0.0       0.5       6.5
 0 C  dx2y2           0.1       1.8       0.1       1.3       0.0       0.0
 0 C  dxy             2.0       0.2       4.6       0.0       0.0       0.0
 0 C  f+1             0.0       0.1       0.0       0.1       0.0       0.0
 0 C  f-2             0.0       0.0       0.0       0.0       0.4       0.2
 0 C  f+3             0.0       0.4       0.1       0.0       0.0       0.0
 0 C  f-3             0.4       0.0       0.1       0.0       0.0       0.0
 1 C  s              12.3       1.5       2.5       5.7       0.0       0.0
 1 C  pz              0.0       0.0       0.0       0.0      33.0       4.5
 1 C  px              4.4      19.2       4.2       0.6       0.0       0.0
 1 C  py              1.4       2.5      11.2       2.7       0.0       0.0
 1 C  dz2             6.7       1.7       2.8       2.1       0.0       0.0
 1 C  dxz             0.0       0.0       0.0       0.0       1.8       2.3
 1 C  dyz             0.0       0.0       0.0       0.0       0.5       6.5
 1 C  dx2y2           0.1       1.8       0.1       1.3       0.0       0.0
 1 C  dxy             2.0       0.2       4.6       0.0       0.0       0.0
 1 C  f+1             0.0       0.1       0.0       0.1       0.0       0.0
 1 C  f-2             0.0       0.0       0.0       0.0       0.4       0.2
 1 C  f+3             0.0       0.4       0.1       0.0       0.0       0.0
 1 C  f-3             0.4       0.0       0.1       0.0       0.0       0.0
 2 Cl s               3.2       5.2       0.0       1.3       0.0       0.0
 2 Cl pz              0.0       0.0       0.0       0.0       2.2       0.1
 2 Cl px              0.3       0.8       0.2       3.0       0.0       0.0
 2 Cl py              0.3       0.3       0.6       0.4       0.0       0.0
 2 Cl dz2             7.7       2.3       2.7      17.8       0.0       0.0
 2 Cl dxz             0.0       0.0       0.0       0.0      11.9      19.2
 2 Cl dyz             0.0       0.0       0.0       0.0       0.1      16.6
 2 Cl dx2y2           5.6       0.5       8.5       1.5       0.0       0.0
 2 Cl dxy             1.8      12.2       8.0       8.3       0.0       0.0
 3 Cl s               3.2       5.2       0.0       1.3       0.0       0.0
 3 Cl pz              0.0       0.0       0.0       0.0       2.2       0.1
 3 Cl px              0.3       0.8       0.2       3.0       0.0       0.0
 3 Cl py              0.3       0.3       0.6       0.4       0.0       0.0
 3 Cl dz2             7.7       2.3       2.7      17.8       0.0       0.0
 3 Cl dxz             0.0       0.0       0.0       0.0      11.9      19.2
 3 Cl dyz             0.0       0.0       0.0       0.0       0.1      16.6
 3 Cl dx2y2           5.6       0.5       8.5       1.5       0.0       0.0
 3 Cl dxy             1.8      12.2       8.0       8.3       0.0       0.0
 4 H  s               3.2       0.9       2.8       4.8       0.0       0.0
 4 H  pz              0.0       0.0       0.0       0.0       0.0       0.5
 4 H  px              0.3       0.0       0.4       0.2       0.0       0.0
 4 H  py              0.3       0.2       1.0       0.1       0.0       0.0
 5 H  s               3.2       0.9       2.8       4.8       0.0       0.0
 5 H  pz              0.0       0.0       0.0       0.0       0.0       0.5
 5 H  px              0.3       0.0       0.4       0.2       0.0       0.0
 5 H  py              0.3       0.2       1.0       0.1       0.0       0.0

                     36        37        38        39        40        41   
                   0.19439   0.20887   0.21186   0.22081   0.22217   0.22654
                   0.00000   0.00000   0.00000   0.00000   0.00000   0.00000
                  --------  --------  --------  --------  --------  --------
 0 C  s               0.0       0.0       0.0       0.0       1.7       0.9
 0 C  pz              4.8       7.4       1.9       0.0       0.0       0.0
 0 C  px              0.0       0.0       0.0       0.8       3.9       4.1
 0 C  py              0.0       0.0       0.0       0.5       1.2       1.6
 0 C  dz2             0.0       0.0       0.0       0.2       0.7       0.9
 0 C  dxz             3.7       2.1       0.0       0.0       0.0       0.0
 0 C  dyz             0.0       0.7       1.8       0.0       0.0       0.0
 0 C  dx2y2           0.0       0.0       0.0       1.3       0.2       0.0
 0 C  dxy             0.0       0.0       0.0       0.8       0.0       0.0
 0 C  f0              0.2       0.4       0.1       0.0       0.0       0.0
 0 C  f+1             0.0       0.0       0.0       0.2       0.1       0.0
 0 C  f+2             0.3       0.1       0.0       0.0       0.0       0.0
 0 C  f-2             0.0       0.1       0.1       0.0       0.0       0.0
 0 C  f-3             0.0       0.0       0.0       0.0       0.7       0.0
 1 C  s               0.0       0.0       0.0       0.0       1.7       0.9
 1 C  pz              4.8       7.4       1.9       0.0       0.0       0.0
 1 C  px              0.0       0.0       0.0       0.8       3.9       4.1
 1 C  py              0.0       0.0       0.0       0.5       1.2       1.6
 1 C  dz2             0.0       0.0       0.0       0.2       0.7       0.9
 1 C  dxz             3.7       2.1       0.0       0.0       0.0       0.0
 1 C  dyz             0.0       0.7       1.8       0.0       0.0       0.0
 1 C  dx2y2           0.0       0.0       0.0       1.3       0.2       0.0
 1 C  dxy             0.0       0.0       0.0       0.8       0.0       0.0
 1 C  f0              0.2       0.4       0.1       0.0       0.0       0.0
 1 C  f+1             0.0       0.0       0.0       0.2       0.1       0.0
 1 C  f+2             0.3       0.1       0.0       0.0       0.0       0.0
 1 C  f-2             0.0       0.1       0.1       0.0       0.0       0.0
 1 C  f-3             0.0       0.0       0.0       0.0       0.7       0.0
 2 Cl s               0.0       0.0       0.0       1.2       0.0       2.5
 2 Cl pz              8.2       2.0       6.3       0.0       0.0       0.0
 2 Cl px              0.0       0.0       0.0      27.4       3.8      17.2
 2 Cl py              0.0       0.0       0.0       0.1       6.0       4.9
 2 Cl dz2             0.0       0.0       0.0      14.7      18.0       8.0
 2 Cl dxz            11.2      16.2      14.5       0.0       0.0       0.0
 2 Cl dyz            21.5      20.9      25.2       0.0       0.0       0.0
 2 Cl dx2y2           0.0       0.0       0.0       0.7      10.6       0.3
 2 Cl dxy             0.0       0.0       0.0       0.0       0.5       7.3
 3 Cl s               0.0       0.0       0.0       1.2       0.0       2.5
 3 Cl pz              8.2       2.0       6.3       0.0       0.0       0.0
 3 Cl px              0.0       0.0       0.0      27.4       3.8      17.2
 3 Cl py              0.0       0.0       0.0       0.1       6.0       4.9
 3 Cl dz2             0.0       0.0       0.0      14.7      18.0       8.0
 3 Cl dxz            11.2      16.2      14.5       0.0       0.0       0.0
 3 Cl dyz            21.5      20.9      25.2       0.0       0.0       0.0
 3 Cl dx2y2           0.0       0.0       0.0       0.7      10.6       0.3
 3 Cl dxy             0.0       0.0       0.0       0.0       0.5       7.3
 4 H  s               0.0       0.0       0.0       1.7       2.0       0.7
 4 H  pz              0.0       0.1       0.1       0.0       0.0       0.0
 4 H  px              0.0       0.0       0.0       0.1       0.1       0.1
 4 H  py              0.0       0.0       0.0       0.0       0.5       1.1
 5 H  s               0.0       0.0       0.0       1.7       2.0       0.7
 5 H  pz              0.0       0.1       0.1       0.0       0.0       0.0
 5 H  px              0.0       0.0       0.0       0.1       0.1       0.1
 5 H  py              0.0       0.0       0.0       0.0       0.5       1.1

                     42        43        44        45        46        47   
                   0.23787   0.24710   0.26207   0.29800   0.32175   0.34694
                   0.00000   0.00000   0.00000   0.00000   0.00000   0.00000
                  --------  --------  --------  --------  --------  --------
 0 C  s               0.3       1.2       0.0       0.6       0.0      14.8
 0 C  pz              0.0       0.0       8.2       0.0      25.7       0.0
 0 C  px              0.3       1.1       0.0       2.6       0.0       1.8
 0 C  py              1.9       4.9       0.0       7.5       0.0       2.7
 0 C  dz2             1.1       2.9       0.0       1.6       0.0       1.3
 0 C  dxz             0.0       0.0       0.6       0.0       1.3       0.0
 0 C  dyz             0.0       0.0       0.6       0.0       4.6       0.0
 0 C  dx2y2           0.5       0.5       0.0       0.1       0.0       0.6
 0 C  dxy             0.2       0.2       0.0       2.8       0.0       0.3
 0 C  f+1             0.0       0.0       0.0       0.1       0.0       0.2
 0 C  f-2             0.0       0.0       0.1       0.0       0.0       0.0
 0 C  f+3             0.5       0.5       0.0       0.0       0.0       0.1
 0 C  f-3             0.0       0.7       0.0       0.5       0.0       0.1
 1 C  s               0.3       1.2       0.0       0.6       0.0      14.8
 1 C  pz              0.0       0.0       8.2       0.0      25.7       0.0
 1 C  px              0.3       1.1       0.0       2.6       0.0       1.8
 1 C  py              1.9       4.9       0.0       7.5       0.0       2.7
 1 C  dz2             1.1       2.9       0.0       1.6       0.0       1.3
 1 C  dxz             0.0       0.0       0.6       0.0       1.3       0.0
 1 C  dyz             0.0       0.0       0.6       0.0       4.6       0.0
 1 C  dx2y2           0.5       0.5       0.0       0.1       0.0       0.6
 1 C  dxy             0.2       0.2       0.0       2.8       0.0       0.3
 1 C  f+1             0.0       0.0       0.0       0.1       0.0       0.2
 1 C  f-2             0.0       0.0       0.1       0.0       0.0       0.0
 1 C  f+3             0.5       0.5       0.0       0.0       0.0       0.1
 1 C  f-3             0.0       0.7       0.0       0.5       0.0       0.1
 2 Cl s               1.1       0.1       0.0       0.0       0.0       1.6
 2 Cl pz              0.0       0.0      39.7       0.0       5.0       0.0
 2 Cl px             12.9       4.1       0.0       1.0       0.0       1.9
 2 Cl py             23.8      15.4       0.0      21.9       0.0       1.7
 2 Cl dz2             0.1       1.6       0.0       1.0       0.0       5.2
 2 Cl dxz             0.0       0.0       0.2       0.0       1.1       0.0
 2 Cl dyz             0.0       0.0       0.3       0.0      11.1       0.0
 2 Cl dx2y2           0.6       5.5       0.0       6.8       0.0       2.3
 2 Cl dxy             6.2       0.9       0.0       1.8       0.0       6.6
 2 Cl f+3             0.0       0.0       0.0       0.1       0.0       0.0
 2 Cl f-3             0.0       0.0       0.0       0.0       0.0       0.2
 3 Cl s               1.1       0.1       0.0       0.0       0.0       1.6
 3 Cl pz              0.0       0.0      39.7       0.0       5.0       0.0
 3 Cl px             12.9       4.1       0.0       1.0       0.0       1.9
 3 Cl py             23.8      15.4       0.0      21.9       0.0       1.7
 3 Cl dz2             0.1       1.6       0.0       1.0       0.0       5.2
 3 Cl dxz             0.0       0.0       0.2       0.0       1.1       0.0
 3 Cl dyz             0.0       0.0       0.3       0.0      11.1       0.0
 3 Cl dx2y2           0.6       5.5       0.0       6.8       0.0       2.3
 3 Cl dxy             6.2       0.9       0.0       1.8       0.0       6.6
 3 Cl f+3             0.0       0.0       0.0       0.1       0.0       0.0
 3 Cl f-3             0.0       0.0       0.0       0.0       0.0       0.2
 4 H  s               0.1       9.9       0.0       0.5       0.0       7.3
 4 H  pz              0.0       0.0       0.0       0.0       1.1       0.0
 4 H  px              0.3       0.0       0.0       0.7       0.0       0.1
 4 H  py              0.1       0.3       0.0       0.5       0.0       1.1
 5 H  s               0.1       9.9       0.0       0.5       0.0       7.3
 5 H  pz              0.0       0.0       0.0       0.0       1.1       0.0
 5 H  px              0.3       0.0       0.0       0.7       0.0       0.1
 5 H  py              0.1       0.3       0.0       0.5       0.0       1.1

                     48        49        50        51        52        53   
                   0.36799   0.38148   0.40643   0.44561   0.45861   0.53377
                   0.00000   0.00000   0.00000   0.00000   0.00000   0.00000
                  --------  --------  --------  --------  --------  --------
 0 C  s               0.0       4.7       1.2       8.7      16.0       1.5
 0 C  pz              8.3       0.0       0.0       0.0       0.0       0.0
 0 C  px              0.0       0.5       4.1      14.8       0.7      11.9
 0 C  py              0.0      10.8       5.3       4.0       3.7       6.9
 0 C  dz2             0.0       0.3       2.6       0.9       2.6       0.6
 0 C  dxz             1.7       0.0       0.0       0.0       0.0       0.0
 0 C  dyz             0.7       0.0       0.0       0.0       0.0       0.0
 0 C  dx2y2           0.0       1.0       1.5       0.0       0.3       0.2
 0 C  dxy             0.0       0.4       0.0       1.1       1.0       0.2
 0 C  f0              0.1       0.0       0.0       0.0       0.0       0.0
 0 C  f+1             0.0       0.0       0.5       0.1       0.1       0.1
 0 C  f-1             0.0       0.0       0.2       0.0       0.6       0.7
 0 C  f+3             0.0       0.2       0.5       0.1       0.0       0.1
 0 C  f-3             0.0       0.0       0.4       0.1       0.5       0.0
 1 C  s               0.0       4.7       1.2       8.7      16.0       1.5
 1 C  pz              8.3       0.0       0.0       0.0       0.0       0.0
 1 C  px              0.0       0.5       4.1      14.8       0.7      11.9
 1 C  py              0.0      10.8       5.3       4.0       3.7       6.9
 1 C  dz2             0.0       0.3       2.6       0.9       2.6       0.6
 1 C  dxz             1.7       0.0       0.0       0.0       0.0       0.0
 1 C  dyz             0.7       0.0       0.0       0.0       0.0       0.0
 1 C  dx2y2           0.0       1.0       1.5       0.0       0.3       0.2
 1 C  dxy             0.0       0.4       0.0       1.1       1.0       0.2
 1 C  f0              0.1       0.0       0.0       0.0       0.0       0.0
 1 C  f+1             0.0       0.0       0.5       0.1       0.1       0.1
 1 C  f-1             0.0       0.0       0.2       0.0       0.6       0.7
 1 C  f+3             0.0       0.2       0.5       0.1       0.0       0.1
 1 C  f-3             0.0       0.0       0.4       0.1       0.5       0.0
 2 Cl s               0.0       0.2       2.4       2.4       0.3       0.3
 2 Cl pz             33.1       0.0       0.0       0.0       0.0       0.0
 2 Cl px              0.0       0.9       1.2       1.5       4.1       3.9
 2 Cl py              0.0       3.9       3.1       0.3       2.7       6.2
 2 Cl dz2             0.0       0.1       0.8       0.2       6.8       0.7
 2 Cl dxz             5.6       0.0       0.0       0.0       0.0       0.0
 2 Cl dx2y2           0.0       1.2       3.1      10.6       7.1       9.4
 2 Cl dxy             0.0       0.2       2.9       2.7       1.4       2.5
 2 Cl f+1             0.0       0.0       0.1       0.0       0.4       0.0
 2 Cl f+3             0.0       0.1       0.1       0.0       0.4       0.2
 2 Cl f-3             0.0       0.0       0.0       0.4       0.0       0.1
 3 Cl s               0.0       0.2       2.4       2.4       0.3       0.3
 3 Cl pz             33.1       0.0       0.0       0.0       0.0       0.0
 3 Cl px              0.0       0.9       1.2       1.5       4.1       3.9
 3 Cl py              0.0       3.9       3.1       0.3       2.7       6.2
 3 Cl dz2             0.0       0.1       0.8       0.2       6.8       0.7
 3 Cl dxz             5.6       0.0       0.0       0.0       0.0       0.0
 3 Cl dx2y2           0.0       1.2       3.1      10.6       7.1       9.4
 3 Cl dxy             0.0       0.2       2.9       2.7       1.4       2.5
 3 Cl f+1             0.0       0.0       0.1       0.0       0.4       0.0
 3 Cl f+3             0.0       0.1       0.1       0.0       0.4       0.2
 3 Cl f-3             0.0       0.0       0.0       0.4       0.0       0.1
 4 H  s               0.0      24.6      18.5       1.4       1.3       2.7
 4 H  pz              0.3       0.0       0.0       0.0       0.0       0.0
 4 H  px              0.0       0.4       0.1       0.4       0.0       1.0
 4 H  py              0.0       0.4       1.5       0.2       0.0       1.0
 5 H  s               0.0      24.6      18.5       1.4       1.3       2.7
 5 H  pz              0.3       0.0       0.0       0.0       0.0       0.0
 5 H  px              0.0       0.4       0.1       0.4       0.0       1.0
 5 H  py              0.0       0.4       1.5       0.2       0.0       1.0

                     54        55        56        57        58        59   
                   0.55532   0.59971   0.60130   0.66878   0.69649   0.80934
                   0.00000   0.00000   0.00000   0.00000   0.00000   0.00000
                  --------  --------  --------  --------  --------  --------
 0 C  s               4.3       0.0       1.2       0.0       2.1       6.9
 0 C  pz              0.0       2.0       0.1       6.3       0.0       0.0
 0 C  px              3.7       0.2       4.1       0.0       4.9       9.1
 0 C  py             14.2       0.3       9.0       0.0       9.5       4.4
 0 C  dz2             0.1       0.2       6.1       0.0       8.6       6.8
 0 C  dxz             0.0       7.0       0.2      10.3       0.0       0.0
 0 C  dyz             0.0      30.5       1.0      15.5       0.0       0.0
 0 C  dx2y2           0.0       0.0       0.3       0.0       0.2       0.1
 0 C  dxy             0.3       0.1       3.2       0.0       2.9      14.0
 0 C  f0              0.0       0.0       0.0       0.4       0.0       0.0
 0 C  f+1             0.0       0.0       0.1       0.0       0.1       0.0
 0 C  f-1             0.9       0.0       0.2       0.0       1.2       0.0
 0 C  f+2             0.0       0.2       0.0       1.5       0.0       0.0
 0 C  f+3             0.1       0.0       0.0       0.0       0.1       0.0
 0 C  f-3             0.0       0.0       0.8       0.0       1.4       0.1
 1 C  s               4.3       0.0       1.2       0.0       2.1       6.9
 1 C  pz              0.0       2.0       0.1       6.3       0.0       0.0
 1 C  px              3.7       0.2       4.1       0.0       4.9       9.1
 1 C  py             14.2       0.3       9.0       0.0       9.5       4.4
 1 C  dz2             0.1       0.2       6.1       0.0       8.6       6.8
 1 C  dxz             0.0       7.0       0.2      10.3       0.0       0.0
 1 C  dyz             0.0      30.5       1.0      15.5       0.0       0.0
 1 C  dx2y2           0.0       0.0       0.3       0.0       0.2       0.1
 1 C  dxy             0.3       0.1       3.2       0.0       2.9      14.0
 1 C  f0              0.0       0.0       0.0       0.4       0.0       0.0
 1 C  f+1             0.0       0.0       0.1       0.0       0.1       0.0
 1 C  f-1             0.9       0.0       0.2       0.0       1.2       0.0
 1 C  f+2             0.0       0.2       0.0       1.5       0.0       0.0
 1 C  f+3             0.1       0.0       0.0       0.0       0.1       0.0
 1 C  f-3             0.0       0.0       0.8       0.0       1.4       0.1
 2 Cl s               0.2       0.1       3.4       0.0       5.0       0.2
 2 Cl pz              0.0       0.0       0.0       3.5       0.0       0.0
 2 Cl px              1.2       0.2       5.9       0.0       0.4       0.3
[...]
 3 Cl f+1             0.0       0.1       1.0       0.0       0.9       1.0
 3 Cl f-1             0.0       0.1       0.0       0.0       0.1       0.3
 3 Cl f+2             3.6       0.0       0.0       0.7       0.0       0.0
 3 Cl f-2             0.6       0.0       0.0       1.6       0.0       0.0
 3 Cl f+3             0.0       0.2       3.2       0.0       0.8       0.0
 3 Cl f-3             0.0       0.6       0.1       0.0       0.3       2.8
 4 H  s               0.0       1.4       0.6       0.0       1.8       0.9
 4 H  pz              1.4       0.0       0.0       1.8       0.0       0.0
 4 H  px              0.0       0.3       1.2       0.0       0.1       0.6
 4 H  py              0.0       5.2       0.8       0.0       1.0       1.2
 5 H  s               0.0       1.4       0.6       0.0       1.8       0.9
 5 H  pz              1.4       0.0       0.0       1.8       0.0       0.0
 5 H  px              0.0       0.3       1.2       0.0       0.1       0.6
 5 H  py              0.0       5.2       0.8       0.0       1.0       1.2

                    132       133       134       135       136       137   
                   3.89097   4.09120   4.09279   4.29114   4.32892   4.45090
                   0.00000   0.00000   0.00000   0.00000   0.00000   0.00000
                  --------  --------  --------  --------  --------  --------
 0 C  s               1.0      12.0       0.0       0.3       7.7       4.0
 0 C  pz              0.0       0.0       7.1       0.0       0.0       0.0
 0 C  px              4.8       1.8       0.0       0.7       5.3       1.2
 0 C  py              9.4       2.8       0.0       0.1       5.2       3.7
 0 C  dz2             2.2       2.3       0.0       0.1       4.3       1.8
 0 C  dxz             0.0       0.0       9.2       0.0       0.0       0.0
 0 C  dyz             0.0       0.0       8.2       0.0       0.0       0.0
 0 C  dx2y2           2.1       0.0       0.0      21.2       0.4       1.9
 0 C  dxy             0.3       2.4       0.0       0.0      15.8       1.6
 0 C  f0              0.0       0.0      10.7       0.0       0.0       0.0
 0 C  f+1             2.9       1.3       0.0       0.2       4.0       0.7
 0 C  f-1             8.4       0.9       0.0       0.1       5.7       3.0
 0 C  f+2             0.0       0.0       0.1       0.0       0.0       0.0
 0 C  f-2             0.0       0.0      14.5       0.0       0.0       0.0
 0 C  f+3             1.2       4.1       0.0      16.5       0.1       3.5
 0 C  f-3             1.2      15.4       0.0       6.2       0.0      16.1
 1 C  s               1.0      12.0       0.0       0.3       7.7       4.0
 1 C  pz              0.0       0.0       7.1       0.0       0.0       0.0
 1 C  px              4.8       1.8       0.0       0.7       5.3       1.2
 1 C  py              9.4       2.8       0.0       0.1       5.2       3.7
 1 C  dz2             2.2       2.3       0.0       0.1       4.3       1.8
 1 C  dxz             0.0       0.0       9.2       0.0       0.0       0.0
 1 C  dyz             0.0       0.0       8.2       0.0       0.0       0.0
 1 C  dx2y2           2.1       0.0       0.0      21.2       0.4       1.9
 1 C  dxy             0.3       2.4       0.0       0.0      15.8       1.6
 1 C  f0              0.0       0.0      10.7       0.0       0.0       0.0
 1 C  f+1             2.9       1.3       0.0       0.2       4.0       0.7
 1 C  f-1             8.4       0.9       0.0       0.1       5.7       3.0
 1 C  f+2             0.0       0.0       0.1       0.0       0.0       0.0
 1 C  f-2             0.0       0.0      14.5       0.0       0.0       0.0
 1 C  f+3             1.2       4.1       0.0      16.5       0.1       3.5
 1 C  f-3             1.2      15.4       0.0       6.2       0.0      16.1
 2 Cl s               1.6       0.9       0.0       0.0       0.0       0.6
 2 Cl px              3.9       2.1       0.0       0.1       0.0       0.6
 2 Cl py              0.2       0.1       0.0       0.2       0.2       0.1
 2 Cl dz2             0.1       0.1       0.0       0.0       0.0       0.1
 2 Cl dx2y2           0.2       0.3       0.0       0.2       0.0       0.2
 2 Cl dxy             0.1       0.0       0.0       0.1       0.1       0.1
 2 Cl f+1             0.5       0.2       0.0       0.1       0.1       0.0
 2 Cl f+3             0.0       0.5       0.0       1.1       0.0       0.1
 2 Cl f-3             0.2       0.1       0.0       0.1       0.1       0.2
 3 Cl s               1.6       0.9       0.0       0.0       0.0       0.6
 3 Cl px              3.9       2.1       0.0       0.1       0.0       0.6
 3 Cl py              0.2       0.1       0.0       0.2       0.2       0.1
 3 Cl dz2             0.1       0.1       0.0       0.0       0.0       0.1
 3 Cl dx2y2           0.2       0.3       0.0       0.2       0.0       0.2
 3 Cl dxy             0.1       0.0       0.0       0.1       0.1       0.1
 3 Cl f+1             0.5       0.2       0.0       0.1       0.1       0.0
 3 Cl f+3             0.0       0.5       0.0       1.1       0.0       0.1
 3 Cl f-3             0.2       0.1       0.0       0.1       0.1       0.2
 4 H  s               6.2       2.1       0.0       0.5       0.7       8.6
 4 H  px              0.0       0.0       0.0       0.4       0.1       0.3
 4 H  py              3.3       0.4       0.0       1.7       0.0       1.7
 5 H  s               6.2       2.1       0.0       0.5       0.7       8.6
 5 H  px              0.0       0.0       0.0       0.4       0.1       0.3
 5 H  py              3.3       0.4       0.0       1.7       0.0       1.7

                    138       139       140       141       142       143   
                   9.57504   9.60400   9.62210   9.64666  10.09088  10.14625
                   0.00000   0.00000   0.00000   0.00000   0.00000   0.00000
                  --------  --------  --------  --------  --------  --------
 0 C  s               0.0       0.0       0.0       0.0       0.2       0.2
 0 C  px              0.0       0.0       0.0       0.0       0.1       0.2
 1 C  s               0.0       0.0       0.0       0.0       0.2       0.2
 1 C  px              0.0       0.0       0.0       0.0       0.1       0.2
 2 Cl s               0.0       0.0       0.0       0.0       0.3       0.4
 2 Cl pz             50.0      50.0       0.0       0.0       0.0       0.0
 2 Cl px              0.0       0.0       4.2       2.3      45.0      46.7
 2 Cl py              0.0       0.0      45.7      47.6       4.1       2.3
 3 Cl s               0.0       0.0       0.0       0.0       0.3       0.4
 3 Cl pz             50.0      50.0       0.0       0.0       0.0       0.0
 3 Cl px              0.0       0.0       4.2       2.3      45.0      46.7
 3 Cl py              0.0       0.0      45.7      47.6       4.1       2.3

                    144       145       146       147   
                  20.20708  20.89318  24.00106  24.24747
                   0.00000   0.00000   0.00000   0.00000
                  --------  --------  --------  --------
 0 C  s              49.5      48.8       0.1       0.4
 0 C  px              0.0       0.4       0.1       0.4
 0 C  py              0.1       0.1       0.1       0.0
 0 C  dx2y2           0.0       0.0       0.1       0.0
 1 C  s              49.5      48.8       0.1       0.4
 1 C  px              0.0       0.4       0.1       0.4
 1 C  py              0.1       0.1       0.1       0.0
 1 C  dx2y2           0.0       0.0       0.1       0.0
 2 Cl s               0.0       0.4      49.3      48.8
 2 Cl px              0.0       0.0       0.1       0.2
 3 Cl s               0.0       0.4      49.2      48.8
 3 Cl px              0.0       0.0       0.1       0.2
 4 H  s               0.2       0.1       0.1       0.0
 5 H  s               0.2       0.1       0.1       0.0


                      *****************************
                      * MAYER POPULATION ANALYSIS *
                      *****************************

  NA   - Mulliken gross atomic population
  ZA   - Total nuclear charge
  QA   - Mulliken gross atomic charge
  VA   - Mayer's total valence
  BVA  - Mayer's bonded valence
  FA   - Mayer's free valence

  ATOM       NA         ZA         QA         VA         BVA        FA
  0 C      6.1106     6.0000    -0.1106     3.9928     3.9928    -0.0000
  1 C      6.1106     6.0000    -0.1106     3.9928     3.9928     0.0000
  2 Cl    17.0985    17.0000    -0.0985     1.1876     1.1876     0.0000
  3 Cl    17.0985    17.0000    -0.0985     1.1876     1.1876    -0.0000
  4 H      0.7908     1.0000     0.2092     0.9446     0.9446    -0.0000
  5 H      0.7908     1.0000     0.2092     0.9446     0.9446     0.0000

  Mayer bond orders larger than 0.100000
B(  0-C ,  1-C ) :   1.9222 B(  0-C ,  3-Cl) :   1.0773 B(  0-C ,  4-H ) :   0.9242 
B(  1-C ,  2-Cl) :   1.0773 B(  1-C ,  5-H ) :   0.9242 

-------
TIMINGS
-------

Total SCF time: 0 days 0 hours 0 min 27 sec 

Total time                  ....      27.663 sec
Sum of individual times     ....      26.609 sec  ( 96.2%)

SCF preparation             ....       0.247 sec  (  0.9%)
Fock matrix formation       ....      25.520 sec  ( 92.3%)
  Startup                   ....       0.051 sec  (  0.2% of F)
  Split-RI-J                ....       0.800 sec  (  3.1% of F)
  Chain of spheres X        ....      18.428 sec  ( 72.2% of F)
  XC integration            ....       5.033 sec  ( 19.7% of F)
    XC Preparation          ....       0.000 sec  (  0.0% of XC)
    Basis function eval.    ....       0.845 sec  ( 16.8% of XC)
    Density eval.           ....       0.548 sec  ( 10.9% of XC)
    XC-Functional eval.     ....       0.913 sec  ( 18.1% of XC)
    XC-Potential eval.      ....       0.898 sec  ( 17.8% of XC)
  CPCM terms                ....       1.201 sec  (  4.7% of F)
Diagonalization             ....       0.000 sec  (  0.0%)
Density matrix formation    ....       0.170 sec  (  0.6%)
Total Energy calculation    ....       0.048 sec  (  0.2%)
Population analysis         ....       0.057 sec  (  0.2%)
Orbital Transformation      ....       0.046 sec  (  0.2%)
Orbital Orthonormalization  ....       0.000 sec  (  0.0%)
DIIS solution               ....       0.318 sec  (  1.2%)
  MO trafo                  ....       0.000 sec  (  0.0 % of DIIS)
  Orb grad                  ....       0.000 sec  (  0.0 % of DIIS)
  Energy W gradient         ....       0.000 sec  (  0.0 % of DIIS)
  DIIS error                ....       0.002 sec  (  0.8 % of DIIS)
  DIIS work                 ....       0.278 sec  ( 87.5 % of DIIS)
  Form Q                    ....       0.000 sec  (  0.0 % of DIIS)
  Form QpQm                 ....       0.000 sec  (  0.0 % of DIIS)
  Exp/Cayley                ....       0.000 sec  (  0.0 % of DIIS)
  Orb update                ....       0.000 sec  (  0.0 % of DIIS)
  Wake-sleep                ....       0.012 sec  (  3.9 % of DIIS)
SOSCF solution              ....       0.148 sec  (  0.5%)
  MO trafo                  ....       0.058 sec  ( 39.3 % of SOSCF)
  Orb grad                  ....       0.002 sec  (  1.4 % of SOSCF)
  Rot update                ....       0.057 sec  ( 38.2 % of SOSCF)
  Step                      ....       0.031 sec  ( 21.1 % of SOSCF)
Grid generation             ....       0.055 sec  (  0.2%)
Finished LeanSCF after  27.7 sec

Maximum memory used throughout the entire LEANSCF-calculation: 14.9 MB
------------------   -----------------
gCP correction             0.002807958
------------------   -----------------

-------------------------   --------------------
FINAL SINGLE POINT ENERGY      -997.679194089660
-------------------------   --------------------


------------------------------------------------------------------------------
                              ORCA PROPERTY CALCULATIONS
------------------------------------------------------------------------------

GBWName                                 ... sp_solv.gbw
Number of atoms                         ...      6
Number of basis functions               ...    148
Max core memory                         ...   1024 MB

Electric properties:
Dipole moment                           ... YES
Quadrupole moment                       ...  NO
Static polarizability (Dipole/Dipole)   ...  NO
Static polarizability (Dipole/Quad.)    ...  NO
Static polarizability (Quad./Quad.)     ...  NO
Static polarizability (Velocity)        ...  NO

Atomic electric properties:
Dipole moment                           ...  NO
Quadrupole moment                       ...  NO
Static polarizability                   ...  NO

Choice of electric origin               ... Center of mass
Position of electric origin             ...    -0.000017     0.000013    -0.000619

General magnetic properties:
Magnetizability                         ...  NO

EPR properties:
g-Tensor (aka g-matrix)                 ...  NO
Zero-Field splitting spin-orbit         ...  NO
Zero-field splitting spin-spin          ...  NO
Hyperfine couplings                     ...  NO (   0 nuclei)
Quadrupole couplings                    ...  NO (   0 nuclei)
Contact density                         ...  NO (   0 nuclei)

NMR properties:
Chemical shifts                         ...  NO (   0 nuclei)
Spin-rotation constants                 ...  NO (   0 nuclei)
Spin-spin couplings                     ...  NO (   0 nuclei,    0 pairs)

Choice of magnetic origin               ... GIAO
Position of magnetic origin             ...     0.000000     0.000000     0.000000

Properties with geometric perturbations:
SCF Hessian                             ...  NO
IR spectrum                             ...  NO
VCD spectrum                            ...  NO
X-ray spectroscopy properties:
SCF XES/XAS/RIXS spectra                ...  NO


-------------
DIPOLE MOMENT
-------------

Method             : SCF
Type of density    : Electron Density
Multiplicity       :   1
Irrep              :   0
Energy             :  -997.6820020479599407 Eh
Relativity type    : 
Basis              : AO
                                X                 Y                 Z
Electronic contribution:     -0.000011894      -0.000006658      -0.001274425
Nuclear contribution   :     -0.000011071       0.000004970       0.000712242
                        -----------------------------------------
Total Dipole Moment    :     -0.000022965      -0.000001688      -0.000562183
                        -----------------------------------------
Magnitude (a.u.)       :      0.000562654
Magnitude (Debye)      :      0.001430153



--------------------
Rotational spectrum 
--------------------
 
Rotational constants in cm-1:             1.721828             0.050234             0.048810 
Rotational constants in MHz :         51619.099119          1505.970404          1463.279942 

Dipole components along the rotational axes: 
x,y,z [a.u.] :    -0.000023     0.000002    -0.000562 
x,y,z [Debye]:    -0.000058     0.000005    -0.001429 

 

Dipole moment calculation done in   0.0 sec 

Maximum memory used throughout the entire PROP-calculation: 9.1 MB

--------------------------------
SUGGESTED CITATIONS FOR THIS RUN
--------------------------------

Below you find a list of papers that are relevant to this ORCA run
We neither can nor want to force you to cite these papers, but we appreciate if you do
You receive ORCA, which is the product of decades of hard work by many enthusiastic individuals, for free
The only thing we kindly ask in return is that you cite our papers,
We deeply appreciate it, if you show your appreciation for ORCA by not just citing the generic ORCA reference.

Please note that relegating all ORCA citations to the supporting information does *not* help us.
SI sections are not indexed - citations you put there will not count into any citation statistics
But we need these citations in order to attract the funding resources that allow us to do what we are doing

Therefore, if you are a happy ORCA user, please consider citing a few of the papers listed below in the main body of your paper

In addition to the list printed below, the program has created the file sp_solv.bibtex that contains the list in bibtex format
You can import this file easily into all common literature databanks and citation aid programs


List of essential papers. We consider these as the minimum necessary citations

  1. Neese,F.
     Software update: the ORCA program system, version 5.0
     WIRES Comput. Molec. Sci., 2022 12(1)e1606
     doi.org/10.1002/wcms.1606

List of papers to cite with high priority. The work reported in these papers was absolutely
necessary for this run to complete.
Our perspective: the developers of density functionals and basis sets usually get cited in chemistry papers
Good! But without the algorithms to do something with them, the functionals or basis sets would not do anything.
Hence, in our opinion, the algorithm design and method developments papers are equally worthy of getting cited

  1. Neese,F.
     An improvement of the resolution of the identity approximation for the formation of the Coulomb matrix
     J. Comp. Chem., 2003 24(14)1740-1747
     doi.org/10.1002/jcc.10318
  2. Neese,F.; Wennmohs,F.; Hansen,A.; Becker,U.
     Efficient, approximate and parallel Hartree-Fock and hybrid DFT calculations. A 'chain-of-spheres' algorithm for the Hartree-Fock exchange
     Chem. Phys., 2009 356(1-3)98-109
     doi.org/10.1016/j.chemphys.2008.10.036
  3. Garcia-Rates,M.; Neese,F.
     Effect of the Solute Cavity on the Solvation Energy and its Derivatives within the Framework of the Gaussian Charge Scheme
     J. Comput. Chem., 2020 41 922-939
     doi.org/10.1002/jcc.26139
  4. Helmich-Paris,B.; de Souza,B.; Neese,F.; Izsák,R.
     An improved chain of spheres for exchange algorithm
     J. Chem. Phys., 2021 155 104109
     doi.org/doi: 10.1063/5.0058766.
  5. Neese,F.
     The SHARK Integral Generation and Digestion System
     J. Comp. Chem., 2022  1-16
     doi.org/10.1002/jcc.26942

List of suggested additional citations. These are papers that are important in the 'surrounding' of 
of this run, or papers that preceded the highly important papers. If you like your results we are grateful for a citation.

  1. Izsak,R.; Neese,F.
     An overlap fitted chain of spheres exchange method
     J. Chem. Phys., 2011 135 144105
     doi.org/10.1063/1.3646921
  2. Izsak,R.; Hansen,A.; Neese,F.
     The resolution of identity and chain of spheres approximations for the LPNO-CCSD singles Fock term
     Molec. Phys., 2012 110 2413-2417
     doi.org/10.1080/00268976.2012.687466
  3. Neese,F.
     The ORCA program system
     WIRES Comput. Molec. Sci., 2012 2(1)73-78
     doi.org/10.1002/wcms.81
  4. Izsak,R.; Neese,F.; Klopper,W.
     Robust fitting techniques in the chain of spheres approximation to the Fock exchange: The role of the complementary space
     J. Chem. Phys., 2013 139 
     doi.org/10.1063/1.4819264
  5. Neese,F.
     Software update: the ORCA program system, version 4.0
     WIRES Comput. Molec. Sci., 2018 8(1)1-6
     doi.org/10.1002/wcms.1327
  6. Neese,F.; Wennmohs,F.; Becker,U.; Riplinger,C.
     The ORCA quantum chemistry program package
     J. Chem. Phys., 2020 152 Art. No. L224108
     doi.org/10.1063/5.0004608

List of optional additional citations

  1. Neese,F.
     Approximate second-order SCF convergence for spin unrestricted wavefunctions
     Chem. Phys. Lett., 2000 325(1-3)93-98
     doi.org/10.1016/s0009-2614(00)00662-x

Timings for individual modules:

Sum of individual times          ...       28.938 sec (=   0.482 min)
Startup calculation              ...        0.828 sec (=   0.014 min)   2.9 %
SCF iterations                   ...       28.018 sec (=   0.467 min)  96.8 %
Property calculations            ...        0.092 sec (=   0.002 min)   0.3 %
                             ****ORCA TERMINATED NORMALLY****
TOTAL RUN TIME: 0 days 0 hours 0 minutes 29 seconds 587 msec
