
                                 *****************
                                 * O   R   C   A *
                                 *****************

                                            #,                                       
                                            ###                                      
                                            ####                                     
                                            #####                                    
                                            ######                                   
                                           ########,                                 
                                     ,,################,,,,,                         
                               ,,#################################,,                 
                          ,,##########################################,,             
                       ,#########################################, ''#####,          
                    ,#############################################,,   '####,        
                  ,##################################################,,,,####,       
                ,###########''''           ''''###############################       
              ,#####''   ,,,,##########,,,,          '''####'''          '####       
            ,##' ,,,,###########################,,,                        '##       
           ' ,,###''''                  '''############,,,                           
         ,,##''                                '''############,,,,        ,,,,,,###''
      ,#''                                            '''#######################'''  
     '                                                          ''''####''''         
             ,#######,   #######,   ,#######,      ##                                
            ,#'     '#,  ##    ##  ,#'     '#,    #''#        ,####,   ,####,        
            ##       ##  ##   ,#'  ##            #'  '#       #'       #'  '#        
            ##       ##  #######   ##           ,######,      #####,   #    #        
            '#,     ,#'  ##    ##  '#,     ,#' ,#      #,     #,   #   #,  ,#        
             '#######'   ##     ##  '#######'  #'      '#     '####' # '####'        



                #########################################################
                #                        -***-                          #
                #          Department of theory and spectroscopy        #
                #                                                       #
                #                      Frank Neese                      #
                #                                                       #
                #     Directorship, Architecture, Infrastructure        #
                #                    SHARK, DRIVERS                     #
                #        Core code/Algorithms in most modules           #
                #                                                       #
                #        Max Planck Institute fuer Kohlenforschung      #
                #                Kaiser Wilhelm Platz 1                 #
                #                 D-45470 Muelheim/Ruhr                 #
                #                      Germany                          #
                #                                                       #
                #                  All rights reserved                  #
                #                        -***-                          #
                #########################################################


                         Program Version 6.0.0  -   RELEASE  -


 With contributions from (in alphabetic order):
   Daniel Aravena         : Magnetic Suceptibility
   Michael Atanasov       : Ab Initio Ligand Field Theory (pilot matlab implementation)
   Alexander A. Auer      : GIAO ZORA, VPT2 properties, NMR spectrum
   Ute Becker             : All parallelization in ORCA, NUMFREQ, NUMCALC
   Giovanni Bistoni       : ED, misc. LED, open-shell LED, HFLD
   Martin Brehm           : Molecular dynamics
   Dmytro Bykov           : pre 5.0 version of the SCF Hessian
   Marcos Casanova-Páez   : Triplet and SCS-CIS(D). UHF-(DLPNO)-IP/EA/STEOM-CCSD. UHF-CVS-IP/STEOM-CCSD
   Vijay G. Chilkuri      : MRCI spin determinant printing, contributions to CSF-ICE
   Pauline Colinet        : FMM embedding
   Dipayan Datta          : RHF DLPNO-CCSD density
   Achintya Kumar Dutta   : EOM-CC, STEOM-CC
   Nicolas Foglia         : Exact transition moments, OPA infrastructure, MCD improvements
   Dmitry Ganyushin       : Spin-Orbit,Spin-Spin,Magnetic field MRCI
   Miquel Garcia          : C-PCM and meta-GGA Hessian, CCSD/C-PCM, Gaussian charge scheme
   Tiago L. C. Gouveia    : GS-ROHF, GS-ROCIS
   Yang Guo               : DLPNO-NEVPT2, F12-NEVPT2, CIM, IAO-localization
   Andreas Hansen         : Spin unrestricted coupled pair/coupled cluster methods
   Ingolf Harden          : AUTO-CI MPn and infrastructure 
   Benjamin Helmich-Paris : MC-RPA, TRAH-(SCF,CASSCF), AVAS, COSX integrals, SCF dyn. polar.
   Lee Huntington         : MR-EOM, pCC
   Robert Izsak           : Overlap fitted RIJCOSX, COSX-SCS-MP3, EOM
   Riya Kayal             : Wick's Theorem for AUTO-CI, AUTO-CI UHF-CCSDT
   Emily Kempfer          : AUTO-CI, RHF CISDT and CCSDT
   Christian Kollmar      : KDIIS, OOCD, Brueckner-CCSD(T), CCSD density, CASPT2, CASPT2-K, improved NEVPT2
   Axel Koslowski         : Symmetry handling
   Simone Kossmann        : Meta GGA functionals, TD-DFT gradient, OOMP2, (MP2 Hessian; deprecated post 5.0)
   Lucas Lang             : DCDCAS
   Marvin Lechner         : AUTO-CI (C++ implementation), FIC-MRCC
   Spencer Leger          : CASSCF response
   Dagmar Lenk            : GEPOL surface, SMD, ORCA-2-JSON
   Dimitrios Liakos       : Extrapolation schemes; Compound Job, initial MDCI parallelization
   Dimitrios Manganas     : Further ROCIS development; embedding schemes. LFT, Crystal Embedding
   Dimitrios Pantazis     : SARC Basis sets
   Anastasios Papadopoulos: AUTO-CI, single reference methods and gradients
   Taras Petrenko         : pre 6.0 DFT Hessian and TD-DFT gradient, (ASA, deprecated), ECA, 1-Electron XAS/XES, NRVS
   Peter Pinski           : DLPNO-MP2, DLPNO-MP2 Gradient
   Christoph Reimann      : Effective Core Potentials
   Marius Retegan         : Local ZFS, SOC
   Christoph Riplinger    : Optimizer, TS searches, QM/MM, DLPNO-CCSD(T), (RO)-DLPNO pert. Triples
   Michael Roemelt        : Original ROCIS implementation
   Masaaki Saitow         : Open-shell DLPNO-CCSD energy and density
   Barbara Sandhoefer     : DKH picture change effects
   Kantharuban Sivalingam : CASSCF convergence/infrastructure, NEVPT2 and variants, FIC-MRCI
   Bernardo de Souza      : ESD, SOC TD-DFT
   Georgi Stoychev        : AutoAux, RI-MP2 NMR, DLPNO-MP2 response, X2C
   Van Anh Tran           : RI-MP2 g-tensors
   Willem Van den Heuvel  : Paramagnetic NMR
   Zikuan Wang            : NOTCH, Electric field optimization 
   Frank Wennmohs         : Technical directorship and infrastructure
   Hang Xu                : AUTO-CI-Response properties 


 We gratefully acknowledge several colleagues who have allowed us to
 interface, adapt or use parts of their codes:
   Stefan Grimme, W. Hujo, H. Kruse, P. Pracht,  : VdW corrections, initial TS optimization,
                  C. Bannwarth, S. Ehlert,         DFT functionals, gCP, sTDA/sTD-DF
                  L. Wittmann, M. Mueller
   Ed Valeev, F. Pavosevic, A. Kumar             : LibInt (2-el integral package), F12 methods
   Garnet Chan, S. Sharma, J. Yang, R. Olivares  : DMRG
   Ulf Ekstrom                                   : XCFun DFT Library
   Mihaly Kallay                                 : mrcc  (arbitrary order and MRCC methods)
   Frank Weinhold                                : gennbo (NPA and NBO analysis)
   Simon Mueller                                 : openCOSMO-RS
   Christopher J. Cramer and Donald G. Truhlar   : smd solvation model
   Lars Goerigk                                  : TD-DFT with DH, B97 family of functionals
   V. Asgeirsson, H. Jonsson                     : NEB implementation
   FAccTs GmbH                                   : IRC, NEB, NEB-TS, DLPNO-Multilevel, CI-OPT
                                                   MM, QMMM, 2- and 3-layer-ONIOM, Crystal-QMMM,
                                                   LR-CPCM, SF, NACMEs, symmetry and pop. for TD-DFT,
                                                   nearIR, NL-DFT gradient (VV10), updates on ESD,
                                                   ML-optimized integration grids, MBIS, APM,
                                                   GOAT, DOCKER, SOLVATOR, interface openCOSMO-RS
   S Lehtola, MJT Oliveira, MAL Marques          : LibXC Library
   Liviu Ungur et al                             : ANISO software


 Your calculation uses the libint2 library for the computation of 2-el integrals
 For citations please refer to: http://libint.valeyev.net

 Your ORCA version has been built with support for libXC version: 6.2.2
 For citations please refer to: https://libxc.gitlab.io

 This ORCA versions uses:
   CBLAS   interface :  Fast vector & matrix operations
   LAPACKE interface :  Fast linear algebra routines
   SCALAPACK package :  Parallel linear algebra routines
   Shared memory     :  Shared parallel matrices
   BLAS/LAPACK       :  OpenBLAS 0.3.27  USE64BITINT DYNAMIC_ARCH NO_AFFINITY SkylakeX SINGLE_THREADED
        Core in use  :  SkylakeX
   Copyright (c) 2011-2014, The OpenBLAS Project


Your calculation utilizes the geometrical counterpoise correction gCP
Please cite in your paper:
H.Kruse, S. Grimme J.Chem.Phys., 136, (2012), 154101 
   

Your calculation utilizes the atom-pairwise dispersion correction
based on EEQ partial charges (D4)


================================================================================

----- Orbital basis set information -----
Your calculation utilizes the basis: def2-mTZVPP
   Stefan Grimme, Andreas Hansen, Sebastian Ehlert, and Jan-Michael Mewes 
   J. Chem. Phys. 154, 064103 (2021). DOI: 10.1063/5.0040021

----- AuxJ basis set information -----
Your calculation utilizes the auxiliary basis: def2/J
   F. Weigend, Phys. Chem. Chem. Phys. 8, 1057 (2006).

================================================================================
                                        WARNINGS
                       Please study these warnings very carefully!
================================================================================

Using LibXC functional ID 497 : Re-regularized SCAN exchange by Furness et al
[ 1]  J. W. Furness, A. D. Kaplan, J. Ning, J. P. Perdew, and J. Sun.,  J. Phys. Chem. Lett. 11, 8208-8215 (2020)
[ 2]  J. W. Furness, A. D. Kaplan, J. Ning, J. P. Perdew, and J. Sun.,  J. Phys. Chem. Lett. 11, 9248-9248 (2020)
Using LibXC functional ID 498 : Re-regularized SCAN correlation by Furness et al
[ 1]  J. W. Furness, A. D. Kaplan, J. Ning, J. P. Perdew, and J. Sun.,  J. Phys. Chem. Lett. 11, 8208-8215 (2020)
[ 2]  J. W. Furness, A. D. Kaplan, J. Ning, J. P. Perdew, and J. Sun.,  J. Phys. Chem. Lett. 11, 9248-9248 (2020)
Using LibXC functional ID 497 : Re-regularized SCAN exchange by Furness et al
[ 1]  J. W. Furness, A. D. Kaplan, J. Ning, J. P. Perdew, and J. Sun.,  J. Phys. Chem. Lett. 11, 8208-8215 (2020)
[ 2]  J. W. Furness, A. D. Kaplan, J. Ning, J. P. Perdew, and J. Sun.,  J. Phys. Chem. Lett. 11, 9248-9248 (2020)
Using LibXC functional ID 498 : Re-regularized SCAN correlation by Furness et al
[ 1]  J. W. Furness, A. D. Kaplan, J. Ning, J. P. Perdew, and J. Sun.,  J. Phys. Chem. Lett. 11, 8208-8215 (2020)
[ 2]  J. W. Furness, A. D. Kaplan, J. Ning, J. P. Perdew, and J. Sun.,  J. Phys. Chem. Lett. 11, 9248-9248 (2020)

================================================================================
                                       INPUT FILE
================================================================================
NAME = sp_gas.inp
|  1> ! r2scan-3c def2/J RI DEFGRID2 scfconv6 printgap
|  2> %output
|  3>     printlevel normal
|  4> end
|  5> * xyz 0 1
|  6> C -0.1546399634 -2.3477536622 0.1891339437
|  7> C 0.4983623921 -1.0062902607 0.1199757157
|  8> C 1.891585768 -0.9547034465 0.1102787864
|  9> C 2.584775504 0.2330736109 -0.0184345519
| 10> C 1.8958686496 1.4310845988 -0.1609266534
| 11> C 0.5199363833 1.4164572078 -0.1686894077
| 12> C -0.1803982036 0.2140298991 -0.0188710587
| 13> N -1.5991366091 0.3289200285 -0.0207801496
| 14> O -2.281407277 -0.4828191507 0.5858410562
| 15> O -2.091677735 1.2745650507 -0.6223865293
| 16> H 0.4045800763 -2.9945870485 0.8595343377
| 17> H -1.1834081124 -2.2961985996 0.5263602848
| 18> H -0.136914657 -2.8019253983 -0.8016825724
| 19> H 2.4361318514 -1.8811335953 0.2052418971
| 20> H 3.6631287345 0.2286001875 -0.0106974715
| 21> H 2.427038352 2.3629392219 -0.2628959246
| 22> H -0.0484307092 2.3280699313 -0.2721969516
| 23> *
| 24> 
| 25>                          ****END OF INPUT****
================================================================================

                       ****************************
                       * Single Point Calculation *
                       ****************************

---------------------------------
CARTESIAN COORDINATES (ANGSTROEM)
---------------------------------
  C     -0.154640   -2.347754    0.189134
  C      0.498362   -1.006290    0.119976
  C      1.891586   -0.954703    0.110279
  C      2.584776    0.233074   -0.018435
  C      1.895869    1.431085   -0.160927
  C      0.519936    1.416457   -0.168689
  C     -0.180398    0.214030   -0.018871
  N     -1.599137    0.328920   -0.020780
  O     -2.281407   -0.482819    0.585841
  O     -2.091678    1.274565   -0.622387
  H      0.404580   -2.994587    0.859534
  H     -1.183408   -2.296199    0.526360
  H     -0.136915   -2.801925   -0.801683
  H      2.436132   -1.881134    0.205242
  H      3.663129    0.228600   -0.010697
  H      2.427038    2.362939   -0.262896
  H     -0.048431    2.328070   -0.272197

----------------------------
CARTESIAN COORDINATES (A.U.)
----------------------------
  NO LB      ZA    FRAG     MASS         X           Y           Z
   0 C     6.0000    0    12.011   -0.292227   -4.436611    0.357411
   1 C     6.0000    0    12.011    0.941768   -1.901613    0.226721
   2 C     6.0000    0    12.011    3.574579   -1.804128    0.208397
   3 C     6.0000    0    12.011    4.884518    0.440445   -0.034836
   4 C     6.0000    0    12.011    3.582673    2.704358   -0.304107
   5 C     6.0000    0    12.011    0.982537    2.676716   -0.318777
   6 C     6.0000    0    12.011   -0.340903    0.404458   -0.035661
   7 N     7.0000    0    14.007   -3.021930    0.621569   -0.039269
   8 O     8.0000    0    15.999   -4.311235   -0.912396    1.107079
   9 O     8.0000    0    15.999   -3.952698    2.408579   -1.176140
  10 H     1.0000    0     1.008    0.764546   -5.658949    1.624285
  11 H     1.0000    0     1.008   -2.236317   -4.339187    0.994677
  12 H     1.0000    0     1.008   -0.258731   -5.294872   -1.514961
  13 H     1.0000    0     1.008    4.603622   -3.554827    0.387851
  14 H     1.0000    0     1.008    6.922310    0.431992   -0.020215
  15 H     1.0000    0     1.008    4.586438    4.465308   -0.496801
  16 H     1.0000    0     1.008   -0.091521    4.399415   -0.514378

--------------------------------
INTERNAL COORDINATES (ANGSTROEM)
--------------------------------
 C      0   0   0     0.000000000000     0.00000000     0.00000000
 C      1   0   0     1.493559170021     0.00000000     0.00000000
 C      2   1   0     1.394211822139   118.06397088     0.00000000
 C      3   2   1     1.381265170645   122.27349402   176.72073043
 C      4   3   2     1.389290099352   120.14761472   359.20081366
 C      5   4   3     1.376031911827   119.15971858     0.14843357
 C      6   5   4     1.399551894005   120.59004867     0.77269029
 N      7   6   5     1.423384013435   115.42155515   178.99123563
 O      8   7   6     1.221639491279   120.15663719   208.26085340
 O      8   7   6     1.224243237600   117.64660465    26.80136340
 H      1   2   3     1.086534477460   109.76960460    38.80516010
 H      1   2   3     1.083855817906   112.74777342   160.47562152
 H      1   2   3     1.090093354230   108.96625707   281.05773428
 H      3   2   1     1.078805473635   118.16569284   356.85011942
 H      4   3   2     1.078390265006   119.84123491   179.35991505
 H      5   4   3     1.077446993411   120.73342229   180.05368326
 H      6   5   4     1.079255632892   121.20842492   179.67791786

---------------------------
INTERNAL COORDINATES (A.U.)
---------------------------
 C      0   0   0     0.000000000000     0.00000000     0.00000000
 C      1   0   0     2.822417796146     0.00000000     0.00000000
 C      2   1   0     2.634678516517   118.06397088     0.00000000
 C      3   2   1     2.610212890844   122.27349402   176.72073043
 C      4   3   2     2.625377808344   120.14761472   359.20081366
 C      5   4   3     2.600323464890   119.15971858     0.14843357
 C      6   5   4     2.644769789880   120.59004867     0.77269029
 N      7   6   5     2.689805968794   115.42155515   178.99123563
 O      8   7   6     2.308564072899   120.15663719   208.26085340
 O      8   7   6     2.313484440370   117.64660465    26.80136340
 H      1   2   3     2.053252597463   109.76960460    38.80516010
 H      1   2   3     2.048190664499   112.74777342   160.47562152
 H      1   2   3     2.059977899902   108.96625707   281.05773428
 H      3   2   1     2.038646896946   118.16569284   356.85011942
 H      4   3   2     2.037862266348   119.84123491   179.35991505
 H      5   4   3     2.036079741363   120.73342229   180.05368326
 H      6   5   4     2.039497574657   121.20842492   179.67791786

---------------------
BASIS SET INFORMATION
---------------------
There are 4 groups of distinct atoms

 Group   1 Type C   : 11s6p1d contracted to 5s3p1d pattern {62111/411/1}
 Group   2 Type N   : 11s6p2d contracted to 5s3p2d pattern {62111/411/11}
 Group   3 Type O   : 11s6p2d contracted to 5s3p2d pattern {62111/411/11}
 Group   4 Type H   : 4s1p contracted to 2s1p pattern {31/1}

Atom   0C    basis set group =>   1
Atom   1C    basis set group =>   1
Atom   2C    basis set group =>   1
Atom   3C    basis set group =>   1
Atom   4C    basis set group =>   1
Atom   5C    basis set group =>   1
Atom   6C    basis set group =>   1
Atom   7N    basis set group =>   2
Atom   8O    basis set group =>   3
Atom   9O    basis set group =>   3
Atom  10H    basis set group =>   4
Atom  11H    basis set group =>   4
Atom  12H    basis set group =>   4
Atom  13H    basis set group =>   4
Atom  14H    basis set group =>   4
Atom  15H    basis set group =>   4
Atom  16H    basis set group =>   4
---------------------------------
AUXILIARY/J BASIS SET INFORMATION
---------------------------------
There are 4 groups of distinct atoms

 Group   1 Type C   : 12s5p4d2f1g contracted to 6s4p3d1f1g pattern {711111/2111/211/2/1}
 Group   2 Type N   : 12s5p4d2f1g contracted to 6s4p3d1f1g pattern {711111/2111/211/2/1}
 Group   3 Type O   : 12s5p4d2f1g contracted to 6s4p3d1f1g pattern {711111/2111/211/2/1}
 Group   4 Type H   : 5s2p1d contracted to 3s1p1d pattern {311/2/1}

Atom   0C    basis set group =>   1
Atom   1C    basis set group =>   1
Atom   2C    basis set group =>   1
Atom   3C    basis set group =>   1
Atom   4C    basis set group =>   1
Atom   5C    basis set group =>   1
Atom   6C    basis set group =>   1
Atom   7N    basis set group =>   2
Atom   8O    basis set group =>   3
Atom   9O    basis set group =>   3
Atom  10H    basis set group =>   4
Atom  11H    basis set group =>   4
Atom  12H    basis set group =>   4
Atom  13H    basis set group =>   4
Atom  14H    basis set group =>   4
Atom  15H    basis set group =>   4
Atom  16H    basis set group =>   4

Checking for AutoStart:
The File: sp_gas.gbw exists
Trying to determine its content:
     ... Fine, the file contains calculation information
     ... Fine, the calculation information was read
     ... Fine, the file contains a basis set
     ... Fine, the basis set was read
     ... Fine, the file contains a geometry
     ... Fine, the geometry was read
     ... Fine, the file contains a set of orbitals
     ... Fine, the orbitals can be read
     => possible old guess file was deleted
     => GBW file was renamed to GES file
     => GES file is set as startup file
     => Guess is set to MORead
     ... now leaving AutoStart

------------------------------------------------------------------------------
                             ORCA STARTUP CALCULATIONS
                           -- RI-GTO INTEGRALS CHOSEN --
------------------------------------------------------------------------------
------------------------------------------------------------------------------
                   ___                                                        
                  /   \      - P O W E R E D   B Y -                         
                 /     \                                                     
                 |  |  |   _    _      __       _____    __    __             
                 |  |  |  | |  | |    /  \     |  _  \  |  |  /  |          
                  \  \/   | |  | |   /    \    | | | |  |  | /  /          
                 / \  \   | |__| |  /  /\  \   | |_| |  |  |/  /          
                |  |  |   |  __  | /  /__\  \  |    /   |      \           
                |  |  |   | |  | | |   __   |  |    \   |  |\   \          
                \     /   | |  | | |  |  |  |  | |\  \  |  | \   \       
                 \___/    |_|  |_| |__|  |__|  |_| \__\ |__|  \__/        
                                                                              
                      - O R C A' S   B I G   F R I E N D -                    
                                      &                                       
                       - I N T E G R A L  F E E D E R -                       
                                                                              
 v1 FN, 2020, v2 2021, v3 2022-2024                                           
------------------------------------------------------------------------------


----------------------
SHARK INTEGRAL PACKAGE
----------------------

Number of atoms                             ...     17
Number of basis functions                   ...    240
Number of shells                            ...    114
Maximum angular momentum                    ...      2
Integral batch strategy                     ... SHARK/LIBINT Hybrid
RI-J (if used) integral strategy            ... SPLIT-RIJ (Revised 2003 algorithm where possible)
Printlevel                                  ...      1
Contraction scheme used                     ... SEGMENTED contraction
Prescreening option                         ... SCHWARTZ
   Thresh                                   ... 1.000e-10
   Tcut                                     ... 1.000e-11
   Tpresel                                  ... 1.000e-11 
Coulomb Range Separation                    ... NOT USED
Exchange Range Separation                   ... NOT USED
Multipole approximations                    ... NOT USED
Finite Nucleus Model                        ... NOT USED
CABS basis                                  ... NOT available
Auxiliary Coulomb fitting basis             ... AVAILABLE
   # of basis functions in Aux-J            ...    567
   # of shells in Aux-J                     ...    185
   Maximum angular momentum in Aux-J        ...      4
Auxiliary J/K fitting basis                 ... NOT available
Auxiliary Correlation fitting basis         ... NOT available
Auxiliary 'external' fitting basis          ... NOT available

Checking pre-screening integrals            ... done (  0.0 sec) Dimension = 114
Check shell pair data                       ... done (  0.0 sec)
Shell pair information
Shell pair cut-off parameter TPreSel        ...   1.0e-11
Total number of shell pairs                 ...      6555
Shell pairs after pre-screening             ...      5804
Total number of primitive shell pairs       ...     24112
Primitive shell pairs kept                  ...     14926
          la=0 lb=0:   1750 shell pairs
          la=1 lb=0:   2120 shell pairs
          la=1 lb=1:    653 shell pairs
          la=2 lb=0:    744 shell pairs
          la=2 lb=1:    450 shell pairs
          la=2 lb=2:     87 shell pairs

Calculating one electron integrals          ... done (  0.0 sec)
Calculating RI/J V-Matrix + Cholesky decomp.... done (  0.1 sec)
Calculating Nuclear repulsion               ... done (  0.0 sec) ENN=    508.154851115055 Eh

Diagonalization of the overlap matrix:
Smallest eigenvalue                        ... 2.441e-05
Time for diagonalization                   ...    0.006 sec
Threshold for overlap eigenvalues          ... 1.000e-07
Number of eigenvalues below threshold      ... 0
Time for construction of square roots      ...    0.016 sec
Total time needed                          ...    0.030 sec

-------------------
DFT GRID GENERATION
-------------------

General Integration Accuracy     IntAcc      ... 4.388
Radial Grid Type                 RadialGrid  ... OptM3 with GC (2021)
Angular Grid (max. ang.)         AngularGrid ... 4 (Lebedev-302)
Angular grid pruning method      GridPruning ... 4 (adaptive)
Weight generation scheme         WeightScheme... mBecke (2022)
Basis function cutoff            BFCut       ... 1.0000e-10
Integration weight cutoff        WCut        ... 1.0000e-14
Partially contracted basis set               ... off
Rotationally invariant grid construction     ... off
Angular grids for H and He will be reduced by one unit
Diffuse basis detected: some atoms will have their outermost
                        angular grid increased by 1.

Total number of grid points                  ...    83261
Total number of batches                      ...     1310
Average number of points per batch           ...       63
Average number of grid points per atom       ...     4898
Initializing property integral containers    ... done (  0.0 sec)

SHARK setup successfully completed in   1.2 seconds

Maximum memory used throughout the entire STARTUP-calculation: 39.4 MB
-------------------------------------------------------------------------------
                                 ORCA GUESS
                   Start orbitals & Density for SCF / CASSCF
-------------------------------------------------------------------------------

------------
SCF SETTINGS
------------
Hamiltonian:
 Density Functional     Method          .... DFT(GTOs)
  Functional kind                       .... Exchange
  Functional name                       .... Re-regularized SCAN exchange by Furness et al
  Functional family                     .... MGGA
  Functional refs                              
    [ 0] J. W. Furness, A. D. Kaplan, J. Ning, J. P. Perdew, and J. Sun.,  J. Phys. Chem. Lett. 11, 8208-8215 (2020), doi: 10.1021/acs.jpclett.0c02405
    [ 1] J. W. Furness, A. D. Kaplan, J. Ning, J. P. Perdew, and J. Sun.,  J. Phys. Chem. Lett. 11, 9248-9248 (2020), doi: 10.1021/acs.jpclett.0c03077
  Functional external parameters        .... 6
    Parameter  0 _c1        =  6.670000e-01 : c1 parameter        
    Parameter  1 _c2        =  8.000000e-01 : c2 parameter        
    Parameter  2 _d         =  1.240000e+00 : d parameter         
    Parameter  3 _k1        =  6.500000e-02 : k1 parameter        
    Parameter  4 _eta       =  1.000000e-03 : eta parameter       
    Parameter  5 _dp2       =  3.610000e-01 : dp2 parameter       
  Functional kind                       .... Correlation
  Functional name                       .... Re-regularized SCAN correlation by Furness et al
  Functional family                     .... MGGA
  Functional refs                              
    [ 0] J. W. Furness, A. D. Kaplan, J. Ning, J. P. Perdew, and J. Sun.,  J. Phys. Chem. Lett. 11, 8208-8215 (2020), doi: 10.1021/acs.jpclett.0c02405
    [ 1] J. W. Furness, A. D. Kaplan, J. Ning, J. P. Perdew, and J. Sun.,  J. Phys. Chem. Lett. 11, 9248-9248 (2020), doi: 10.1021/acs.jpclett.0c03077
  Functional external parameters        .... 1
    Parameter  0 _eta       =  1.000000e-03 : Regularization parameter
 Gradients option       PostSCFGGA      .... off
 RI-approximation to the Coulomb term is turned on
   Number of AuxJ basis functions       .... 567


General Settings:
 Integral files         IntName         .... sp_gas
 Hartree-Fock type      HFTyp           .... RHF
 Total Charge           Charge          ....    0
 Multiplicity           Mult            ....    1
 Number of Electrons    NEL             ....   72
 Basis Dimension        Dim             ....  240
 Nuclear Repulsion      ENuc            ....    508.1548511151 Eh

Convergence Acceleration:
 AO-DIIS                CNVDIIS         .... on
   Start iteration      DIISMaxIt       ....    12
   Startup error        DIISStart       ....  0.200000
   # of expansion vecs  DIISMaxEq       ....     5
   Bias factor          DIISBfac        ....   1.050
   Max. coefficient     DIISMaxC        ....  10.000
 MO-DIIS                CNVKDIIS        .... off
 Trust-Rad. Augm. Hess. CNVTRAH         .... auto
   Auto Start mean grad. ratio tolernc. ....  1.125000
   Auto Start start iteration           ....     1
   Auto Start num. interpolation iter.  ....    10
   Max. Number of Micro iterations      ....    24
   Max. Number of Macro iterations      .... Maxiter - #DIIS iter
   Number of Davidson start vectors     ....     2
   Converg. threshold    (grad. norm)   ....   3.330e-04
   Grad. Scal. Fac. for Micro threshold ....   0.100
   Minimum threshold for Micro iter.    ....   1.000e-02
   NR start threshold (gradient norm)   ....   1.000e-04
   Initial trust radius                 ....   0.400
   Minimum AH scaling param. (alpha)    ....   1.000
   Maximum AH scaling param. (alpha)    .... 1000.000
   Quad. conv. algorithm                .... NR
   White noise on init. David. guess    .... on
   Maximum white noise                  ....   0.010
   Pseudo random numbers                .... off
   Inactive MOs                         .... canonical
   Orbital update algorithm             .... Taylor
   Preconditioner                       .... Diag
   Full preconditioner red. dimension   ....   250
   COSX micro iterations for RIJONX calc.... off
 SOSCF                  CNVSOSCF        .... on
   Start iteration      SOSCFMaxIt      ....   150
   Startup grad/error   SOSCFStart      ....  0.003300
   Hessian update       SOSCFHessUp     .... L-BFGS
 Level Shifting         CNVShift        .... on
   Level shift para.    LevelShift      ....    0.2500
   Turn off err/grad.   ShiftErr        ....    0.0010
 Zerner damping         CNVZerner       .... off
 Static damping         CNVDamp         .... on
   Fraction old density DampFac         ....    0.7000
   Max. Damping (<1)    DampMax         ....    0.9800
   Min. Damping (>=0)   DampMin         ....    0.0000
   Turn off err/grad.   DampErr         ....    0.1000

SCF Procedure:
 Maximum # iterations   MaxIter         ....   125
 SCF integral mode      SCFMode         .... Direct
   Integral package                     .... SHARK and LIBINT hybrid scheme
 Reset frequency        DirectResetFreq ....    20
 Integral Threshold     Thresh          ....  1.000e-10 Eh
 Primitive CutOff       TCut            ....  1.000e-11 Eh

Convergence Tolerance:
 Convergence Check Mode ConvCheckMode   .... Total+1el-Energy
 Convergence forced     ConvForced      .... 0
 Energy Change          TolE            ....  1.000e-06 Eh
 1-El. energy change                    ....  1.000e-03 Eh
 Orbital Gradient       TolG            ....  3.330e-04
 Orbital Rotation angle TolX            ....  3.330e-04
 DIIS Error             TolErr          ....  1.000e-06

---------------------
INITIAL GUESS: MOREAD
---------------------
Guess MOs are being read from file: sp_gas.ges
Input Geometry matches current geometry (good)
Atom 0: N(Shells)= 9 and 6 - projection required
Input basis set needs projection
NBasis(read)= 154
NBasis(calc)= 240
Basis set overlap was calculated
Using GuessMode=FMatrix for the initial guess
C*T matrix was formed
Effective Fockian was calculated
Effective Fockian was diagonalized
Initial density was built
                      ------------------
                      INITIAL GUESS DONE (   0.0 sec)
                      ------------------
             **** ENERGY FILE WAS UPDATED (sp_gas.en.tmp) ****
Finished Guess after   0.3 sec
Maximum memory used throughout the entire GUESS-calculation: 17.5 MB

-------------------------------------------------------------------------------------------
                                      ORCA LEAN-SCF
                              memory conserving SCF solver
-------------------------------------------------------------------------------------------

----------------------------------------D-I-I-S--------------------------------------------
Iteration    Energy (Eh)           Delta-E    RMSDP     MaxDP     DIISErr   Damp  Time(sec)
-------------------------------------------------------------------------------------------
               ***  Starting incremental Fock matrix formation  ***
    1    -475.7502738452683388     0.00e+00  1.33e-02  5.28e-01  6.38e-01  0.700   3.1
    2    -475.8165610384130559    -6.63e-02  1.01e-02  3.92e-01  4.48e-01  0.700   2.8
    3    -475.8633454855731770    -4.68e-02  7.17e-03  2.76e-01  3.14e-01  0.700   2.7
    4    -475.8961773520877614    -3.28e-02  5.05e-03  1.93e-01  2.20e-01  0.700   2.6
                               ***Turning on AO-DIIS***
    5    -475.9191990613943517    -2.30e-02  3.55e-03  1.34e-01  1.54e-01  0.700   2.7
    6    -475.9353337822545882    -1.61e-02  2.49e-03  9.38e-02  1.08e-01  0.700   2.6
    7    -475.9466412224905980    -1.13e-02  1.74e-03  6.55e-02  7.54e-02  0.700   2.6
    8    -475.9545626138485659    -7.92e-03  4.07e-03  1.53e-01  5.28e-02  0.000   2.5
                              *** Initializing SOSCF ***
---------------------------------------S-O-S-C-F--------------------------------------
Iteration    Energy (Eh)           Delta-E    RMSDP     MaxDP     MaxGrad    Time(sec)
--------------------------------------------------------------------------------------
    9    -475.9730658459154711    -1.85e-02  1.13e-05  3.27e-04  1.50e-04     2.8
               *** Restarting incremental Fock matrix formation ***
   10    -475.9730659192982785    -7.34e-08  1.49e-05  3.95e-04  1.20e-04     3.3
   11    -475.9730643295650907     1.59e-06  1.06e-05  3.06e-04  5.28e-04     2.2
   12    -475.9730660513978364    -1.72e-06  1.27e-05  3.57e-04  8.95e-05     2.2
   13    -475.9730655563289474     4.95e-07  5.95e-06  1.22e-04  2.08e-04     2.2
                 **** Energy Check signals convergence ****

               *****************************************************
               *                     SUCCESS                       *
               *           SCF CONVERGED AFTER  13 CYCLES          *
               *****************************************************

             **** ENERGY FILE WAS UPDATED (sp_gas.en.tmp) ****

----------------
TOTAL SCF ENERGY
----------------

Total Energy       :       -475.97306555632895 Eh          -12951.88557 eV

Components:
Nuclear Repulsion  :        508.15485111505507 Eh           13827.59648 eV
Electronic Energy  :       -984.12791667138401 Eh          -26779.48206 eV
One Electron Energy:      -1653.34782571083770 Eh          -44989.88158 eV
Two Electron Energy:        669.21990903945368 Eh           18210.39952 eV

Virial components:
Potential Energy   :       -950.26157932909371 Eh          -25857.93217 eV
Kinetic Energy     :        474.28851377276476 Eh           12906.04659 eV
Virial Ratio       :          2.00355174484443

DFT components:
N(Alpha)           :       36.000023330139 electrons
N(Beta)            :       36.000023330139 electrons
N(Total)           :       72.000046660278 electrons
E(X)               :      -62.127328207665 Eh       
E(C)               :       -2.370415127652 Eh       
E(XC)              :      -64.497743335318 Eh       

---------------
SCF CONVERGENCE
---------------

  Last Energy change         ...   -4.9507e-07  Tolerance :   1.0000e-06
  Last MAX-Density change    ...    1.2207e-04  Tolerance :   1.0000e-05
  Last RMS-Density change    ...    5.9507e-06  Tolerance :   1.0000e-06
  Last DIIS Error            ...    1.4963e-04  Tolerance :   1.0000e-06
  Last Orbital Gradient      ...    2.0818e-04  Tolerance :   3.3300e-04
  Last Orbital Rotation      ...    1.6397e-04  Tolerance :   3.3300e-04


----------------
ORBITAL ENERGIES
----------------

  NO   OCC          E(Eh)            E(eV) 
   0   2.0000     -18.979864      -516.4684 
   1   2.0000     -18.978634      -516.4349 
   2   2.0000     -14.393234      -391.6598 
   3   2.0000     -10.103482      -274.9297 
   4   2.0000     -10.082751      -274.3656 
   5   2.0000     -10.065436      -273.8944 
   6   2.0000     -10.063975      -273.8547 
   7   2.0000     -10.058930      -273.7174 
   8   2.0000     -10.058764      -273.7129 
   9   2.0000     -10.037896      -273.1450 
  10   2.0000      -1.200636       -32.6710 
  11   2.0000      -1.019034       -27.7293 
  12   2.0000      -0.868301       -23.6277 
  13   2.0000      -0.788031       -21.4434 
  14   2.0000      -0.768114       -20.9014 
  15   2.0000      -0.696812       -18.9612 
  16   2.0000      -0.658405       -17.9161 
  17   2.0000      -0.596425       -16.2295 
  18   2.0000      -0.566924       -15.4268 
  19   2.0000      -0.523390       -14.2422 
  20   2.0000      -0.510212       -13.8836 
  21   2.0000      -0.485384       -13.2080 
  22   2.0000      -0.477109       -12.9828 
  23   2.0000      -0.450652       -12.2629 
  24   2.0000      -0.429963       -11.6999 
  25   2.0000      -0.411558       -11.1991 
  26   2.0000      -0.405000       -11.0206 
  27   2.0000      -0.375209       -10.2099 
  28   2.0000      -0.357781        -9.7357 
  29   2.0000      -0.350914        -9.5489 
  30   2.0000      -0.338989        -9.2244 
  31   2.0000      -0.287352        -7.8192 
  32   2.0000      -0.279056        -7.5935 
  33   2.0000      -0.271740        -7.3944 
  34   2.0000      -0.254482        -6.9248 
  35   2.0000      -0.246496        -6.7075 
  36   0.0000      -0.119976        -3.2647 
  37   0.0000      -0.056959        -1.5499 
  38   0.0000      -0.034935        -0.9506 
  39   0.0000       0.069863         1.9011 
  40   0.0000       0.077546         2.1101 
  41   0.0000       0.093932         2.5560 
  42   0.0000       0.097965         2.6658 
  43   0.0000       0.117578         3.1995 
  44   0.0000       0.127120         3.4591 
  45   0.0000       0.140672         3.8279 
  46   0.0000       0.147016         4.0005 
*Only the first 10 virtual orbitals were printed.

                    ********************************
                    * MULLIKEN POPULATION ANALYSIS *
                    ********************************

-----------------------
MULLIKEN ATOMIC CHARGES
-----------------------
   0 C :   -0.573324
   1 C :    0.040555
   2 C :   -0.173441
   3 C :   -0.118703
   4 C :   -0.140508
   5 C :   -0.209263
   6 C :    0.100313
   7 N :    0.351450
   8 O :   -0.236475
   9 O :   -0.213739
  10 H :    0.154769
  11 H :    0.204047
  12 H :    0.178134
  13 H :    0.152815
  14 H :    0.151085
  15 H :    0.153938
  16 H :    0.178348
Sum of atomic charges:    0.0000000

--------------------------------
MULLIKEN REDUCED ORBITAL CHARGES
--------------------------------
  0 C s       :     3.400470  s :     3.400470
      pz      :     1.095469  p :     3.146131
      px      :     1.116088
      py      :     0.934573
      dz2     :     0.004996  d :     0.026723
      dxz     :     0.003117
      dyz     :     0.006149
      dx2y2   :     0.006396
      dxy     :     0.006066

  1 C s       :     3.204937  s :     3.204937
      pz      :     0.928511  p :     2.706814
      px      :     0.888962
      py      :     0.889341
      dz2     :     0.003654  d :     0.047694
      dxz     :     0.006614
      dyz     :     0.007470
      dx2y2   :     0.014894
      dxy     :     0.015062

  2 C s       :     3.193564  s :     3.193564
      pz      :     1.006126  p :     2.943098
      px      :     0.923091
      py      :     1.013881
      dz2     :     0.003306  d :     0.036778
      dxz     :     0.005054
      dyz     :     0.003428
      dx2y2   :     0.012258
      dxy     :     0.012733

  3 C s       :     3.188007  s :     3.188007
      pz      :     0.944177  p :     2.892757
      px      :     1.030134
      py      :     0.918445
      dz2     :     0.003403  d :     0.037940
      dxz     :     0.002474
      dyz     :     0.007075
      dx2y2   :     0.013421
      dxy     :     0.011566

  4 C s       :     3.194505  s :     3.194505
      pz      :     0.997203  p :     2.908619
      px      :     0.925566
      py      :     0.985850
      dz2     :     0.003309  d :     0.037384
      dxz     :     0.005376
      dyz     :     0.003448
      dx2y2   :     0.012329
      dxy     :     0.012922

  5 C s       :     3.251075  s :     3.251075
      pz      :     0.937212  p :     2.921149
      px      :     0.966099
      py      :     1.017838
      dz2     :     0.003431  d :     0.037039
      dxz     :     0.006341
      dyz     :     0.003659
      dx2y2   :     0.010065
      dxy     :     0.013543

  6 C s       :     3.174467  s :     3.174467
      pz      :     1.052524  p :     2.672556
      px      :     0.865768
      py      :     0.754264
      dz2     :     0.004740  d :     0.052664
      dxz     :     0.005022
      dyz     :     0.007223
      dx2y2   :     0.021736
      dxy     :     0.013943

  7 N s       :     3.100139  s :     3.100139
      pz      :     1.032179  p :     3.006224
      px      :     1.024705
      py      :     0.949340
      dz2     :     0.095771  d :     0.542188
      dxz     :     0.066937
      dyz     :     0.085637
      dx2y2   :     0.174157
      dxy     :     0.119685

  8 O s       :     3.873370  s :     3.873370
      pz      :     1.364509  p :     4.319084
      px      :     1.598836
      py      :     1.355739
      dz2     :     0.012720  d :     0.044021
      dxz     :     0.008884
      dyz     :     0.004962
      dx2y2   :     0.006249
      dxy     :     0.011205

  9 O s       :     3.870800  s :     3.870800
      pz      :     1.365273  p :     4.303790
      px      :     1.680425
      py      :     1.258092
      dz2     :     0.012681  d :     0.039149
      dxz     :     0.005209
      dyz     :     0.006432
      dx2y2   :     0.004890
      dxy     :     0.009936

 10 H s       :     0.826794  s :     0.826794
      pz      :     0.006646  p :     0.018437
      px      :     0.005448
      py      :     0.006343

 11 H s       :     0.776093  s :     0.776093
      pz      :     0.004423  p :     0.019860
      px      :     0.011541
      py      :     0.003895

 12 H s       :     0.803478  s :     0.803478
      pz      :     0.009547  p :     0.018388
      px      :     0.003881
      py      :     0.004960

 13 H s       :     0.827603  s :     0.827603
      pz      :     0.004182  p :     0.019582
      px      :     0.005456
      py      :     0.009944

 14 H s       :     0.829428  s :     0.829428
      pz      :     0.003913  p :     0.019487
      px      :     0.012427
      py      :     0.003147

 15 H s       :     0.826426  s :     0.826426
      pz      :     0.004202  p :     0.019636
      px      :     0.005351
      py      :     0.010083

 16 H s       :     0.801410  s :     0.801410
      pz      :     0.003902  p :     0.020241
      px      :     0.006418
      py      :     0.009922


------------------------
MULLIKEN OVERLAP CHARGES
------------------------
B(  0-C ,  1-C ) :   0.3667 B(  0-C ,  2-C ) :  -0.1899 B(  0-C ,  6-C ) :  -0.0949 
B(  0-C , 10-H ) :   0.8497 B(  0-C , 11-H ) :   0.8353 B(  0-C , 12-H ) :   0.8477 
B(  1-C ,  2-C ) :   0.6970 B(  1-C ,  4-C ) :  -0.1444 B(  1-C ,  5-C ) :  -0.5312 
B(  1-C ,  6-C ) :   0.4914 B(  1-C ,  7-N ) :  -0.1606 B(  1-C , 10-H ) :  -0.1305 
B(  1-C , 11-H ) :  -0.0943 B(  1-C , 12-H ) :  -0.0663 B(  1-C , 13-H ) :  -0.0757 
B(  2-C ,  3-C ) :   0.8395 B(  2-C ,  4-C ) :  -0.0706 B(  2-C ,  5-C ) :  -0.2153 
B(  2-C ,  6-C ) :   0.0752 B(  2-C , 13-H ) :   0.7971 B(  2-C , 14-H ) :  -0.0573 
B(  3-C ,  4-C ) :   0.7923 B(  3-C ,  6-C ) :  -0.1610 B(  3-C , 14-H ) :   0.7957 
B(  3-C , 15-H ) :  -0.0673 B(  4-C ,  5-C ) :   0.5345 B(  4-C , 14-H ) :  -0.0590 
B(  4-C , 15-H ) :   0.8172 B(  4-C , 16-H ) :  -0.0905 B(  5-C ,  6-C ) :   0.7946 
B(  5-C ,  7-N ) :  -0.0615 B(  5-C ,  9-O ) :   0.0600 B(  5-C , 15-H ) :  -0.0629 
B(  5-C , 16-H ) :   0.7931 B(  6-C ,  7-N ) :   0.5643 B(  6-C ,  8-O ) :  -0.0952 
B(  6-C ,  9-O ) :  -0.1797 B(  7-N ,  8-O ) :   1.0740 B(  7-N ,  9-O ) :   1.0943 
B(  8-O ,  9-O ) :  -0.1747 


                     *******************************
                     * LOEWDIN POPULATION ANALYSIS *
                     *******************************

----------------------
LOEWDIN ATOMIC CHARGES
----------------------
   0 C :   -0.373476
   1 C :   -0.020376
   2 C :   -0.152144
   3 C :   -0.129641
   4 C :   -0.160318
   5 C :   -0.064849
   6 C :    0.195747
   7 N :   -0.492841
   8 O :   -0.034695
   9 O :   -0.024032
  10 H :    0.166491
  11 H :    0.196382
  12 H :    0.174274
  13 H :    0.174662
  14 H :    0.171597
  15 H :    0.173201
  16 H :    0.200018

-------------------------------
LOEWDIN REDUCED ORBITAL CHARGES
-------------------------------
  0 C s       :     2.949554  s :     2.949554
      pz      :     1.153529  p :     3.361813
      px      :     1.155989
      py      :     1.052295
      dz2     :     0.011815  d :     0.062109
      dxz     :     0.007293
      dyz     :     0.014506
      dx2y2   :     0.014801
      dxy     :     0.013694

  1 C s       :     2.862748  s :     2.862748
      pz      :     0.917453  p :     3.061206
      px      :     1.078710
      py      :     1.065043
      dz2     :     0.006344  d :     0.096422
      dxz     :     0.011467
      dyz     :     0.012576
      dx2y2   :     0.033803
      dxy     :     0.032233

  2 C s       :     2.897146  s :     2.897146
      pz      :     0.991298  p :     3.173931
      px      :     1.078364
      py      :     1.104269
      dz2     :     0.005718  d :     0.081067
      dxz     :     0.009360
      dyz     :     0.005683
      dx2y2   :     0.029281
      dxy     :     0.031024

  3 C s       :     2.905698  s :     2.905698
      pz      :     0.937993  p :     3.141453
      px      :     1.105171
      py      :     1.098289
      dz2     :     0.005828  d :     0.082490
      dxz     :     0.003728
      dyz     :     0.013187
      dx2y2   :     0.032391
      dxy     :     0.027356

  4 C s       :     2.901206  s :     2.901206
      pz      :     0.981080  p :     3.177167
      px      :     1.096495
      py      :     1.099592
      dz2     :     0.005678  d :     0.081944
      dxz     :     0.009856
      dyz     :     0.005697
      dx2y2   :     0.029344
      dxy     :     0.031368

  5 C s       :     2.892385  s :     2.892385
      pz      :     0.930570  p :     3.092970
      px      :     1.084640
      py      :     1.077760
      dz2     :     0.005539  d :     0.079494
      dxz     :     0.011176
      dyz     :     0.006384
      dx2y2   :     0.025102
      dxy     :     0.031293

  6 C s       :     2.768893  s :     2.768893
      pz      :     0.968537  p :     2.922790
      px      :     0.891735
      py      :     1.062518
      dz2     :     0.009428  d :     0.112570
      dxz     :     0.010079
      dyz     :     0.012867
      dx2y2   :     0.046442
      dxy     :     0.033754

  7 N s       :     2.939419  s :     2.939419
      pz      :     1.059639  p :     3.295166
      px      :     1.143245
      py      :     1.092281
      dz2     :     0.210226  d :     1.258257
      dxz     :     0.207303
      dyz     :     0.217523
      dx2y2   :     0.333718
      dxy     :     0.289487

  8 O s       :     3.462443  s :     3.462443
      pz      :     1.340388  p :     4.302916
      px      :     1.564189
      py      :     1.398340
      dz2     :     0.047083  d :     0.269336
      dxz     :     0.040401
      dyz     :     0.051619
      dx2y2   :     0.060181
      dxy     :     0.070052

  9 O s       :     3.463353  s :     3.463353
      pz      :     1.341436  p :     4.298256
      px      :     1.626536
      py      :     1.330285
      dz2     :     0.044512  d :     0.262423
      dxz     :     0.031956
      dyz     :     0.060439
      dx2y2   :     0.057679
      dxy     :     0.067837

 10 H s       :     0.789520  s :     0.789520
      pz      :     0.015991  p :     0.043988
      px      :     0.013474
      py      :     0.014523

 11 H s       :     0.753699  s :     0.753699
      pz      :     0.010367  p :     0.049919
      px      :     0.031321
      py      :     0.008230

 12 H s       :     0.781595  s :     0.781595
      pz      :     0.024150  p :     0.044131
      px      :     0.008926
      py      :     0.011055

 13 H s       :     0.780336  s :     0.780336
      pz      :     0.009283  p :     0.045002
      px      :     0.012355
      py      :     0.023363

 14 H s       :     0.783576  s :     0.783576
      pz      :     0.008384  p :     0.044827
      px      :     0.029314
      py      :     0.007130

 15 H s       :     0.781585  s :     0.781585
      pz      :     0.009229  p :     0.045214
      px      :     0.012211
      py      :     0.023775

 16 H s       :     0.753220  s :     0.753220
      pz      :     0.008532  p :     0.046762
      px      :     0.015063
      py      :     0.023167


---------------------------------
LOEWDIN BOND ORDERS (THRESH 0.050000)
---------------------------------
B(  0-C ,  1-C ) :   1.1097 B(  0-C ,  2-C ) :   0.0927 B(  0-C ,  6-C ) :   0.0761 
B(  0-C ,  8-O ) :   0.0654 B(  0-C , 10-H ) :   0.9077 B(  0-C , 11-H ) :   0.8790 
B(  0-C , 12-H ) :   0.9001 B(  1-C ,  2-C ) :   1.4327 B(  1-C ,  3-C ) :   0.0902 
B(  1-C ,  4-C ) :   0.1163 B(  1-C ,  5-C ) :   0.0819 B(  1-C ,  6-C ) :   1.2706 
B(  1-C ,  7-N ) :   0.1482 B(  1-C , 13-H ) :   0.0524 B(  2-C ,  3-C ) :   1.5214 
B(  2-C ,  4-C ) :   0.0884 B(  2-C ,  5-C ) :   0.1239 B(  2-C ,  6-C ) :   0.0915 
B(  2-C , 13-H ) :   0.8629 B(  2-C , 14-H ) :   0.0556 B(  3-C ,  4-C ) :   1.4700 
B(  3-C ,  5-C ) :   0.0937 B(  3-C ,  6-C ) :   0.1031 B(  3-C , 13-H ) :   0.0537 
B(  3-C , 14-H ) :   0.8724 B(  3-C , 15-H ) :   0.0529 B(  4-C ,  5-C ) :   1.5365 
B(  4-C ,  6-C ) :   0.0908 B(  4-C , 14-H ) :   0.0532 B(  4-C , 15-H ) :   0.8707 
B(  4-C , 16-H ) :   0.0526 B(  5-C ,  6-C ) :   1.2859 B(  5-C ,  7-N ) :   0.1725 
B(  5-C ,  9-O ) :   0.0869 B(  5-C , 15-H ) :   0.0564 B(  5-C , 16-H ) :   0.8392 
B(  6-C ,  7-N ) :   1.1094 B(  6-C ,  8-O ) :   0.1766 B(  6-C ,  9-O ) :   0.1850 
B(  7-N ,  8-O ) :   2.6021 B(  7-N ,  9-O ) :   2.5988 B(  8-O ,  9-O ) :   0.5830 


------------------------------------------
LOEWDIN REDUCED ORBITAL POPULATIONS PER MO
-------------------------------------------
THRESHOLD FOR PRINTING IS 0.1%%
                      0         1         2         3         4         5   
                 -18.97986 -18.97863 -14.39323 -10.10348 -10.08275 -10.06544
                   2.00000   2.00000   2.00000   2.00000   2.00000   2.00000
                  --------  --------  --------  --------  --------  --------
 1 C  s               0.0       0.0       0.0       0.0      99.5       0.0
 2 C  px              0.0       0.0       0.0       0.0       0.1       0.0
 4 C  s               0.0       0.0       0.0       0.0       0.0       0.2
 4 C  px              0.0       0.0       0.0       0.0       0.0       0.1
 5 C  s               0.0       0.0       0.0       0.0       0.0      99.4
 6 C  s               0.0       0.0       0.0      99.2       0.0       0.0
 6 C  py              0.0       0.0       0.0       0.0       0.1       0.1
 7 N  s               0.0       0.0      99.4       0.0       0.0       0.0
 7 N  px              0.0       0.0       0.0       0.1       0.0       0.0
 7 N  dx2y2           0.0       0.0       0.0       0.2       0.0       0.0
 8 O  s              99.8       0.0       0.0       0.0       0.0       0.0
 9 O  s               0.0      99.8       0.0       0.0       0.0       0.0

                      6         7         8         9        10        11   
                 -10.06398 -10.05893 -10.05876 -10.03790  -1.20064  -1.01903
                   2.00000   2.00000   2.00000   2.00000   2.00000   2.00000
                  --------  --------  --------  --------  --------  --------
 0 C  s               0.0       0.0       0.0      99.7       0.0       0.0
 0 C  py              0.0       0.0       0.0       0.0       0.1       0.0
 1 C  s               0.0       0.0       0.0       0.0       0.2       0.0
 1 C  px              0.0       0.0       0.1       0.0       0.3       0.1
 1 C  py              0.0       0.0       0.0       0.1       0.2       0.0
 2 C  s               0.2       0.6      98.7       0.0       0.0       0.0
 2 C  py              0.1       0.0       0.0       0.0       0.0       0.0
 3 C  s              99.2       0.2       0.3       0.0       0.0       0.0
 3 C  py              0.0       0.1       0.1       0.0       0.0       0.0
 4 C  s               0.2      98.7       0.6       0.0       0.0       0.0
 4 C  py              0.1       0.0       0.0       0.0       0.0       0.0
 5 C  s               0.0       0.2       0.0       0.0       0.2       0.1
 5 C  px              0.0       0.1       0.0       0.0       0.5       0.2
 5 C  py              0.0       0.0       0.0       0.0       0.1       0.0
 6 C  s               0.0       0.0       0.0       0.0       2.3       0.0
 6 C  pz              0.0       0.0       0.0       0.0       0.0       0.3
 6 C  px              0.0       0.0       0.0       0.0       4.2       0.0
 6 C  py              0.0       0.0       0.0       0.0       0.0       0.8
 6 C  dx2y2           0.0       0.0       0.0       0.0       0.1       0.0
 7 N  s               0.0       0.0       0.0       0.0      32.7       0.0
 7 N  pz              0.0       0.0       0.0       0.0       0.0      11.2
 7 N  px              0.0       0.0       0.0       0.0       2.7       0.3
 7 N  py              0.0       0.0       0.0       0.0       0.0      24.0
 7 N  dz2             0.0       0.0       0.0       0.0       0.1       0.0
 7 N  dxz             0.0       0.0       0.0       0.0       0.0       1.4
 7 N  dyz             0.0       0.0       0.0       0.0       1.7       0.0
 7 N  dx2y2           0.0       0.0       0.0       0.0       0.2       0.1
 7 N  dxy             0.0       0.0       0.0       0.0       0.0       2.9
 8 O  s               0.0       0.0       0.0       0.0      17.5      25.3
 8 O  pz              0.0       0.0       0.0       0.0       2.0       0.5
 8 O  px              0.0       0.0       0.0       0.0       1.7       1.6
 8 O  py              0.0       0.0       0.0       0.0       3.6       0.9
 8 O  dxz             0.0       0.0       0.0       0.0       0.4       0.0
 8 O  dyz             0.0       0.0       0.0       0.0       1.1       0.4
 8 O  dx2y2           0.0       0.0       0.0       0.0       0.2       0.4
 8 O  dxy             0.0       0.0       0.0       0.0       0.8       0.1
 9 O  s               0.0       0.0       0.0       0.0      17.0      25.2
 9 O  pz              0.0       0.0       0.0       0.0       1.9       0.5
 9 O  px              0.0       0.0       0.0       0.0       0.7       1.2
 9 O  py              0.0       0.0       0.0       0.0       4.6       1.3
 9 O  dxz             0.0       0.0       0.0       0.0       0.2       0.0
 9 O  dyz             0.0       0.0       0.0       0.0       1.3       0.4
 9 O  dx2y2           0.0       0.0       0.0       0.0       0.6       0.4
 9 O  dxy             0.0       0.0       0.0       0.0       0.4       0.1

                     12        13        14        15        16        17   
                  -0.86830  -0.78803  -0.76811  -0.69681  -0.65840  -0.59642
                   2.00000   2.00000   2.00000   2.00000   2.00000   2.00000
                  --------  --------  --------  --------  --------  --------
 0 C  s               2.2       0.1      13.2      12.5      13.2       2.1
 0 C  px              0.3       0.1       0.7       0.0       0.2       0.2
 0 C  py              1.3       0.1       1.2       0.0       0.7       2.3
 1 C  s              13.7       0.1      15.5       1.0       2.0       4.1
 1 C  px              0.1       5.3       0.3       3.1       3.6       4.8
 1 C  py              1.6       0.4       3.9       2.4       7.6       6.3
 1 C  dz2             0.2       0.0       0.1       0.0       0.0       0.0
 1 C  dx2y2           0.0       0.1       0.0       0.2       0.0       0.1
 2 C  s               9.1       7.6       6.9       7.1       1.9       6.7
 2 C  px              1.2       1.1       3.0       3.2       2.9       3.5
 2 C  py              1.2       1.9       1.4       1.2       0.2       2.5
 2 C  dz2             0.1       0.1       0.1       0.0       0.0       0.0
 2 C  dx2y2           0.0       0.0       0.1       0.0       0.1       0.0
 3 C  s               7.3      15.5       0.4       7.1       6.1       0.1
 3 C  pz              0.0       0.0       0.1       0.1       0.0       0.1
 3 C  px              2.1       0.8       0.0       0.3       1.0       0.0
 3 C  py              0.0       0.0       5.0       4.4       3.6       8.5
 3 C  dz2             0.1       0.1       0.0       0.0       0.0       0.0
 3 C  dxy             0.0       0.0       0.1       0.1       0.1       0.1
 4 C  s               7.7       8.3      10.0       3.4       5.0       2.1
 4 C  px              0.9       0.9       1.3       4.9       5.1       4.2
 4 C  py              1.4       1.8       0.1       2.2       0.2       0.4
 4 C  dx2y2           0.0       0.0       0.1       0.2       0.1       0.1
 5 C  s              10.7       0.0      11.0       9.4       2.3       6.8
 5 C  px              0.1       5.8       0.9       1.3       1.4       3.0
 5 C  py              2.5       0.6       0.2       0.4       1.0       1.9
 5 C  dz2             0.1       0.0       0.1       0.0       0.0       0.0
 5 C  dx2y2           0.0       0.1       0.1       0.0       0.1       0.0
 6 C  s              16.3       9.2       0.4       0.2       1.4       1.1
 6 C  px              1.6       3.7       0.1       5.0       9.8       1.2
 6 C  py              0.0       0.0       9.3       0.4       0.1      15.6
 6 C  dz2             0.2       0.1       0.0       0.0       0.0       0.0
 6 C  dx2y2           0.0       0.1       0.0       0.3       0.2       0.0
 6 C  dxy             0.0       0.0       0.2       0.1       0.0       0.2
 7 N  s               0.6       2.4       0.2       2.4       2.3       0.2
 7 N  pz              0.0       0.0       0.1       0.0       0.0       0.6
 7 N  px              7.4      16.2       0.8       4.9       3.9       0.3
 7 N  py              0.1       0.2       0.0       0.1       0.1       0.8
 7 N  dz2             0.4       0.1       0.0       0.1       0.1       0.0
 7 N  dxz             0.0       0.0       0.0       0.0       0.0       0.1
 7 N  dyz             0.1       0.4       0.0       0.3       0.2       0.0
 7 N  dx2y2           1.1       1.0       0.1       0.1       0.1       0.0
 7 N  dxy             0.0       0.0       0.5       0.0       0.1       1.8
 8 O  s               0.8       2.7       0.0       1.8       2.1       0.0
 8 O  pz              0.0       0.0       0.0       0.1       0.1       0.2
 8 O  px              0.4       1.2       0.0       0.8       1.2       0.0
 8 O  py              0.1       0.1       0.0       0.2       0.0       0.1
 8 O  dz2             0.1       0.1       0.0       0.0       0.1       0.0
 8 O  dxz             0.1       0.3       0.0       0.1       0.1       0.0
 8 O  dx2y2           0.3       0.5       0.0       0.1       0.1       0.1
 8 O  dxy             0.1       0.3       0.1       0.4       0.0       0.0
 9 O  s               1.0       3.0       0.5       1.7       1.4       1.0
 9 O  pz              0.0       0.0       0.0       0.0       0.0       0.4
 9 O  px              0.5       1.2       0.1       0.6       0.7       0.7
 9 O  py              0.1       0.1       0.0       0.2       0.3       0.0
 9 O  dxz             0.1       0.3       0.0       0.1       0.1       0.1
 9 O  dx2y2           0.2       0.2       0.1       0.0       0.0       0.2
 9 O  dxy             0.2       0.7       0.0       0.4       0.3       0.0
10 H  s               0.2       0.0       2.1       2.6       3.3       1.6
10 H  pz              0.0       0.0       0.1       0.1       0.1       0.1
11 H  s               0.2       0.0       1.7       2.6       3.4       0.4
11 H  px              0.0       0.0       0.1       0.2       0.3       0.0
12 H  s               0.2       0.0       2.0       2.6       3.5       0.9
12 H  pz              0.0       0.0       0.1       0.2       0.2       0.1
13 H  s               0.8       1.0       1.2       1.4       0.2       5.3
13 H  py              0.0       0.1       0.1       0.1       0.0       0.3
14 H  s               0.6       2.0       0.1       1.7       2.3       0.0
14 H  px              0.0       0.2       0.0       0.2       0.2       0.0
15 H  s               0.6       1.0       1.4       0.8       1.8       0.9
15 H  py              0.0       0.1       0.1       0.0       0.1       0.1
16 H  s               1.0       0.0       1.6       1.8       0.4       4.8
16 H  py              0.1       0.0       0.1       0.1       0.0       0.3

                     18        19        20        21        22        23   
                  -0.56692  -0.52339  -0.51021  -0.48538  -0.47711  -0.45065
                   2.00000   2.00000   2.00000   2.00000   2.00000   2.00000
                  --------  --------  --------  --------  --------  --------
 0 C  s               1.5       1.2       0.0       0.0       0.4       0.0
 0 C  pz              0.0       0.0       0.1       0.0       0.1       0.0
 0 C  px              2.2       0.1       0.8       0.2       0.9       6.8
 0 C  py              0.6       1.8       0.1       0.3       3.7       1.0
 1 C  s               1.3       0.3       0.5       0.0       2.5       0.0
 1 C  pz              0.0       0.0       0.7       0.0       0.0       0.0
 1 C  px              4.8       0.1       0.3       3.7       1.4       7.1
 1 C  py              1.4       0.7       0.1       0.3       0.3       2.5
 1 C  dx2y2           0.2       0.1       0.0       0.0       0.1       0.0
 2 C  s               1.5       1.1       0.2       0.0       0.6       0.2
 2 C  px              4.4       0.1       1.6       3.9       0.2       6.5
 2 C  py              4.7       4.0       0.1       0.1       2.7       2.9
 2 C  dx2y2           0.1       0.0       0.0       0.0       0.2       0.0
 3 C  s               5.0       0.4       0.0       0.3       1.1       0.0
 3 C  pz              0.0       0.0       0.0       0.1       0.0       0.2
 3 C  px              2.1       0.6       0.1       2.6      23.4       0.3
 3 C  py              0.7       0.1       2.1       3.2       0.4      10.6
 4 C  s               4.5       1.6       0.2       0.4       0.6       0.0
 4 C  px              0.6       0.8       2.4       1.5       4.1       6.1
 4 C  py              5.6       6.3       0.0       1.2       3.9       3.8
 5 C  s               0.0       0.2       0.5       1.1       0.9       0.0
 5 C  pz              0.0       0.2       0.7       0.0       0.1       0.0
 5 C  px              6.8       0.0       0.5       0.1       6.3       6.2
 5 C  py              3.7       5.1       0.1       3.3       2.0       4.0
 5 C  dx2y2           0.2       0.1       0.0       0.0       0.2       0.1
 6 C  s               3.0       0.1       0.0       0.0       0.3       0.1
 6 C  pz              0.0       0.0       4.8       0.7       0.2       0.8
 6 C  px              1.6       6.0       0.0       0.1       1.4       0.1
 6 C  py              1.1       0.8       0.5       2.3       0.0       8.0
 6 C  dxz             0.0       0.0       0.1       0.0       0.0       0.0
 6 C  dx2y2           0.2       0.0       0.0       0.1       0.5       0.0
 6 C  dxy             0.0       0.0       0.1       0.0       0.0       0.2
 7 N  s               4.0       1.9       0.0       0.0       0.1       0.0
 7 N  pz              0.0       0.2      31.5       5.3       1.1       1.0
 7 N  px              0.2      10.2       0.3       1.3       3.6       0.0
 7 N  py              0.1       0.8      12.8       6.7       1.1       6.4
 7 N  dz2             0.3       0.0       0.0       0.0       0.1       0.0
 7 N  dxz             0.1       0.0       0.0       1.5       0.2       0.1
 7 N  dyz             1.1       2.1       0.0       0.0       0.3       0.0
 7 N  dx2y2           0.0       1.2       0.0       0.1       0.7       0.0
 7 N  dxy             0.2       0.0       0.1       3.8       0.5       0.3
 8 O  s               6.2       5.8       0.0       8.8       0.1       0.9
 8 O  pz              2.3       2.9      11.2       3.8       0.2       4.3
 8 O  px              1.6       0.1       0.1       9.8       2.5       1.4
 8 O  py              3.9       9.6       5.0       8.9       0.1       0.9
 8 O  dz2             0.0       0.0       1.2       0.0       0.0       0.2
 8 O  dxz             0.1       0.0       0.5       0.1       0.0       0.0
 8 O  dyz             0.1       0.2       0.2       0.1       0.0       0.0
 8 O  dx2y2           0.0       0.3       0.2       0.0       0.0       0.0
 8 O  dxy             0.2       0.0       0.4       0.2       0.0       0.0
 9 O  s               4.2       7.6       0.1       4.6       3.2       1.9
 9 O  pz              1.0       5.9       9.1       1.1       1.6       5.9
 9 O  px              0.2       0.0       0.0       6.8       0.4       1.5
 9 O  py              3.7       9.2       6.6       6.6       5.2       2.1
 9 O  dz2             0.0       0.0       1.3       0.0       0.0       0.1
 9 O  dxz             0.0       0.0       0.3       0.0       0.0       0.0
 9 O  dyz             0.1       0.3       0.3       0.0       0.0       0.1
 9 O  dx2y2           0.2       0.2       0.5       0.0       0.0       0.0
 9 O  dxy             0.1       0.0       0.1       0.2       0.2       0.0
10 H  s               0.3       0.7       0.0       0.1       0.7       1.1
11 H  s               1.9       0.2       0.3       0.0       0.8       2.3
12 H  s               0.6       0.9       0.1       0.0       0.5       0.1
13 H  s               1.0       2.2       0.2       0.1       0.2       0.0
14 H  s               3.5       0.0       0.0       1.5      11.7       0.3
14 H  px              0.2       0.0       0.0       0.1       0.4       0.0
15 H  s               3.6       4.1       0.4       0.0       1.5       0.2
15 H  px              0.1       0.1       0.0       0.0       0.0       0.1
15 H  py              0.1       0.1       0.0       0.0       0.1       0.0
16 H  s               0.0       0.8       0.1       2.2       3.6       0.0
16 H  py              0.0       0.0       0.0       0.0       0.2       0.0

                     24        25        26        27        28        29   
                  -0.42996  -0.41156  -0.40500  -0.37521  -0.35778  -0.35091
                   2.00000   2.00000   2.00000   2.00000   2.00000   2.00000
                  --------  --------  --------  --------  --------  --------
 0 C  s               0.1       0.0       0.3       0.0       0.0       0.1
 0 C  pz              0.2      39.1       0.8       0.2      13.2       0.2
 0 C  px              0.4       0.0       3.2      20.9       0.2      15.9
 0 C  py              4.8       0.5      12.4      10.7       0.1       0.4
 0 C  dz2             0.0       0.2       0.0       0.1       0.1       0.0
 0 C  dxz             0.0       0.0       0.0       0.2       0.0       0.1
 0 C  dyz             0.0       0.1       0.0       0.0       0.2       0.0
 0 C  dx2y2           0.0       0.0       0.1       0.1       0.0       0.3
 0 C  dxy             0.1       0.0       0.1       0.1       0.0       0.0
 1 C  s               1.9       0.0       0.1       0.0       0.0       0.0
 1 C  pz              0.0      16.9       0.1       0.1       2.3       0.2
 1 C  px              0.6       0.0       5.1       0.7       0.7      10.3
 1 C  py              3.1       0.0      10.2       1.0       0.0       0.8
 1 C  dyz             0.0       0.0       0.0       0.0       0.3       0.0
 1 C  dx2y2           0.1       0.0       0.1       0.1       0.0       0.4
 1 C  dxy             0.3       0.0       0.0       0.1       0.0       0.0
 2 C  s               0.6       0.1       0.7       0.7       0.0       0.0
 2 C  pz              0.3       5.7       0.0       0.1       8.3       0.5
 2 C  px              7.1       0.0       2.8       0.6       0.6       9.8
 2 C  py             12.4       0.0       7.1       1.9       0.1       1.8
 2 C  dyz             0.0       0.0       0.0       0.0       0.1       0.0
 2 C  dx2y2           0.0       0.0       0.1       0.2       0.0       0.5
 2 C  dxy             0.4       0.0       0.0       0.1       0.0       0.0
 3 C  s               1.7       0.0       0.1       0.1       0.0       0.2
 3 C  pz              0.0       1.8       0.1       0.0      14.4       1.2
 3 C  px              1.5       0.1       0.6       5.8       0.9      12.4
 3 C  py              0.0       0.2       1.3       2.7       0.2       0.5
 3 C  dx2y2           0.1       0.0       0.0       0.4       0.1       0.7
 3 C  dxy             0.0       0.0       0.4       0.0       0.0       0.0
 4 C  s               1.0       0.0       0.3       0.1       0.0       0.1
 4 C  pz              0.0       1.5       0.0       0.2      16.7       1.2
 4 C  px              0.8       0.2       8.8       6.6       0.5       3.9
 4 C  py              4.3       0.4      11.1       1.4       0.3       0.2
 4 C  dx2y2           0.0       0.0       0.3       0.2       0.0       0.4
 4 C  dxy             0.4       0.0       0.1       0.0       0.0       0.0
 5 C  s               0.6       0.1       0.6       0.0       0.0       0.2
 5 C  pz              0.4       1.6       0.0       0.2      15.3       0.8
 5 C  px              1.6       0.0       7.1       6.5       0.4       3.9
 5 C  py             14.6       0.0       2.9       0.1       0.1       0.4
 5 C  dx2y2           0.0       0.0       0.2       0.0       0.0       0.0
 5 C  dxy             0.5       0.0       0.0       0.0       0.0       0.0
 6 C  s               3.6       0.0       0.1       0.1       0.0       0.5
 6 C  pz              0.1       3.7       0.1       0.1       8.7       0.2
 6 C  px              2.4       0.0       0.3       0.1       0.0       0.2
 6 C  py              0.2       0.1       0.1       1.9       0.3       0.2
 6 C  dxz             0.0       0.1       0.0       0.0       0.1       0.0
 6 C  dx2y2           0.0       0.0       0.0       0.2       0.0       0.3
 6 C  dxy             0.1       0.0       0.2       0.0       0.0       0.0
 7 N  s               0.1       0.0       0.0       0.0       0.0       0.2
 7 N  pz              0.0       0.6       0.1       0.0       0.3       0.2
 7 N  px              0.3       0.0       0.2       1.0       0.1       0.3
 7 N  py              0.0       0.2       0.2       0.0       0.1       0.0
 7 N  dz2             0.0       0.0       0.0       0.2       0.0       0.1
 7 N  dxz             0.0       0.4       0.0       0.1       0.8       0.0
 7 N  dx2y2           0.9       0.0       0.0       0.1       0.0       1.0
 7 N  dxy             0.1       0.0       0.1       0.0       0.1       0.0
 8 O  s               0.0       0.0       0.1       0.5       0.0       0.1
 8 O  pz              0.0       0.3       0.5       1.3       0.2       0.1
 8 O  px              0.1       0.1       0.0       0.7       0.0       4.1
 8 O  py              0.1       0.6       0.0       0.2       1.0       0.9
 8 O  dz2             0.0       0.0       0.0       0.1       0.0       0.1
 8 O  dx2y2           0.0       0.0       0.0       0.1       0.0       0.2
 8 O  dxy             0.0       0.0       0.0       0.4       0.0       0.1
 9 O  pz              0.0       0.2       0.0       0.3       0.4       0.1
 9 O  px              1.2       0.0       0.0       0.1       0.0       0.6
 9 O  py              0.1       0.7       0.0       0.0       0.4       0.1
10 H  s               1.2       5.4       1.9      10.5       3.1       1.5
10 H  pz              0.0       0.0       0.0       0.2       0.0       0.0
10 H  px              0.0       0.1       0.1       0.0       0.0       0.0
10 H  py              0.0       0.2       0.0       0.0       0.1       0.0
11 H  s               0.3       1.3       1.9       9.2       0.2       8.9
11 H  pz              0.0       0.1       0.0       0.1       0.1       0.0
11 H  px              0.0       0.1       0.0       0.2       0.0       0.1
11 H  py              0.0       0.0       0.1       0.0       0.0       0.0
12 H  s               0.2      15.4       0.5       0.5       6.6       0.1
12 H  pz              0.0       0.2       0.0       0.0       0.1       0.0
12 H  px              0.0       0.0       0.0       0.2       0.0       0.1
12 H  py              0.0       0.2       0.1       0.0       0.0       0.0
13 H  s              12.5       0.0       2.9       2.9       0.1       0.2
13 H  py              0.2       0.0       0.0       0.1       0.0       0.0
14 H  s               0.0       0.1       0.6       4.8       0.7       9.0
15 H  s               4.7       0.5       9.7       0.2       0.1       1.2
15 H  pz              0.0       0.0       0.0       0.0       0.1       0.0
15 H  py              0.1       0.0       0.1       0.0       0.0       0.0
16 H  s              10.0       0.0       2.5       0.7       0.1       0.8
16 H  px              0.1       0.0       0.0       0.0       0.0       0.0
16 H  py              0.2       0.0       0.1       0.1       0.0       0.0

                     30        31        32        33        34        35   
                  -0.33899  -0.28735  -0.27906  -0.27174  -0.25448  -0.24650
                   2.00000   2.00000   2.00000   2.00000   2.00000   2.00000
                  --------  --------  --------  --------  --------  --------
 0 C  s               0.4       0.0       0.0       0.0       0.0       0.1
 0 C  pz              0.0       0.0       0.0       0.3       3.2       0.0
 0 C  px              0.3       0.6       0.7       1.9       0.0       0.9
 0 C  py             10.1       0.0       0.0       0.0       0.0       0.0
 0 C  dyz             0.0       0.0       0.0       0.0       0.4       0.0
 0 C  dxy             0.1       0.0       0.0       0.0       0.0       0.0
 1 C  s               0.1       0.0       0.0       0.0       0.0       0.1
 1 C  pz              0.1       0.2       0.0       0.6      23.1       1.1
 1 C  px              0.2       0.0       0.7       0.2       0.0       0.1
 1 C  py              9.5       0.0       0.2       0.0       0.1       0.1
 1 C  dxz             0.0       0.0       0.1       0.2       0.1       0.1
 1 C  dyz             0.0       0.0       0.0       0.1       0.1       0.0
 1 C  dx2y2           0.0       0.0       0.1       0.1       0.0       0.0
 1 C  dxy             0.7       0.0       0.0       0.0       0.0       0.0
 2 C  s               0.1       0.0       0.1       0.0       0.0       0.0
 2 C  pz              0.1       0.4       4.3       9.2      18.2       2.2
 2 C  px              0.1       0.0       0.8       0.3       0.0       0.0
 2 C  py              8.4       0.0       0.0       0.1       0.2       0.1
 2 C  dxz             0.0       0.0       0.0       0.1       0.2       0.1
 2 C  dxy             0.7       0.0       0.0       0.0       0.0       0.0
 3 C  pz              0.1       0.1       6.3      15.6       0.7       5.9
 3 C  px              0.2       0.0       0.0       0.0       0.0       0.0
 3 C  py             10.7       0.1       0.0       0.3       0.0       0.1
 3 C  dyz             0.0       0.0       0.0       0.0       0.6       0.0
 3 C  dxy             0.3       0.0       0.0       0.0       0.0       0.0
 4 C  pz              0.2       0.0       0.6       1.6      26.4       0.2
 4 C  px              0.4       0.1       0.1       0.3       0.0       0.2
 4 C  py              9.9       0.0       0.1       0.0       0.4       0.0
 4 C  dxz             0.0       0.0       0.1       0.2       0.1       0.1
 4 C  dxy             0.7       0.0       0.1       0.0       0.0       0.0
 5 C  s               0.1       0.0       0.0       0.0       0.0       0.2
 5 C  pz              0.1       0.5       2.5       6.4      14.6       3.3
 5 C  px              0.3       0.2       0.0       0.4       0.0       0.6
 5 C  py              9.5       0.0       1.0       0.0       0.2       0.0
 5 C  dxz             0.0       0.0       0.1       0.1       0.3       0.0
 5 C  dyz             0.0       0.0       0.0       0.1       0.0       0.0
 5 C  dxy             0.8       0.0       0.0       0.0       0.0       0.0
 6 C  s               0.0       0.0       0.3       0.1       0.0       0.0
 6 C  pz              0.2       0.0       4.3      15.5       2.6       6.0
 6 C  px              0.0       0.1       4.7       1.9       0.0       0.0
 6 C  py             10.5       0.0       0.2       0.2       0.1       0.1
 6 C  dyz             0.0       0.0       0.1       0.0       0.5       0.0
 6 C  dxy             0.3       0.0       0.0       0.0       0.0       0.1
 7 N  s               0.0       0.0       0.3       0.1       0.0       0.0
 7 N  pz              0.1       0.0       0.1       0.3       0.0       0.2
 7 N  px              0.0       0.1       2.0       0.7       0.0       0.0
 7 N  py              0.1       0.0       0.0       0.2       0.0       0.5
 7 N  dz2             0.0       8.3       0.2       0.2       0.1       0.0
 7 N  dxz             0.0       0.1       1.5       3.3       0.3       0.1
 7 N  dyz             0.0       2.1       1.2       0.9       0.0       0.0
 7 N  dx2y2           0.0       1.5       6.0       2.0       0.0       0.1
 7 N  dxy             0.3       0.1       0.6       0.1       0.0       2.8
 8 O  s               0.0       0.0       0.4       0.0       0.0       0.1
 8 O  pz              0.2      29.1       0.1       0.1       0.7       6.8
 8 O  px              0.1       1.3      13.8      17.2       0.2      18.0
 8 O  py              0.0      12.3       0.2      10.2       0.3      10.5
 8 O  dz2             0.0       0.3       0.0       0.0       0.0       0.0
 8 O  dyz             0.0       0.0       0.1       0.0       0.0       0.3
 8 O  dx2y2           0.0       0.1       0.0       0.0       0.0       0.3
 9 O  s               0.1       0.0       0.1       0.3       0.0       0.1
 9 O  pz              0.6      28.7       0.0       0.2       0.1       8.8
 9 O  px              0.2       0.1      40.1       1.3       0.2      22.8
[...]
 9 O  dx2y2           0.0       0.3       0.4       8.6       1.7       0.2
 9 O  dxy             0.0       0.0       0.8       4.8       4.4       0.2
10 H  s               0.8       2.2       0.2       0.1       0.0       0.0
10 H  pz              0.7       3.2       0.4       0.1       0.0       0.0
10 H  px              0.4       0.7       0.0       0.0       0.0       0.0
10 H  py              1.0       0.6       0.2       0.2       0.0       0.0
11 H  s               0.1       7.4       0.6       0.8       0.0       0.1
11 H  pz              0.0       2.3       0.0       0.2       0.0       0.0
11 H  px              0.2      16.6       1.7       2.1       0.0       0.1
11 H  py              0.0       0.3       0.0       0.1       0.0       0.0
12 H  s               0.3       1.3       0.3       0.0       0.0       0.0
12 H  pz              0.4       2.7       0.6       0.0       0.0       0.0
12 H  px              0.0       0.5       0.0       0.0       0.0       0.0
12 H  py              0.2       0.1       0.1       0.0       0.0       0.0
13 H  s               4.4       0.1       0.2       0.0       0.5       1.7
13 H  pz              0.1       0.0       0.0       0.0       0.0       0.0
13 H  px              3.0       0.2       0.3       0.0       0.5       0.8
13 H  py              9.8       0.1       0.3       0.1       0.7       2.4
14 H  s               0.7       0.1       0.4       0.1       1.2       2.2
14 H  px              1.9       0.2       1.0       0.4       2.8       4.1
14 H  py              0.1       0.0       0.0       0.1       0.0       0.0
15 H  s               1.1       0.0       0.1       0.6       1.1       2.5
15 H  px              0.3       0.0       0.1       0.6       0.9       1.0
15 H  py              3.1       0.0       0.1       1.0       1.8       3.5
16 H  s               4.4       0.1       0.2       0.1       0.2       2.2
16 H  pz              0.1       0.0       0.0       0.0       0.0       0.0
16 H  px              3.3       0.3       0.5       0.5       0.1       1.0
16 H  py             10.4       0.1       0.2       0.0       0.4       3.3

                    228       229       230       231       232       233   
                   4.79338   4.85692  21.44521  21.88920  22.01882  22.04253
                   0.00000   0.00000   0.00000   0.00000   0.00000   0.00000
                  --------  --------  --------  --------  --------  --------
 0 C  s               0.0       0.0       0.1      15.3      12.5      60.9
 1 C  s               0.0       0.0      18.0      39.3      10.3       0.1
 2 C  s               0.0       0.0      21.8       8.4       7.1       8.8
 3 C  s               0.0       0.0      20.1       5.6      32.8       6.2
 4 C  s               0.0       0.0      19.5      19.5       0.0      12.6
 5 C  s               0.0       0.1      13.7      11.0      18.5       9.0
 6 C  s               0.1       0.0       6.3       0.1      18.1       1.9
 6 C  px              0.1       0.0       0.0       0.0       0.0       0.0
 6 C  py              0.0       0.1       0.0       0.2       0.0       0.0
 6 C  dyz             0.1       0.0       0.0       0.0       0.0       0.0
 6 C  dx2y2           0.2       0.0       0.0       0.0       0.0       0.0
 7 N  s               9.3       0.0       0.2       0.0       0.1       0.0
 7 N  pz              0.0       5.9       0.0       0.0       0.0       0.0
 7 N  px              5.1       0.2       0.0       0.0       0.0       0.0
 7 N  py              0.2      13.2       0.0       0.0       0.0       0.0
 7 N  dz2             0.4       0.0       0.0       0.0       0.0       0.0
 7 N  dxz             0.1       6.9       0.0       0.0       0.0       0.0
 7 N  dyz            12.2       0.0       0.0       0.0       0.0       0.0
 7 N  dx2y2           2.4       0.5       0.0       0.0       0.0       0.0
 7 N  dxy             0.0      12.9       0.0       0.0       0.0       0.0
 8 O  s               9.8       8.0       0.0       0.0       0.0       0.0
 8 O  pz              2.4       2.3       0.0       0.0       0.0       0.0
 8 O  px              3.0       2.8       0.0       0.0       0.0       0.0
 8 O  py              4.4       3.8       0.0       0.0       0.0       0.0
 8 O  dz2             0.4       0.1       0.0       0.0       0.0       0.0
 8 O  dxz             2.9       3.7       0.0       0.0       0.0       0.0
 8 O  dyz             4.4       4.3       0.0       0.0       0.0       0.0
 8 O  dx2y2           0.0       0.5       0.0       0.0       0.0       0.0
 8 O  dxy             4.7       7.0       0.0       0.0       0.0       0.0
 9 O  s              11.1       6.5       0.0       0.0       0.0       0.0
 9 O  pz              2.8       1.9       0.0       0.0       0.0       0.0
 9 O  px              1.9       1.2       0.0       0.0       0.0       0.0
 9 O  py              6.5       4.3       0.0       0.0       0.0       0.0
 9 O  dz2             0.5       0.0       0.0       0.0       0.0       0.0
 9 O  dxz             1.7       1.8       0.0       0.0       0.0       0.0
 9 O  dyz             6.9       4.9       0.0       0.0       0.0       0.0
 9 O  dx2y2           1.5       2.9       0.0       0.0       0.0       0.0
 9 O  dxy             4.2       3.9       0.0       0.0       0.0       0.0

                    234       235       236       237       238       239   
                  22.16400  22.22106  22.31416  31.91843  43.84337  43.96142
                   0.00000   0.00000   0.00000   0.00000   0.00000   0.00000
                  --------  --------  --------  --------  --------  --------
 0 C  s               1.7       7.9       0.9       0.0       0.0       0.0
 1 C  s              17.8       1.9      12.2       0.0       0.0       0.0
 2 C  s              29.3      11.8      12.4       0.0       0.0       0.0
 3 C  s               2.8      19.3      12.9       0.0       0.0       0.0
 4 C  s              19.6      14.1      14.2       0.0       0.0       0.0
 5 C  s              28.4       0.1      18.7       0.0       0.0       0.0
 6 C  s               0.0      44.1      28.3       0.0       0.0       0.0
 6 C  px              0.0       0.1       0.0       0.0       0.0       0.0
 7 N  s               0.0       0.2       0.0      99.5       0.2       0.0
 8 O  s               0.0       0.0       0.0       0.1      41.2      58.6
 9 O  s               0.0       0.0       0.0       0.1      58.5      41.3



                      *****************************
                      * MAYER POPULATION ANALYSIS *
                      *****************************

  NA   - Mulliken gross atomic population
  ZA   - Total nuclear charge
  QA   - Mulliken gross atomic charge
  VA   - Mayer's total valence
  BVA  - Mayer's bonded valence
  FA   - Mayer's free valence

  ATOM       NA         ZA         QA         VA         BVA        FA
  0 C      6.5733     6.0000    -0.5733     3.7798     3.7798    -0.0000
  1 C      5.9594     6.0000     0.0406     3.5144     3.5144     0.0000
  2 C      6.1734     6.0000    -0.1734     3.7737     3.7737     0.0000
  3 C      6.1187     6.0000    -0.1187     3.8350     3.8350     0.0000
  4 C      6.1405     6.0000    -0.1405     3.7391     3.7391     0.0000
  5 C      6.2093     6.0000    -0.2093     3.7721     3.7721     0.0000
  6 C      5.8997     6.0000     0.1003     3.9330     3.9330     0.0000
  7 N      6.6486     7.0000     0.3514     4.6261     4.6261     0.0000
  8 O      8.2365     8.0000    -0.2365     2.2362     2.2362     0.0000
  9 O      8.2137     8.0000    -0.2137     2.2313     2.2313     0.0000
 10 H      0.8452     1.0000     0.1548     0.9622     0.9622    -0.0000
 11 H      0.7960     1.0000     0.2040     0.9534     0.9534     0.0000
 12 H      0.8219     1.0000     0.1781     0.9541     0.9541    -0.0000
 13 H      0.8472     1.0000     0.1528     0.9679     0.9679     0.0000
 14 H      0.8489     1.0000     0.1511     0.9663     0.9663     0.0000
 15 H      0.8461     1.0000     0.1539     0.9667     0.9667    -0.0000
 16 H      0.8217     1.0000     0.1783     0.9580     0.9580    -0.0000

  Mayer bond orders larger than 0.100000
B(  0-C ,  1-C ) :   0.8200 B(  0-C , 10-H ) :   0.9831 B(  0-C , 11-H ) :   0.9624 
B(  0-C , 12-H ) :   0.9671 B(  1-C ,  2-C ) :   1.3149 B(  1-C ,  6-C ) :   1.4420 
B(  2-C ,  3-C ) :   1.4392 B(  2-C , 13-H ) :   0.9421 B(  3-C ,  4-C ) :   1.3675 
B(  3-C , 14-H ) :   0.9469 B(  4-C ,  5-C ) :   1.3620 B(  4-C , 15-H ) :   0.9537 
B(  5-C ,  6-C ) :   1.3451 B(  5-C , 16-H ) :   0.9430 B(  6-C ,  7-N ) :   0.9600 
B(  7-N ,  8-O ) :   1.8060 B(  7-N ,  9-O ) :   1.8287 B(  8-O ,  9-O ) :   0.2480 


-------
TIMINGS
-------

Total SCF time: 0 days 0 hours 0 min 34 sec 

Total time                  ....      34.680 sec
Sum of individual times     ....      34.020 sec  ( 98.1%)

SCF preparation             ....       0.185 sec  (  0.5%)
Fock matrix formation       ....      32.711 sec  ( 94.3%)
  Startup                   ....       0.269 sec  (  0.8% of F)
  Split-RI-J                ....       7.043 sec  ( 21.5% of F)
  XC integration            ....      24.708 sec  ( 75.5% of F)
    Basis function eval.    ....       3.990 sec  ( 16.1% of XC)
    Density eval.           ....       8.037 sec  ( 32.5% of XC)
    XC-Functional eval.     ....       2.507 sec  ( 10.1% of XC)
    XC-Potential eval.      ....       8.623 sec  ( 34.9% of XC)
Diagonalization             ....       0.000 sec  (  0.0%)
Density matrix formation    ....       0.288 sec  (  0.8%)
Total Energy calculation    ....       0.041 sec  (  0.1%)
Population analysis         ....       0.125 sec  (  0.4%)
Orbital Transformation      ....       0.061 sec  (  0.2%)
Orbital Orthonormalization  ....       0.000 sec  (  0.0%)
DIIS solution               ....       0.430 sec  (  1.2%)
  MO trafo                  ....       0.000 sec  (  0.0 % of DIIS)
  Orb grad                  ....       0.000 sec  (  0.0 % of DIIS)
  Energy W gradient         ....       0.000 sec  (  0.0 % of DIIS)
  DIIS error                ....       0.018 sec  (  4.1 % of DIIS)
  DIIS work                 ....       0.361 sec  ( 84.0 % of DIIS)
  Form Q                    ....       0.000 sec  (  0.0 % of DIIS)
  Form QpQm                 ....       0.000 sec  (  0.0 % of DIIS)
  Exp/Cayley                ....       0.000 sec  (  0.0 % of DIIS)
  Orb update                ....       0.000 sec  (  0.0 % of DIIS)
  Wake-sleep                ....       0.020 sec  (  4.6 % of DIIS)
SOSCF solution              ....       0.179 sec  (  0.5%)
  MO trafo                  ....       0.068 sec  ( 38.2 % of SOSCF)
  Orb grad                  ....       0.002 sec  (  1.4 % of SOSCF)
  Rot update                ....       0.057 sec  ( 32.1 % of SOSCF)
  Step                      ....       0.051 sec  ( 28.2 % of SOSCF)
Finished LeanSCF after  34.7 sec

Maximum memory used throughout the entire LEANSCF-calculation: 26.2 MB


-------------------------------------------------------------------------------
                          DFT DISPERSION CORRECTION                            
                                                                               
                                DFTD4 V3.4.0                                   
-------------------------------------------------------------------------------
The R2SCAN3C composite method is recognized
Using three-body term ABC
Active option DFTDOPT                   ...         5   

-------------------------   ----------------
Dispersion correction           -0.006015628
-------------------------   ----------------

------------------   -----------------
gCP correction             0.011148962
------------------   -----------------

-------------------------   --------------------
FINAL SINGLE POINT ENERGY      -475.967932222095
-------------------------   --------------------


------------------------------------------------------------------------------
                              ORCA PROPERTY CALCULATIONS
------------------------------------------------------------------------------

GBWName                                 ... sp_gas.gbw
Number of atoms                         ...     17
Number of basis functions               ...    240
Max core memory                         ...   1024 MB

Electric properties:
Dipole moment                           ... YES
Quadrupole moment                       ...  NO
Static polarizability (Dipole/Dipole)   ...  NO
Static polarizability (Dipole/Quad.)    ...  NO
Static polarizability (Quad./Quad.)     ...  NO
Static polarizability (Velocity)        ...  NO

Atomic electric properties:
Dipole moment                           ...  NO
Quadrupole moment                       ...  NO
Static polarizability                   ...  NO

Choice of electric origin               ... Center of mass
Position of electric origin             ...     0.000028    -0.000010     0.000000

General magnetic properties:
Magnetizability                         ...  NO

EPR properties:
g-Tensor (aka g-matrix)                 ...  NO
Zero-Field splitting spin-orbit         ...  NO
Zero-field splitting spin-spin          ...  NO
Hyperfine couplings                     ...  NO (   0 nuclei)
Quadrupole couplings                    ...  NO (   0 nuclei)
Contact density                         ...  NO (   0 nuclei)

NMR properties:
Chemical shifts                         ...  NO (   0 nuclei)
Spin-rotation constants                 ...  NO (   0 nuclei)
Spin-spin couplings                     ...  NO (   0 nuclei,    0 pairs)

Choice of magnetic origin               ... GIAO
Position of magnetic origin             ...     0.000000     0.000000     0.000000

Properties with geometric perturbations:
SCF Hessian                             ...  NO
IR spectrum                             ...  NO
VCD spectrum                            ...  NO
X-ray spectroscopy properties:
SCF XES/XAS/RIXS spectra                ...  NO


-------------
DIPOLE MOMENT
-------------

Method             : SCF
Type of density    : Electron Density
Multiplicity       :   1
Irrep              :   0
Energy             :  -475.9730655563289474 Eh
Relativity type    : 
Basis              : AO
                                X                 Y                 Z
Electronic contribution:     -5.307293415       4.380175851      -0.229890961
Nuclear contribution   :      7.021029562      -4.728208918       0.227942955
                        -----------------------------------------
Total Dipole Moment    :      1.713736147      -0.348033067      -0.001948006
                        -----------------------------------------
Magnitude (a.u.)       :      1.748720216
Magnitude (Debye)      :      4.444893548



--------------------
Rotational spectrum 
--------------------
 
Rotational constants in cm-1:             0.075832             0.042300             0.027964 
Rotational constants in MHz :          2273.392410          1268.122827           838.353876 

Dipole components along the rotational axes: 
x,y,z [a.u.] :     1.720185    -0.311248    -0.045957 
x,y,z [Debye]:     4.372362    -0.791131    -0.116813 

 

Dipole moment calculation done in   0.0 sec 

Maximum memory used throughout the entire PROP-calculation: 16.0 MB

--------------------------------
SUGGESTED CITATIONS FOR THIS RUN
--------------------------------

Below you find a list of papers that are relevant to this ORCA run
We neither can nor want to force you to cite these papers, but we appreciate if you do
You receive ORCA, which is the product of decades of hard work by many enthusiastic individuals, for free
The only thing we kindly ask in return is that you cite our papers,
We deeply appreciate it, if you show your appreciation for ORCA by not just citing the generic ORCA reference.

Please note that relegating all ORCA citations to the supporting information does *not* help us.
SI sections are not indexed - citations you put there will not count into any citation statistics
But we need these citations in order to attract the funding resources that allow us to do what we are doing

Therefore, if you are a happy ORCA user, please consider citing a few of the papers listed below in the main body of your paper

In addition to the list printed below, the program has created the file sp_gas.bibtex that contains the list in bibtex format
You can import this file easily into all common literature databanks and citation aid programs


List of essential papers. We consider these as the minimum necessary citations

  1. Neese,F.
     Software update: the ORCA program system, version 5.0
     WIRES Comput. Molec. Sci., 2022 12(1)e1606
     doi.org/10.1002/wcms.1606
  2. Grimme,S.; Hansen,A.; Ehlert,S.; Mewes,J.
     r2SCAN-3c: A 'Swiss army knife' composite electronic-structure method
     J. Chem. Phys., 2021 154 064103
     doi.org/10.1063/5.0040021

List of papers to cite with high priority. The work reported in these papers was absolutely
necessary for this run to complete.
Our perspective: the developers of density functionals and basis sets usually get cited in chemistry papers
Good! But without the algorithms to do something with them, the functionals or basis sets would not do anything.
Hence, in our opinion, the algorithm design and method developments papers are equally worthy of getting cited

  1. Neese,F.
     An improvement of the resolution of the identity approximation for the formation of the Coulomb matrix
     J. Comp. Chem., 2003 24(14)1740-1747
     doi.org/10.1002/jcc.10318
  2. Neese,F.
     The SHARK Integral Generation and Digestion System
     J. Comp. Chem., 2022  1-16
     doi.org/10.1002/jcc.26942
  3. Lehtola,S.; Steigemann,C.; Oliveira,M.; Marques,M.
     Recent developments in Libxc - A comprehensive library of functionals for density functional theory
     Software X, 2018 7 
     doi.org/10.1016/j.softx.2017.11.002
  4. Caldeweyher,E.; Bannwarth,C.; Grimme,S.
     Extension of the D3 dispersion coefficient model
     J. Chem. Phys., 2017 147 034112-XXXX
     doi.org/10.1063/1.4993215
  5. Caldeweyher,E.; Ehlert,S.; Hansen,A.; Neugebauer,H.; Spicher,S.; Bannwarth,C.; Grimme,S.
     A generally applicable atomic-charge dependent London dispersion correction
     J. Chem. Phys., 2019 150 154122-XXXX
     doi.org/10.1063/1.5090222
  6. Caldeweyher,E.; Mewes,J.; Ehlert,S.; Grimme,S.
     Extension and evaluation of the D4 London-dispersion model for periodic systems
     Phys. Chem. Chem. Phys., 2020 22(16)8499-8512
     doi.org/10.1039/D0CP00502A

List of suggested additional citations. These are papers that are important in the 'surrounding' of 
of this run, or papers that preceded the highly important papers. If you like your results we are grateful for a citation.

  1. Neese,F.
     The ORCA program system
     WIRES Comput. Molec. Sci., 2012 2(1)73-78
     doi.org/10.1002/wcms.81
  2. Neese,F.
     Software update: the ORCA program system, version 4.0
     WIRES Comput. Molec. Sci., 2018 8(1)1-6
     doi.org/10.1002/wcms.1327
  3. Neese,F.; Wennmohs,F.; Becker,U.; Riplinger,C.
     The ORCA quantum chemistry program package
     J. Chem. Phys., 2020 152 Art. No. L224108
     doi.org/10.1063/5.0004608

List of optional additional citations

  1. Neese,F.
     Approximate second-order SCF convergence for spin unrestricted wavefunctions
     Chem. Phys. Lett., 2000 325(1-3)93-98
     doi.org/10.1016/s0009-2614(00)00662-x

Timings for individual modules:

Sum of individual times          ...       36.380 sec (=   0.606 min)
Startup calculation              ...        1.203 sec (=   0.020 min)   3.3 %
SCF iterations                   ...       35.069 sec (=   0.584 min)  96.4 %
Property calculations            ...        0.107 sec (=   0.002 min)   0.3 %
                             ****ORCA TERMINATED NORMALLY****
TOTAL RUN TIME: 0 days 0 hours 0 minutes 37 seconds 66 msec
