      -----------------------------------------------------------      
     |                   =====================                   |     
     |                           x T B                           |     
     |                   =====================                   |     
     |                         S. Grimme                         |     
     |          Mulliken Center for Theoretical Chemistry        |     
     |                    University of Bonn                     |     
      -----------------------------------------------------------      

   * xtb version 6.7.1 (edcfbbe) compiled by 'albert@albert-system' on 2024-07-22

   xtb is free software: you can redistribute it and/or modify it under
   the terms of the GNU Lesser General Public License as published by
   the Free Software Foundation, either version 3 of the License, or
   (at your option) any later version.
   
   xtb is distributed in the hope that it will be useful,
   but WITHOUT ANY WARRANTY; without even the implied warranty of
   MERCHANTABILITY or FITNESS FOR A PARTICULAR PURPOSE.  See the
   GNU Lesser General Public License for more details.
   
   Cite this work as:
   * C. Bannwarth, E. Caldeweyher, S. Ehlert, A. Hansen, P. Pracht,
     J. Seibert, S. Spicher, S. Grimme, WIREs Comput. Mol. Sci., 2020, 11,
     e01493. DOI: 10.1002/wcms.1493
   
   for GFN2-xTB:
   * C. Bannwarth, S. Ehlert and S. Grimme., J. Chem. Theory Comput., 2019,
     15, 1652-1671. DOI: 10.1021/acs.jctc.8b01176
   for GFN1-xTB:
   * S. Grimme, C. Bannwarth, P. Shushkov, J. Chem. Theory Comput., 2017,
     13, 1989-2009. DOI: 10.1021/acs.jctc.7b00118
   for GFN0-xTB:
   * P. Pracht, E. Caldeweyher, S. Ehlert, S. Grimme, ChemRxiv, 2019, preprint.
     DOI: 10.26434/chemrxiv.8326202.v1
   for GFN-FF:
   * S. Spicher and S. Grimme, Angew. Chem. Int. Ed., 2020, 59, 15665-15673.
     DOI: 10.1002/anie.202004239
   
   for ALPB and GBSA implicit solvation:
   * S. Ehlert, M. Stahn, S. Spicher, S. Grimme, J. Chem. Theory Comput.,
     2021, 17, 4250-4261. DOI: 10.1021/acs.jctc.1c00471
   
   for ddCOSMO and CPCM-X implicit solvation:
   * M. Stahn, S. Ehlert, S. Grimme, J. Phys. Chem. A,
     2023, XX, XXXX-XXXX. DOI: 10.1021/acs.jpca.3c04382
   
   for DFT-D4:
   * E. Caldeweyher, C. Bannwarth and S. Grimme, J. Chem. Phys., 2017,
     147, 034112. DOI: 10.1063/1.4993215
   * E. Caldeweyher, S. Ehlert, A. Hansen, H. Neugebauer, S. Spicher,
     C. Bannwarth and S. Grimme, J. Chem. Phys., 2019, 150, 154122.
     DOI: 10.1063/1.5090222
   * E. Caldeweyher, J.-M. Mewes, S. Ehlert and S. Grimme, Phys. Chem. Chem. Phys.
     2020, 22, 8499-8512. DOI: 10.1039/D0CP00502A
   
   for sTDA-xTB:
   * S. Grimme and C. Bannwarth, J. Chem. Phys., 2016, 145, 054103.
     DOI: 10.1063/1.4959605
   
   in the mass-spec context:
   * V. Asgeirsson, C. Bauer and S. Grimme, Chem. Sci., 2017, 8, 4879.
     DOI: 10.1039/c7sc00601b
   * J. Koopman and S. Grimme, ACS Omega 2019, 4, 12, 15120-15133.
     DOI: 10.1021/acsomega.9b02011
   
   for metadynamics refer to:
   * S. Grimme, J. Chem. Theory Comput., 2019, 155, 2847-2862
     DOI: 10.1021/acs.jctc.9b00143
   
   for SPH calculations refer to:
   * S. Spicher and S. Grimme, J. Chem. Theory Comput., 2021, 17, 1701-1714
     DOI: 10.1021/acs.jctc.0c01306
   
   for ONIOM refer to:
   * C. Plett, A. Katbashev, S. Ehlert, S. Grimme, M. Bursch,
     Phys. Chem. Chem. Phys., 2023, 25, 17860-17868. DOI: 10.1039/D3CP02178E
   
   for DIPRO refer to:
   * J. Kohn, N. Gildemeister, S. Grimme, D. Fazzi, A. Hansen,
     J. Chem. Phys., 2023, just accepted.
   
   for PTB refer to:
   * S. Grimme, M. Mueller, A. Hansen, J. Chem. Phys., 2023, 158, 124111.
     DOI: 10.1063/5.0137838
   
   with help from (in alphabetical order)
   P. Atkinson, C. Bannwarth, F. Bohle, G. Brandenburg, E. Caldeweyher
   M. Checinski, S. Dohm, S. Ehlert, S. Ehrlich, I. Gerasimov, C. Hölzer
   A. Katbashev, J. Kohn, J. Koopman, C. Lavigne, S. Lehtola, F. März, M. Müller,
   F. Musil, H. Neugebauer, J. Pisarek, C. Plett, P. Pracht, F. Pultar,
   J. Seibert, P. Shushkov, S. Spicher, M. Stahn, M. Steiner, T. Strunk,
   J. Stückrath, T. Rose, and J. Unsleber
   
 * started run on 2025/04/04 at 19:18:39.813     
   ID    Z sym.   atoms
    1    6 C      1-7
    2    8 O      8, 9
    3    1 H      10-15

           -------------------------------------------------
          |                Calculation Setup                |
           -------------------------------------------------

          program call               : /srv/scratch/z5358697/.xtb/bin/xtb gas.coord --gfn2 --sp --chrg 0 --norestart --parallel 1
          hostname                   : k139
          coordinate file            : gas.coord
          omp threads                :                     1


           -------------------------------------------------
          |                 G F N 2 - x T B                 |
           -------------------------------------------------

        Reference                      10.1021/acs.jctc.8b01176
      * Hamiltonian:
        H0-scaling (s, p, d)           1.850000    2.230000    2.230000
        zeta-weighting                 0.500000
      * Dispersion:
        s8                             2.700000
        a1                             0.520000
        a2                             5.000000
        s9                             5.000000
      * Repulsion:
        kExp                           1.500000    1.000000
        rExp                           1.000000
      * Coulomb:
        alpha                          2.000000
        third order                    shell-resolved
        anisotropic                    true
        a3                             3.000000
        a5                             4.000000
        cn-shift                       1.200000
        cn-exp                         4.000000
        max-rad                        5.000000


          ...................................................
          :                      SETUP                      :
          :.................................................:
          :  # basis functions                  42          :
          :  # atomic orbitals                  42          :
          :  # shells                           24          :
          :  # electrons                        46          :
          :  max. iterations                   250          :
          :  Hamiltonian                  GFN2-xTB          :
          :  restarted?                      false          :
          :  GBSA solvation                  false          :
          :  PC potential                    false          :
          :  electronic temp.          300.0000000     K    :
          :  accuracy                    1.0000000          :
          :  -> integral cutoff          0.2500000E+02      :
          :  -> integral neglect         0.1000000E-07      :
          :  -> SCF convergence          0.1000000E-05 Eh   :
          :  -> wf. convergence          0.1000000E-03 e    :
          :  Broyden damping             0.4000000          :
          :  net charge                          0          :
          :  unpaired electrons                  0          :
          ...................................................

 iter      E             dE          RMSdq      gap      omega  full diag
   1    -26.4755857 -0.264756E+02  0.546E+00    3.16       0.0  T
   2    -26.5072040 -0.316183E-01  0.299E+00    2.62       1.0  T
   3    -26.5054708  0.173310E-02  0.164E+00    2.94       1.0  T
   4    -26.5133948 -0.792394E-02  0.253E-01    2.75       1.0  T
   5    -26.5137325 -0.337682E-03  0.991E-02    2.76       1.0  T
   6    -26.5137767 -0.442031E-04  0.410E-02    2.77       1.0  T
   7    -26.5137805 -0.385797E-05  0.148E-02    2.77       1.7  T
   8    -26.5137809 -0.402439E-06  0.619E-03    2.77       4.2  T
   9    -26.5137813 -0.387086E-06  0.233E-03    2.77      11.1  T
  10    -26.5137813 -0.473310E-08  0.822E-04    2.77      31.4  T
  11    -26.5137813 -0.607794E-08  0.297E-04    2.77      86.8  T

   *** convergence criteria satisfied after 11 iterations ***

         #    Occupation            Energy/Eh            Energy/eV
      -------------------------------------------------------------
         1        2.0000           -0.7268321             -19.7781
       ...           ...                  ...                  ...
        17        2.0000           -0.4880513             -13.2806
        18        2.0000           -0.4789516             -13.0329
        19        2.0000           -0.4560622             -12.4101
        20        2.0000           -0.4495986             -12.2342
        21        2.0000           -0.4261713             -11.5967
        22        2.0000           -0.4024077             -10.9501
        23        2.0000           -0.3884283             -10.5697 (HOMO)
        24                         -0.2867831              -7.8038 (LUMO)
        25                         -0.2349546              -6.3934
        26                         -0.2002522              -5.4491
        27                         -0.0973664              -2.6495
        28                          0.0513968               1.3986
       ...                                ...                  ...
        42                          0.6657575              18.1162
      -------------------------------------------------------------
                  HL-Gap            0.1016452 Eh            2.7659 eV
             Fermi-level           -0.3376057 Eh           -9.1867 eV

 SCC (total)                   0 d,  0 h,  0 min,  0.011 sec
 SCC setup                      ...        0 min,  0.000 sec (  1.253%)
 Dispersion                     ...        0 min,  0.000 sec (  0.622%)
 classical contributions        ...        0 min,  0.000 sec (  0.120%)
 integral evaluation            ...        0 min,  0.003 sec ( 23.446%)
 iterations                     ...        0 min,  0.005 sec ( 45.403%)
 molecular gradient             ...        0 min,  0.003 sec ( 28.063%)
 printout                       ...        0 min,  0.000 sec (  0.978%)

         :::::::::::::::::::::::::::::::::::::::::::::::::::::
         ::                     SUMMARY                     ::
         :::::::::::::::::::::::::::::::::::::::::::::::::::::
         :: total energy             -26.141763978481 Eh    ::
         :: gradient norm              0.029792428428 Eh/a0 ::
         :: HOMO-LUMO gap              2.765905665061 eV    ::
         ::.................................................::
         :: SCC energy               -26.513754363449 Eh    ::
         :: -> isotropic ES            0.041960418301 Eh    ::
         :: -> anisotropic ES          0.004614378187 Eh    ::
         :: -> anisotropic XC          0.007756121331 Eh    ::
         :: -> dispersion             -0.012026464025 Eh    ::
         :: repulsion energy           0.371990384969 Eh    ::
         :: add. restraining           0.000000000000 Eh    ::
         :: total charge              -0.000000000000 e     ::
         :::::::::::::::::::::::::::::::::::::::::::::::::::::

           -------------------------------------------------
          |                Property Printout                |
           -------------------------------------------------

    * Orbital Energies and Occupations

         #    Occupation            Energy/Eh            Energy/eV
      -------------------------------------------------------------
         1        2.0000           -0.7268321             -19.7781
       ...           ...                  ...                  ...
        11        2.0000           -0.5462536             -14.8643
        12        2.0000           -0.5458384             -14.8530
        13        2.0000           -0.5181467             -14.0995
        14        2.0000           -0.5165241             -14.0553
        15        2.0000           -0.5113019             -13.9132
        16        2.0000           -0.5032319             -13.6936
        17        2.0000           -0.4880513             -13.2806
        18        2.0000           -0.4789516             -13.0329
        19        2.0000           -0.4560622             -12.4101
        20        2.0000           -0.4495986             -12.2342
        21        2.0000           -0.4261713             -11.5967
        22        2.0000           -0.4024077             -10.9501
        23        2.0000           -0.3884283             -10.5697 (HOMO)
        24                         -0.2867831              -7.8038 (LUMO)
        25                         -0.2349546              -6.3934
        26                         -0.2002522              -5.4491
        27                         -0.0973664              -2.6495
        28                          0.0513968               1.3986
        29                          0.0971437               2.6434
        30                          0.1091600               2.9704
        31                          0.1405931               3.8257
        32                          0.1652117               4.4956
        33                          0.1760798               4.7914
        34                          0.1984506               5.4001
       ...                                ...                  ...
        42                          0.6657575              18.1162
      -------------------------------------------------------------
                  HL-Gap            0.1016452 Eh            2.7659 eV
             Fermi-level           -0.3376057 Eh           -9.1867 eV

     #   Z          covCN         q      C6AA      α(0)
     1   6 C        2.915    -0.039    28.969     8.826
     2   6 C        2.920    -0.021    28.520     8.757
     3   6 C        2.915    -0.071    29.759     8.945
     4   6 C        2.844     0.166    24.418     8.098
     5   6 C        2.966    -0.032    28.784     8.800
     6   6 C        2.925    -0.027    28.683     8.783
     7   6 C        2.768     0.208    23.589     7.954
     8   8 O        0.856    -0.333    20.388     6.054
     9   8 O        1.659    -0.342    19.763     6.001
    10   1 H        0.926     0.044     2.396     2.420
    11   1 H        0.926     0.046     2.374     2.409
    12   1 H        0.926     0.037     2.492     2.468
    13   1 H        0.926     0.048     2.351     2.398
    14   1 H        0.922     0.010     2.897     2.662
    15   1 H        0.804     0.307     0.702     1.316

 Mol. C6AA /au·bohr⁶  :       2945.641371
 Mol. C8AA /au·bohr⁸  :      71524.683570
 Mol. α(0) /au        :         85.893095


Wiberg/Mayer (AO) data.
largest (>0.10) Wiberg bond orders for each atom

 ---------------------------------------------------------------------------
     #   Z sym  total        # sym  WBO       # sym  WBO       # sym  WBO
 ---------------------------------------------------------------------------
     1   6 C    3.992 --     6 C    1.476     2 C    1.400    10 H    0.970
     2   6 C    3.991 --     3 C    1.466     1 C    1.400    11 H    0.971
     3   6 C    3.987 --     2 C    1.466     4 C    1.356    12 H    0.965
                             6 C    0.103
     4   6 C    3.942 --     3 C    1.356     5 C    1.289     9 O    1.130
     5   6 C    3.986 --     6 C    1.363     4 C    1.289     7 C    1.089
     6   6 C    3.990 --     1 C    1.476     5 C    1.363    13 H    0.966
                             3 C    0.103
     7   6 C    3.937 --     8 O    1.853     5 C    1.089    14 H    0.930
     8   8 O    2.077 --     7 C    1.853
     9   8 O    2.198 --     4 C    1.130    15 H    0.882
    10   1 H    0.998 --     1 C    0.970
    11   1 H    0.998 --     2 C    0.971
    12   1 H    0.998 --     3 C    0.965
    13   1 H    0.998 --     6 C    0.966
    14   1 H    0.999 --     7 C    0.930
    15   1 H    0.906 --     9 O    0.882
 ---------------------------------------------------------------------------

Topologies differ in total number of bonds
Writing topology from bond orders to xtbtopo.mol

molecular dipole:
                 x           y           z       tot (Debye)
 q only:        1.508       0.325      -0.000
   full:        1.802       0.374      -0.000       4.676
molecular quadrupole (traceless):
                xx          xy          yy          xz          yz          zz
 q only:       -8.597       0.063       9.338       0.001      -0.003      -0.741
  q+dip:      -10.500       2.088      14.159       0.002      -0.004      -3.659
   full:      -11.979       1.755      12.475       0.001      -0.004      -0.496


           -------------------------------------------------
          | TOTAL ENERGY              -26.141763978481 Eh   |
          | GRADIENT NORM               0.029792428428 Eh/α |
          | HOMO-LUMO GAP               2.765905665061 eV   |
           -------------------------------------------------

------------------------------------------------------------------------
 * finished run on 2025/04/04 at 19:18:39.848     
------------------------------------------------------------------------
 total:
 * wall-time:     0 d,  0 h,  0 min,  0.035 sec
 *  cpu-time:     0 d,  0 h,  0 min,  0.017 sec
 * ratio c/w:     0.498 speedup
 SCF:
 * wall-time:     0 d,  0 h,  0 min,  0.011 sec
 *  cpu-time:     0 d,  0 h,  0 min,  0.011 sec
 * ratio c/w:     0.991 speedup

