7
 energy: -116.613642833870 gnorm: 0.024118319652 xtb: 6.7.1 (edcfbbe)
C            1.29026165947175        0.00004379630002        0.00002127370001
C           -0.15490039246864       -0.00014991920007       -0.00008607280004
C           -1.35176158809900        0.00006485340003        0.00004725060002
H            1.65984930523552       -0.95886745542490       -0.35974389115941
H            1.65949867833537        0.79127060315063       -0.65046979958824
H            1.65945316743535        0.16799558957444        1.01044749464776
H           -2.40015046636357        0.00009303440004       -0.00002469440001
7
 energy: -116.614255522345 gnorm: 0.006396357949 xtb: 6.7.1 (edcfbbe)
C            1.29155063227460        0.00006061033519        0.00002063393427
C           -0.15728683558688       -0.00004096844761       -0.00016942881151
C           -1.36521418667885        0.00010205187252        0.00000790410224
H            1.67432489175280       -0.95838058182666       -0.35955584366989
H            1.67410850632203        0.79084673028584       -0.65017503743532
H            1.67395628679071        0.16787532497281        1.01000775466500
H           -2.42918892365166       -0.00001267872984        0.00005555938479
7
 energy: -116.614277200883 gnorm: 0.000706399135 xtb: 6.7.1 (edcfbbe)
C            1.28987987848351        0.00007089132272        0.00000689185351
C           -0.15955077461745       -0.00006341553674       -0.00009722062092
C           -1.36644889960962        0.00004634814549        0.00005293567599
H            1.67745934930428       -0.95805887368662       -0.35945187562779
H            1.67725466059509        0.79059493357523       -0.64997994059409
H            1.67711204544541        0.16782625218003        1.00967326079910
H           -2.43345588628691        0.00003434831607       -0.00001250755925
7
 energy: -116.614278100828 gnorm: 0.000181322118 xtb: 6.7.1 (edcfbbe)
C            1.28929650455353        0.00006612902315        0.00000767189351
C           -0.15980391048579        0.00002786711158       -0.00015896616936
C           -1.36673816478299        0.00014707640750       -0.00004438506727
H            1.67783812595732       -0.95800110425873       -0.35940971193254
H            1.67772155720729        0.79050991234516       -0.64990526109307
H            1.67749665779677        0.16779878186486        1.00960234181178
H           -2.43356039710940       -0.00009817428384        0.00009984566903
7
 energy: -116.614278100828 gnorm: 0.000181322118 xtb: 6.7.1 (edcfbbe)
C            1.28929650455353        0.00006612902315        0.00000767189351
C           -0.15980391048579        0.00002786711158       -0.00015896616936
C           -1.36673816478299        0.00014707640750       -0.00004438506727
H            1.67783812595732       -0.95800110425873       -0.35940971193254
H            1.67772155720729        0.79050991234516       -0.64990526109307
H            1.67749665779677        0.16779878186486        1.00960234181178
H           -2.43356039710940       -0.00009817428384        0.00009984566903
