27
 energy: -465.763102773524 gnorm: 0.002207753381 xtb: 6.7.1 (edcfbbe)
C           -2.67794201767852        0.50948786830152        1.24961895413380
C           -1.48566241684323        0.45214133024654        0.34137560743282
C           -0.87500108218154        1.55346190373647       -0.11414007249601
C            0.36065969716053        1.57050800793964       -0.96641808861047
C            1.09164694274079        0.21931637562485       -1.01212766699498
H            1.69315447011369        0.18488898633595       -1.92681285604335
C            0.03881274354209       -0.89834466373134       -1.13570249028860
C           -0.93757070166368       -0.91818220620820        0.03292401185507
H           -0.43667779054587       -1.30551227891363        0.93699368578822
O           -2.05674205503787       -1.79147898615533       -0.26080201117255
C            2.05336522981051       -0.01734766941451        0.14580535897726
C            3.15459295358219       -0.74921325398656       -0.05485859238400
C            1.75952679890133        0.56965747807264        1.49668961646839
H           -2.93792576391524        1.54399232303543        1.48995508631793
H           -2.47155586816706       -0.02251780407632        2.18691706948549
H           -3.55503214515138        0.02915041661884        0.80486711128971
H           -1.28863609660975        2.52495692647312        0.15728678353784
H            0.08426224122621        1.85639630556913       -1.99223043307965
H            1.03515506250819        2.36326531331218       -0.61858541627093
H           -0.53886086737423       -0.72800022749069       -2.05416708564211
H            0.53187869458636       -1.87334124333630       -1.22387640604725
H           -1.68998268895596       -2.67291695647881       -0.40932432520054
H            3.85079956319319       -0.96212661298628        0.75257629760848
H            3.38924430695316       -1.15699800234791       -1.03462275769035
H            2.55303852703618        0.31698700402363        2.20687569468572
H            1.68224728473815        1.66148089460916        1.44058302112631
H            0.80695536078455        0.21533725968172        1.90336374107669
27
 energy: -465.763117562665 gnorm: 0.000812033579 xtb: 6.7.1 (edcfbbe)
C           -2.67952923559611        0.51011650693139        1.24794494952583
C           -1.48646865815202        0.45250984934485        0.34095107575276
C           -0.87426464661685        1.55330323217534       -0.11305680281078
C            0.36069003081748        1.57002070209605       -0.96562268435974
C            1.09139047965257        0.21872171718188       -1.01129520529088
H            1.69296081280224        0.18418539255565       -1.92600290912747
C            0.03854947298506       -0.89875307060712       -1.13463747964841
C           -0.93856338560177       -0.91774572359050        0.03305922602058
H           -0.43813682213415       -1.30391702662437        0.93756473084514
O           -2.05702786624356       -1.79241850071787       -0.26051931914239
C            2.05394306454721       -0.01703807782378        0.14610180104043
C            3.15700820529151       -0.74618451214248       -0.05749189580491
C            1.76045715996802        0.56967606649131        1.49788928641847
H           -2.93676766335844        1.54485296548133        1.49007172322445
H           -2.47502750464691       -0.02507414939125        2.18457660573810
H           -3.55704982930846        0.03219854248857        0.80020221619851
H           -1.28686031567040        2.52476121814330        0.15934914682111
H            0.08342640660069        1.85430291839792       -1.99118948533141
H            1.03524469895828        2.36267938085890       -0.61897450519561
H           -0.53858855013320       -0.72774894697133       -2.05299549371819
H            0.53080962855909       -1.87399876990519       -1.22277603136809
H           -1.68854427767921       -2.67342014452280       -0.40833957885486
H            3.85200130523209       -0.96131613295529        0.75019991751677
H            3.38854817695271       -1.15846939830512       -1.03695467635435
H            2.55563207331124        0.31992479698716        2.20566311710839
H            1.68032997470031        1.66147060305520        1.44250306657627
H            0.80958734238649        0.21240978062543        1.90594511441290
27
 energy: -465.763130392746 gnorm: 0.001989988946 xtb: 6.7.1 (edcfbbe)
C           -2.68449171136001        0.51196407499256        1.24309451920129
C           -1.48851036337126        0.45343091460034        0.34028189616233
C           -0.87230028562003        1.55311299672696       -0.10999893854079
C            0.36084590466452        1.56857065906828       -0.96392443766200
C            1.09062234753130        0.21676618569907       -1.00916958267815
H            1.69184841383630        0.18125363443462       -1.92411984375431
C            0.03716596694183       -0.89972950202571       -1.13191482507488
C           -0.94085246109315       -0.91675760758637        0.03432072418722
H           -0.44191143412732       -1.30038380765829        0.94026566168771
O           -2.05817949931776       -1.79404085199792       -0.25891924540960
C            2.05524551581540       -0.01779516297891        0.14674528543988
C            3.15961171878031       -0.74484383203655       -0.06167390500682
C            1.76403015569138        0.56850128359673        1.50039862625273
H           -2.93517012524777        1.54686689606971        1.49100878141395
H           -2.48697889228632       -0.03210267053550        2.17721608619576
H           -3.56313193409342        0.04203289718332        0.78714630932917
H           -1.28226318094644        2.52465044924421        0.16510226423926
H            0.08106563022199        1.84928160690113       -1.98908291988219
H            1.03620792759549        2.36104671489458       -0.62060795975000
H           -0.53870556182886       -0.72775418635057       -2.05041975496076
H            0.52762408389935       -1.87570835964373       -1.21947609148554
H           -1.68616866375144       -2.67409905756389       -0.40520400543502
H            3.85890514173647       -0.95425695255626        0.74357032129236
H            3.39148023644475       -1.15435859425174       -1.04329672809268
H            2.56413480032940        0.32570938585369        2.20290107867761
H            1.67595488544267        1.65996049970828        1.44554904820810
H            0.81767035606597        0.20373435254604        1.91237961467031
27
 energy: -465.763142675339 gnorm: 0.001343924034 xtb: 6.7.1 (edcfbbe)
C           -2.68826383791555        0.51323319610615        1.24013580573249
C           -1.48947443121118        0.45385692791056        0.34103196724290
C           -0.87141311642331        1.55332475728796       -0.10782579626262
C            0.36107048078697        1.56755035486910       -0.96290052765319
C            1.09071666026755        0.21562321751118       -1.00825032154707
H            1.69057756366327        0.17978946119409       -1.92402014467418
C            0.03649407550199       -0.90033521413485       -1.12992448167165
C           -0.94192012585584       -0.91646278217330        0.03590090393939
H           -0.44359517436515       -1.29921383048106        0.94266388901700
O           -2.05928799280602       -1.79416977855846       -0.25698220742291
C            2.05778559960245       -0.01706966774813        0.14595884495474
C            3.16378184171130       -0.74058579375298       -0.06419514041487
C            1.76698278347522        0.56653179637408        1.50072672767695
H           -2.93561167830615        1.54778513531221        1.49266107441596
H           -2.49754949770349       -0.03682642350489        2.17175635854252
H           -3.56736834346060        0.05032592797375        0.77829204890343
H           -1.28056401506595        2.52517168011499        0.16784653516131
H            0.07947506820320        1.84682153643514       -1.98818198435715
H            1.03733682409205        2.36046971591793       -0.62197991069647
H           -0.53925383582309       -0.72884352150121       -2.04879164284644
H            0.52643797255981       -1.87671608279697       -1.21678200031117
H           -1.68662956858703       -2.67393608244085       -0.40284735614790
H            3.86330779284920       -0.95124323376982        0.74061672863291
H            3.39372082077679       -1.15113096725084       -1.04535434771454
H            2.57148661374850        0.32884179266597        2.20080821506239
H            1.67091985287744        1.65728143101526        1.44574132621496
H            0.82458575474385        0.19498062598065        1.91607162706135
27
 energy: -465.763158465481 gnorm: 0.001267357415 xtb: 6.7.1 (edcfbbe)
C           -2.69736078022987        0.51683341220165        1.23303538436792
C           -1.49111878999795        0.45551175707772        0.34377550103890
C           -0.86944369224998        1.55424441243086       -0.10303379121097
C            0.36246127670386        1.56570599191202       -0.96011218586224
C            1.09077977392386        0.21283208809765       -1.00608026013049
H            1.68685117048839        0.17574645092390       -1.92424803936833
C            0.03553490908955       -0.90302811761008       -1.12352174945956
C           -0.94433354022878       -0.91577131574015        0.04133174314815
H           -0.44763367638096       -1.29777364473543        0.94958116936369
O           -2.06237282833542       -1.79282321389643       -0.25154230826046
C            2.06237255019867       -0.01870138020573        0.14421520368113
C            3.17282612449744       -0.73321298223928       -0.07022218052503
C            1.77286600401234        0.55997994943159        1.50060132580173
H           -2.93583408671743        1.55059297435980        1.49762460235222
H           -2.52544584781816       -0.04894337692822        2.15798952882273
H           -3.57752989357184        0.07318141581359        0.75485791921706
H           -1.27783284920678        2.52702819026360        0.17133508982034
H            0.07721347724433        1.84290247997477       -1.98564623213170
H            1.04076215267397        2.35964905924766       -0.62404691434187
H           -0.53969589661618       -0.73348125788756       -2.04349363267437
H            0.52462351661184       -1.88031837175080       -1.20817349664431
H           -1.69060764018458       -2.67289862037120       -0.39636308110454
H            3.87823336426203       -0.93925110498546        0.73095117803187
H            3.40282869102086       -1.13807072071327       -1.05269229518721
H            2.58892025602676        0.33683418630394        2.19438493992150
H            1.65480961839044        1.64859457035651        1.44600547659155
H            0.84187236933357        0.16969798318673        1.92567354464149
27
 energy: -465.763164570424 gnorm: 0.000741943382 xtb: 6.7.1 (edcfbbe)
C           -2.69895192383422        0.51834568263321        1.23165037421921
C           -1.49094671454715        0.45612054585244        0.34480954304613
C           -0.86947037666483        1.55418648247260       -0.10330446465139
C            0.36294205013993        1.56475867594350       -0.95964343110509
C            1.09101971830656        0.21186914822150       -1.00572434853221
H            1.68565641699971        0.17409777212739       -1.92481153457588
C            0.03531233040649       -0.90391681100382       -1.12148727254311
C           -0.94479912973567       -0.91574931626389        0.04343214210987
H           -0.44873822139001       -1.29808328513129        0.95181393281670
O           -2.06356096049377       -1.79129662798399       -0.24975049488962
C            2.06467169032872       -0.01722380566141        0.14315694920091
C            3.17633363456980       -0.72957798184719       -0.07283549324854
C            1.77315713786268        0.55726401157240        1.50078655113894
H           -2.93442315053265        1.55194254193894        1.49955748171863
H           -2.53178843163586       -0.05170833125158        2.15458595742749
H           -3.57926257468749        0.08002465920369        0.74905432844425
H           -1.27798670069135        2.52739096335718        0.16914461513371
H            0.07850353906876        1.84290144515480       -1.98501762416485
H            1.04150504053829        2.35804234026566       -0.62279691533159
H           -0.54013573282419       -0.73631187626414       -2.04160986597913
H            0.52497859288441       -1.88098373434480       -1.20448298613544
H           -1.69359644663240       -2.67230594001707       -0.39393815334515
H            3.88240067258119       -0.93583576687016        0.72757927978473
H            3.40655581172970       -1.13266706387892       -1.05632167090340
H            2.59098808753353        0.33869951736552        2.19314315771072
H            1.64762977455701        1.64483814670624        1.44826468331284
H            0.84575102529300        0.16024179118862        1.92693319986861
27
 energy: -465.763171030166 gnorm: 0.000846473207 xtb: 6.7.1 (edcfbbe)
C           -2.70295704346134        0.52323764974752        1.22790194254505
C           -1.49077211626270        0.45801295242464        0.34680082810149
C           -0.86934937752237        1.55429294274115       -0.10491018712000
C            0.36432920416617        1.56290950015770       -0.95898361498206
C            1.09105762940675        0.20937490348842       -1.00465072527141
H            1.68244170721680        0.16949177329106       -1.92577721229846
C            0.03549765659077       -0.90730441944814       -1.11502034740758
C           -0.94674372020198       -0.91558372050819        0.04869091503122
H           -0.45319881889084       -1.29832734716488        0.95802110789507
O           -2.06726276297757       -1.78741722052048       -0.24568678781088
C            2.06850815483801       -0.01676384916130        0.14107897761635
C            3.18631479100690       -0.71824515818843       -0.08070643609647
C            1.77317447260045        0.54821824912235        1.50182110642540
H           -2.92948606886329        1.55645068738448        1.50503130862034
H           -2.54765800445502       -0.05847103264243        2.14544877175477
H           -3.58437698321328        0.09930383022591        0.73449869070533
H           -1.27840067873252        2.52868578092940        0.16214002848442
H            0.08281177261849        1.84396379584974       -1.98405614660418
H            1.04356322970820        2.35404605859465       -0.61884467344546
H           -0.53962599330218       -0.74401176153074       -2.03589301498351
H            0.52603946716001       -1.88418929362671       -1.19357071692788
H           -1.70147287660320       -2.67083046706803       -0.38658679815243
H            3.89539638591272       -0.92307780741288        0.71730492168043
H            3.41693480179444       -1.11657601898119       -1.06658722933418
H            2.59756805837319        0.34362143670826        2.18960019029998
H            1.62544769712855        1.63313846723440        1.45437853116188
H            0.85596305615626        0.13112041700202        1.93074789992967
27
 energy: -465.763174823096 gnorm: 0.000722274018 xtb: 6.7.1 (edcfbbe)
C           -2.70124001964502        0.52406647895017        1.22914466908271
C           -1.49090671006196        0.45833747628295        0.34558803112869
C           -0.86985283667835        1.55443391877230       -0.10718968918093
C            0.36475981597484        1.56298165831897       -0.95974810007003
C            1.09076846612122        0.20889124637225       -1.00516104864775
H            1.68268758715459        0.16838228334051       -1.92588044808957
C            0.03555237212222       -0.90802075061257       -1.11529138577944
C           -0.94709395683809       -0.91542503321005        0.04807713146372
H           -0.45454747320721       -1.29848913394281        0.95778095598686
O           -2.06778626946952       -1.78693184257178       -0.24688032189322
C            2.06769210828243       -0.01694213675913        0.14104958075481
C            3.18623491114190       -0.71700208159094       -0.08062589184905
C            1.77092811800592        0.54634344637976        1.50230144742911
H           -2.92815153905451        1.55729808815573        1.50497470449564
H           -2.54269957281435       -0.05533222354031        2.14733784133501
H           -3.58320754343398        0.09804181343138        0.73929453577740
H           -1.27933872824932        2.52882131420342        0.15927998830049
H            0.08533105295542        1.84528200933588       -1.98507680651301
H            1.04386915711346        2.35345491288471       -0.61750559237644
H           -0.53922250743838       -0.74517013183437       -2.03644343784278
H            0.52618687527435       -1.88491671990341       -1.19323704826930
H           -1.70237996584749       -2.67073174987073       -0.38593280141044
H            3.89587025116995       -0.92011556556200        0.71735174427090
H            3.41888738264610       -1.11265542149071       -1.06696381866924
H            2.59497732674893        0.34146448821540        2.19038271294061
H            1.62263027573056        1.63098259104360        1.45599340803569
H            0.85379533258197        0.12802206602251        1.92956811340611
27
 energy: -465.763174823096 gnorm: 0.000722274018 xtb: 6.7.1 (edcfbbe)
C           -2.70124001964502        0.52406647895017        1.22914466908271
C           -1.49090671006196        0.45833747628295        0.34558803112869
C           -0.86985283667835        1.55443391877230       -0.10718968918093
C            0.36475981597484        1.56298165831897       -0.95974810007003
C            1.09076846612122        0.20889124637225       -1.00516104864775
H            1.68268758715459        0.16838228334051       -1.92588044808957
C            0.03555237212222       -0.90802075061257       -1.11529138577944
C           -0.94709395683809       -0.91542503321005        0.04807713146372
H           -0.45454747320721       -1.29848913394281        0.95778095598686
O           -2.06778626946952       -1.78693184257178       -0.24688032189322
C            2.06769210828243       -0.01694213675913        0.14104958075481
C            3.18623491114190       -0.71700208159094       -0.08062589184905
C            1.77092811800592        0.54634344637976        1.50230144742911
H           -2.92815153905451        1.55729808815573        1.50497470449564
H           -2.54269957281435       -0.05533222354031        2.14733784133501
H           -3.58320754343398        0.09804181343138        0.73929453577740
H           -1.27933872824932        2.52882131420342        0.15927998830049
H            0.08533105295542        1.84528200933588       -1.98507680651301
H            1.04386915711346        2.35345491288471       -0.61750559237644
H           -0.53922250743838       -0.74517013183437       -2.03644343784278
H            0.52618687527435       -1.88491671990341       -1.19323704826930
H           -1.70237996584749       -2.67073174987073       -0.38593280141044
H            3.89587025116995       -0.92011556556200        0.71735174427090
H            3.41888738264610       -1.11265542149071       -1.06696381866924
H            2.59497732674893        0.34146448821540        2.19038271294061
H            1.62263027573056        1.63098259104360        1.45599340803569
H            0.85379533258197        0.12802206602251        1.92956811340611
