      -----------------------------------------------------------      
     |                   =====================                   |     
     |                           x T B                           |     
     |                   =====================                   |     
     |                         S. Grimme                         |     
     |          Mulliken Center for Theoretical Chemistry        |     
     |                    University of Bonn                     |     
      -----------------------------------------------------------      

   * xtb version 6.7.1 (edcfbbe) compiled by 'albert@albert-system' on 2024-07-22

   xtb is free software: you can redistribute it and/or modify it under
   the terms of the GNU Lesser General Public License as published by
   the Free Software Foundation, either version 3 of the License, or
   (at your option) any later version.
   
   xtb is distributed in the hope that it will be useful,
   but WITHOUT ANY WARRANTY; without even the implied warranty of
   MERCHANTABILITY or FITNESS FOR A PARTICULAR PURPOSE.  See the
   GNU Lesser General Public License for more details.
   
   Cite this work as:
   * C. Bannwarth, E. Caldeweyher, S. Ehlert, A. Hansen, P. Pracht,
     J. Seibert, S. Spicher, S. Grimme, WIREs Comput. Mol. Sci., 2020, 11,
     e01493. DOI: 10.1002/wcms.1493
   
   for GFN2-xTB:
   * C. Bannwarth, S. Ehlert and S. Grimme., J. Chem. Theory Comput., 2019,
     15, 1652-1671. DOI: 10.1021/acs.jctc.8b01176
   for GFN1-xTB:
   * S. Grimme, C. Bannwarth, P. Shushkov, J. Chem. Theory Comput., 2017,
     13, 1989-2009. DOI: 10.1021/acs.jctc.7b00118
   for GFN0-xTB:
   * P. Pracht, E. Caldeweyher, S. Ehlert, S. Grimme, ChemRxiv, 2019, preprint.
     DOI: 10.26434/chemrxiv.8326202.v1
   for GFN-FF:
   * S. Spicher and S. Grimme, Angew. Chem. Int. Ed., 2020, 59, 15665-15673.
     DOI: 10.1002/anie.202004239
   
   for ALPB and GBSA implicit solvation:
   * S. Ehlert, M. Stahn, S. Spicher, S. Grimme, J. Chem. Theory Comput.,
     2021, 17, 4250-4261. DOI: 10.1021/acs.jctc.1c00471
   
   for ddCOSMO and CPCM-X implicit solvation:
   * M. Stahn, S. Ehlert, S. Grimme, J. Phys. Chem. A,
     2023, XX, XXXX-XXXX. DOI: 10.1021/acs.jpca.3c04382
   
   for DFT-D4:
   * E. Caldeweyher, C. Bannwarth and S. Grimme, J. Chem. Phys., 2017,
     147, 034112. DOI: 10.1063/1.4993215
   * E. Caldeweyher, S. Ehlert, A. Hansen, H. Neugebauer, S. Spicher,
     C. Bannwarth and S. Grimme, J. Chem. Phys., 2019, 150, 154122.
     DOI: 10.1063/1.5090222
   * E. Caldeweyher, J.-M. Mewes, S. Ehlert and S. Grimme, Phys. Chem. Chem. Phys.
     2020, 22, 8499-8512. DOI: 10.1039/D0CP00502A
   
   for sTDA-xTB:
   * S. Grimme and C. Bannwarth, J. Chem. Phys., 2016, 145, 054103.
     DOI: 10.1063/1.4959605
   
   in the mass-spec context:
   * V. Asgeirsson, C. Bauer and S. Grimme, Chem. Sci., 2017, 8, 4879.
     DOI: 10.1039/c7sc00601b
   * J. Koopman and S. Grimme, ACS Omega 2019, 4, 12, 15120-15133.
     DOI: 10.1021/acsomega.9b02011
   
   for metadynamics refer to:
   * S. Grimme, J. Chem. Theory Comput., 2019, 155, 2847-2862
     DOI: 10.1021/acs.jctc.9b00143
   
   for SPH calculations refer to:
   * S. Spicher and S. Grimme, J. Chem. Theory Comput., 2021, 17, 1701-1714
     DOI: 10.1021/acs.jctc.0c01306
   
   for ONIOM refer to:
   * C. Plett, A. Katbashev, S. Ehlert, S. Grimme, M. Bursch,
     Phys. Chem. Chem. Phys., 2023, 25, 17860-17868. DOI: 10.1039/D3CP02178E
   
   for DIPRO refer to:
   * J. Kohn, N. Gildemeister, S. Grimme, D. Fazzi, A. Hansen,
     J. Chem. Phys., 2023, just accepted.
   
   for PTB refer to:
   * S. Grimme, M. Mueller, A. Hansen, J. Chem. Phys., 2023, 158, 124111.
     DOI: 10.1063/5.0137838
   
   with help from (in alphabetical order)
   P. Atkinson, C. Bannwarth, F. Bohle, G. Brandenburg, E. Caldeweyher
   M. Checinski, S. Dohm, S. Ehlert, S. Ehrlich, I. Gerasimov, C. Hölzer
   A. Katbashev, J. Kohn, J. Koopman, C. Lavigne, S. Lehtola, F. März, M. Müller,
   F. Musil, H. Neugebauer, J. Pisarek, C. Plett, P. Pracht, F. Pultar,
   J. Seibert, P. Shushkov, S. Spicher, M. Stahn, M. Steiner, T. Strunk,
   J. Stückrath, T. Rose, and J. Unsleber
   
 * started run on 2025/04/04 at 20:09:18.720     
   ID    Z sym.   atoms
    1    6 C      1-6, 8
    2    8 O      7, 9
    3    1 H      10-15

           -------------------------------------------------
          |                Calculation Setup                |
           -------------------------------------------------

          program call               : /srv/scratch/z5358697/.xtb/bin/xtb xtb_opt.coord --opt normal --orca -I xtb_opt-xcontrol-inp
          hostname                   : k156
          coordinate file            : xtb_opt.coord
          omp threads                :                     3

           -------------------------------------------------
          |                   Orca driver                   |
           -------------------------------------------------
orca executable           : /apps/z_install_tree/linux-rocky8-ivybridge/gcc-12.2.0/orca-6.0.0-srtngmq3qlimg2qxbl6avaaiffipurdx/bin/orca
orca input file           : xtb_opt.inp
orca input line           : 
orca parallel             : true
orca number of threads    : 3
                         * ORCA takes the control...
  ------------------------------------------------------------------------

                                 *****************
                                 * O   R   C   A *
                                 *****************

                                            #,                                       
                                            ###                                      
                                            ####                                     
                                            #####                                    
                                            ######                                   
                                           ########,                                 
                                     ,,################,,,,,                         
                               ,,#################################,,                 
                          ,,##########################################,,             
                       ,#########################################, ''#####,          
                    ,#############################################,,   '####,        
                  ,##################################################,,,,####,       
                ,###########''''           ''''###############################       
              ,#####''   ,,,,##########,,,,          '''####'''          '####       
            ,##' ,,,,###########################,,,                        '##       
           ' ,,###''''                  '''############,,,                           
         ,,##''                                '''############,,,,        ,,,,,,###''
      ,#''                                            '''#######################'''  
     '                                                          ''''####''''         
             ,#######,   #######,   ,#######,      ##                                
            ,#'     '#,  ##    ##  ,#'     '#,    #''#        ,####,   ,####,        
            ##       ##  ##   ,#'  ##            #'  '#       #'       #'  '#        
            ##       ##  #######   ##           ,######,      #####,   #    #        
            '#,     ,#'  ##    ##  '#,     ,#' ,#      #,     #,   #   #,  ,#        
             '#######'   ##     ##  '#######'  #'      '#     '####' # '####'        



                #########################################################
                #                        -***-                          #
                #          Department of theory and spectroscopy        #
                #                                                       #
                #                      Frank Neese                      #
                #                                                       #
                #     Directorship, Architecture, Infrastructure        #
                #                    SHARK, DRIVERS                     #
                #        Core code/Algorithms in most modules           #
                #                                                       #
                #        Max Planck Institute fuer Kohlenforschung      #
                #                Kaiser Wilhelm Platz 1                 #
                #                 D-45470 Muelheim/Ruhr                 #
                #                      Germany                          #
                #                                                       #
                #                  All rights reserved                  #
                #                        -***-                          #
                #########################################################


                         Program Version 6.0.0  -   RELEASE  -


 With contributions from (in alphabetic order):
   Daniel Aravena         : Magnetic Suceptibility
   Michael Atanasov       : Ab Initio Ligand Field Theory (pilot matlab implementation)
   Alexander A. Auer      : GIAO ZORA, VPT2 properties, NMR spectrum
   Ute Becker             : All parallelization in ORCA, NUMFREQ, NUMCALC
   Giovanni Bistoni       : ED, misc. LED, open-shell LED, HFLD
   Martin Brehm           : Molecular dynamics
   Dmytro Bykov           : pre 5.0 version of the SCF Hessian
   Marcos Casanova-Páez   : Triplet and SCS-CIS(D). UHF-(DLPNO)-IP/EA/STEOM-CCSD. UHF-CVS-IP/STEOM-CCSD
   Vijay G. Chilkuri      : MRCI spin determinant printing, contributions to CSF-ICE
   Pauline Colinet        : FMM embedding
   Dipayan Datta          : RHF DLPNO-CCSD density
   Achintya Kumar Dutta   : EOM-CC, STEOM-CC
   Nicolas Foglia         : Exact transition moments, OPA infrastructure, MCD improvements
   Dmitry Ganyushin       : Spin-Orbit,Spin-Spin,Magnetic field MRCI
   Miquel Garcia          : C-PCM and meta-GGA Hessian, CCSD/C-PCM, Gaussian charge scheme
   Tiago L. C. Gouveia    : GS-ROHF, GS-ROCIS
   Yang Guo               : DLPNO-NEVPT2, F12-NEVPT2, CIM, IAO-localization
   Andreas Hansen         : Spin unrestricted coupled pair/coupled cluster methods
   Ingolf Harden          : AUTO-CI MPn and infrastructure 
   Benjamin Helmich-Paris : MC-RPA, TRAH-(SCF,CASSCF), AVAS, COSX integrals, SCF dyn. polar.
   Lee Huntington         : MR-EOM, pCC
   Robert Izsak           : Overlap fitted RIJCOSX, COSX-SCS-MP3, EOM
   Riya Kayal             : Wick's Theorem for AUTO-CI, AUTO-CI UHF-CCSDT
   Emily Kempfer          : AUTO-CI, RHF CISDT and CCSDT
   Christian Kollmar      : KDIIS, OOCD, Brueckner-CCSD(T), CCSD density, CASPT2, CASPT2-K, improved NEVPT2
   Axel Koslowski         : Symmetry handling
   Simone Kossmann        : Meta GGA functionals, TD-DFT gradient, OOMP2, (MP2 Hessian; deprecated post 5.0)
   Lucas Lang             : DCDCAS
   Marvin Lechner         : AUTO-CI (C++ implementation), FIC-MRCC
   Spencer Leger          : CASSCF response
   Dagmar Lenk            : GEPOL surface, SMD, ORCA-2-JSON
   Dimitrios Liakos       : Extrapolation schemes; Compound Job, initial MDCI parallelization
   Dimitrios Manganas     : Further ROCIS development; embedding schemes. LFT, Crystal Embedding
   Dimitrios Pantazis     : SARC Basis sets
   Anastasios Papadopoulos: AUTO-CI, single reference methods and gradients
   Taras Petrenko         : pre 6.0 DFT Hessian and TD-DFT gradient, (ASA, deprecated), ECA, 1-Electron XAS/XES, NRVS
   Peter Pinski           : DLPNO-MP2, DLPNO-MP2 Gradient
   Christoph Reimann      : Effective Core Potentials
   Marius Retegan         : Local ZFS, SOC
   Christoph Riplinger    : Optimizer, TS searches, QM/MM, DLPNO-CCSD(T), (RO)-DLPNO pert. Triples
   Michael Roemelt        : Original ROCIS implementation
   Masaaki Saitow         : Open-shell DLPNO-CCSD energy and density
   Barbara Sandhoefer     : DKH picture change effects
   Kantharuban Sivalingam : CASSCF convergence/infrastructure, NEVPT2 and variants, FIC-MRCI
   Bernardo de Souza      : ESD, SOC TD-DFT
   Georgi Stoychev        : AutoAux, RI-MP2 NMR, DLPNO-MP2 response, X2C
   Van Anh Tran           : RI-MP2 g-tensors
   Willem Van den Heuvel  : Paramagnetic NMR
   Zikuan Wang            : NOTCH, Electric field optimization 
   Frank Wennmohs         : Technical directorship and infrastructure
   Hang Xu                : AUTO-CI-Response properties 


 We gratefully acknowledge several colleagues who have allowed us to
 interface, adapt or use parts of their codes:
   Stefan Grimme, W. Hujo, H. Kruse, P. Pracht,  : VdW corrections, initial TS optimization,
                  C. Bannwarth, S. Ehlert,         DFT functionals, gCP, sTDA/sTD-DF
                  L. Wittmann, M. Mueller
   Ed Valeev, F. Pavosevic, A. Kumar             : LibInt (2-el integral package), F12 methods
   Garnet Chan, S. Sharma, J. Yang, R. Olivares  : DMRG
   Ulf Ekstrom                                   : XCFun DFT Library
   Mihaly Kallay                                 : mrcc  (arbitrary order and MRCC methods)
   Frank Weinhold                                : gennbo (NPA and NBO analysis)
   Simon Mueller                                 : openCOSMO-RS
   Christopher J. Cramer and Donald G. Truhlar   : smd solvation model
   Lars Goerigk                                  : TD-DFT with DH, B97 family of functionals
   V. Asgeirsson, H. Jonsson                     : NEB implementation
   FAccTs GmbH                                   : IRC, NEB, NEB-TS, DLPNO-Multilevel, CI-OPT
                                                   MM, QMMM, 2- and 3-layer-ONIOM, Crystal-QMMM,
                                                   LR-CPCM, SF, NACMEs, symmetry and pop. for TD-DFT,
                                                   nearIR, NL-DFT gradient (VV10), updates on ESD,
                                                   ML-optimized integration grids, MBIS, APM,
                                                   GOAT, DOCKER, SOLVATOR, interface openCOSMO-RS
   S Lehtola, MJT Oliveira, MAL Marques          : LibXC Library
   Liviu Ungur et al                             : ANISO software


 Your calculation uses the libint2 library for the computation of 2-el integrals
 For citations please refer to: http://libint.valeyev.net

 Your ORCA version has been built with support for libXC version: 6.2.2
 For citations please refer to: https://libxc.gitlab.io

 This ORCA versions uses:
   CBLAS   interface :  Fast vector & matrix operations
   LAPACKE interface :  Fast linear algebra routines
   SCALAPACK package :  Parallel linear algebra routines
   Shared memory     :  Shared parallel matrices
   BLAS/LAPACK       :  OpenBLAS 0.3.27  USE64BITINT DYNAMIC_ARCH NO_AFFINITY SkylakeX SINGLE_THREADED
        Core in use  :  SkylakeX
   Copyright (c) 2011-2014, The OpenBLAS Project




***************************************
The coordinates will be read from file: xtb_opt.xyz
***************************************


Your calculation utilizes the geometrical counterpoise correction gCP
Please cite in your paper:
H.Kruse, S. Grimme J.Chem.Phys., 136, (2012), 154101 
   

Your calculation utilizes the atom-pairwise dispersion correction
based on EEQ partial charges (D4)


Your calculation utilizes the SMD solvation module
Please cite in your paper:
A.V. Marenich, C.J. Cramer, D.G. Truhlar J. Phys. Chem. B, 113, (2009), 6378 

================================================================================

----- Orbital basis set information -----
Your calculation utilizes the basis: def2-mTZVPP
   Stefan Grimme, Andreas Hansen, Sebastian Ehlert, and Jan-Michael Mewes 
   J. Chem. Phys. 154, 064103 (2021). DOI: 10.1063/5.0040021

----- AuxJ basis set information -----
Your calculation utilizes the auxiliary basis: def2/J
   F. Weigend, Phys. Chem. Chem. Phys. 8, 1057 (2006).

================================================================================
                                        WARNINGS
                       Please study these warnings very carefully!
================================================================================

Using LibXC functional ID 497 : Re-regularized SCAN exchange by Furness et al
[ 1]  J. W. Furness, A. D. Kaplan, J. Ning, J. P. Perdew, and J. Sun.,  J. Phys. Chem. Lett. 11, 8208-8215 (2020)
[ 2]  J. W. Furness, A. D. Kaplan, J. Ning, J. P. Perdew, and J. Sun.,  J. Phys. Chem. Lett. 11, 9248-9248 (2020)
Using LibXC functional ID 498 : Re-regularized SCAN correlation by Furness et al
[ 1]  J. W. Furness, A. D. Kaplan, J. Ning, J. P. Perdew, and J. Sun.,  J. Phys. Chem. Lett. 11, 8208-8215 (2020)
[ 2]  J. W. Furness, A. D. Kaplan, J. Ning, J. P. Perdew, and J. Sun.,  J. Phys. Chem. Lett. 11, 9248-9248 (2020)
Using LibXC functional ID 497 : Re-regularized SCAN exchange by Furness et al
[ 1]  J. W. Furness, A. D. Kaplan, J. Ning, J. P. Perdew, and J. Sun.,  J. Phys. Chem. Lett. 11, 8208-8215 (2020)
[ 2]  J. W. Furness, A. D. Kaplan, J. Ning, J. P. Perdew, and J. Sun.,  J. Phys. Chem. Lett. 11, 9248-9248 (2020)
Using LibXC functional ID 498 : Re-regularized SCAN correlation by Furness et al
[ 1]  J. W. Furness, A. D. Kaplan, J. Ning, J. P. Perdew, and J. Sun.,  J. Phys. Chem. Lett. 11, 8208-8215 (2020)
[ 2]  J. W. Furness, A. D. Kaplan, J. Ning, J. P. Perdew, and J. Sun.,  J. Phys. Chem. Lett. 11, 9248-9248 (2020)

================================================================================
                                       INPUT FILE
================================================================================
NAME = xtb_opt.inp
|  1> ! r2scan-3c def2/J RI DEFGRID2 scfconv7 ENGRAD tightSCF miniprint
|  2> %cpcm
|  3>     smd true
|  4>     smdsolvent "water"
|  5> end
|  6> * xyzfile 0 1 xtb_opt.xyz
|  7> 
|  8>                          ****END OF INPUT****
================================================================================

                     *******************************
                     * Energy+Gradient Calculation *
                     *******************************

---------------------------------
CARTESIAN COORDINATES (ANGSTROEM)
---------------------------------
  C     -0.995470   -1.811629    0.000020
  C      0.371161   -1.612878   -0.000020
  C      0.876810   -0.310245    0.000005
  C      0.004666    0.777144   -0.000053
  C     -1.369659    0.571927   -0.000057
  C     -1.864018   -0.732244    0.000029
  O     -2.177382    1.655917    0.000030
  C      2.316870   -0.083934   -0.000016
  O      2.865570    0.999577    0.000021
  H     -1.395361   -2.813313    0.000181
  H      1.050422   -2.450600   -0.000044
  H      0.401296    1.780531   -0.000063
  H     -2.930469   -0.902359   -0.000029
  H     -3.112423    1.396661    0.000177
  H      2.923035   -1.008835    0.000069

----------------------------
CARTESIAN COORDINATES (A.U.)
----------------------------
  NO LB      ZA    FRAG     MASS         X           Y           Z
   0 C     6.0000    0    12.011   -1.881165   -3.423482    0.000038
   1 C     6.0000    0    12.011    0.701394   -3.047897   -0.000037
   2 C     6.0000    0    12.011    1.656931   -0.586279    0.000009
   3 C     6.0000    0    12.011    0.008817    1.468590   -0.000099
   4 C     6.0000    0    12.011   -2.588281    1.080786   -0.000108
   5 C     6.0000    0    12.011   -3.522484   -1.383741    0.000054
   6 O     8.0000    0    15.999   -4.114656    3.129230    0.000058
   7 C     6.0000    0    12.011    4.378250   -0.158612   -0.000030
   8 O     8.0000    0    15.999    5.415142    1.888927    0.000039
   9 H     1.0000    0     1.008   -2.636851   -5.316392    0.000341
  10 H     1.0000    0     1.008    1.985010   -4.630963   -0.000083
  11 H     1.0000    0     1.008    0.758340    3.364717   -0.000119
  12 H     1.0000    0     1.008   -5.537784   -1.705211   -0.000055
  13 H     1.0000    0     1.008   -5.881628    2.639307    0.000334
  14 H     1.0000    0     1.008    5.523735   -1.906422    0.000130

------------------------------------------------------------------------------
                   ___                                                        
                  /   \      - P O W E R E D   B Y -                         
                 /     \                                                     
                 |  |  |   _    _      __       _____    __    __             
                 |  |  |  | |  | |    /  \     |  _  \  |  |  /  |          
                  \  \/   | |  | |   /    \    | | | |  |  | /  /          
                 / \  \   | |__| |  /  /\  \   | |_| |  |  |/  /          
                |  |  |   |  __  | /  /__\  \  |    /   |      \           
                |  |  |   | |  | | |   __   |  |    \   |  |\   \          
                \     /   | |  | | |  |  |  |  | |\  \  |  | \   \       
                 \___/    |_|  |_| |__|  |__|  |_| \__\ |__|  \__/        
                                                                              
                      - O R C A' S   B I G   F R I E N D -                    
                                      &                                       
                       - I N T E G R A L  F E E D E R -                       
                                                                              
 v1 FN, 2020, v2 2021, v3 2022-2024                                           
------------------------------------------------------------------------------


----------------------
SHARK INTEGRAL PACKAGE
----------------------

Number of atoms                             ...     15
Number of basis functions                   ...    211
Number of shells                            ...    101
Maximum angular momentum                    ...      2
Integral batch strategy                     ... SHARK/LIBINT Hybrid
RI-J (if used) integral strategy            ... SPLIT-RIJ (Revised 2003 algorithm where possible)
Printlevel                                  ...      1
Contraction scheme used                     ... SEGMENTED contraction
Prescreening option                         ... SCHWARTZ
   Thresh                                   ... 3.000e-11
   Tcut                                     ... 1.000e-12
   Tpresel                                  ... 1.000e-12 
Coulomb Range Separation                    ... NOT USED
Exchange Range Separation                   ... NOT USED
Multipole approximations                    ... NOT USED
Finite Nucleus Model                        ... NOT USED
CABS basis                                  ... NOT available
Auxiliary Coulomb fitting basis             ... AVAILABLE
   # of basis functions in Aux-J            ...    507
   # of shells in Aux-J                     ...    165
   Maximum angular momentum in Aux-J        ...      4
Auxiliary J/K fitting basis                 ... NOT available
Auxiliary Correlation fitting basis         ... NOT available
Auxiliary 'external' fitting basis          ... NOT available

Checking pre-screening integrals            ... done (  0.0 sec) Dimension = 101
Check shell pair data                       ... done (  0.0 sec)
Shell pair information
Shell pair cut-off parameter TPreSel        ...   1.0e-12
Total number of shell pairs                 ...      5151
Shell pairs after pre-screening             ...      4618
Total number of primitive shell pairs       ...     19131
Primitive shell pairs kept                  ...     12224
          la=0 lb=0:   1420 shell pairs
          la=1 lb=0:   1710 shell pairs
          la=1 lb=1:    526 shell pairs
          la=2 lb=0:    560 shell pairs
          la=2 lb=1:    340 shell pairs
          la=2 lb=2:     62 shell pairs

Calculating one electron integrals          ... done (  0.0 sec)
Calculating RI/J V-Matrix + Cholesky decomp.... done (  0.1 sec)
Calculating Nuclear repulsion               ... done (  0.0 sec) ENN=    401.966631937808 Eh

Diagonalization of the overlap matrix:
Smallest eigenvalue                        ... 2.994e-05
Time for diagonalization                   ...    0.003 sec
Threshold for overlap eigenvalues          ... 1.000e-07
Number of eigenvalues below threshold      ... 0
Time for construction of square roots      ...    0.013 sec
Total time needed                          ...    0.024 sec

-------------------
DFT GRID GENERATION
-------------------

General Integration Accuracy     IntAcc      ... 4.388
Radial Grid Type                 RadialGrid  ... OptM3 with GC (2021)
Angular Grid (max. ang.)         AngularGrid ... 4 (Lebedev-302)
Angular grid pruning method      GridPruning ... 4 (adaptive)
Weight generation scheme         WeightScheme... mBecke (2022)
Basis function cutoff            BFCut       ... 1.0000e-11
Integration weight cutoff        WCut        ... 1.0000e-14
Partially contracted basis set               ... off
Rotationally invariant grid construction     ... off
Angular grids for H and He will be reduced by one unit
Diffuse basis detected: some atoms will have their outermost
                        angular grid increased by 1.

Total number of grid points                  ...    74193
Total number of batches                      ...     1166
Average number of points per batch           ...       63
Average number of grid points per atom       ...     4946
Initializing property integral containers    ... done (  0.0 sec)

SHARK setup successfully completed in   0.9 seconds

Maximum memory used throughout the entire STARTUP-calculation: 34.3 MB
Occupation numbers will be reassigned to an Aufbau configuration
             **** ENERGY FILE WAS UPDATED (xtb_opt.en.tmp) ****
Finished Guess after   0.2 sec
Maximum memory used throughout the entire GUESS-calculation: 14.6 MB
--------------------
CPCM SOLVATION MODEL
--------------------
CPCM parameters:
  Epsilon                                         ...      78.3550
  Refrac                                          ...       1.3328
  Rsolv                                           ...       1.3000
  Surface type                                    ... GAUSSIAN VDW
  Discretization scheme                           ... Constant charge density
    Threshold for H atoms                         ...       5.0000 (charges/Ang^2)
    Threshold for non-H atoms                     ...       5.0000 (charges/Ang^2)
  Epsilon function type                           ...         CPCM
Solvent:                                          ... WATER
SMD-CDS solvent descriptors:
  Soln                                            ...       1.3328
  Soln25                                          ...       1.3323
  Sola                                            ...       0.0000
  Solb                                            ...       0.0000
  Solg                                            ...       0.0000
  Solc                                            ...       0.0000
  Solh                                            ...       0.0000
Radii:
  Scheme                                          ... Element-dependent radii
  Radius for C  used is    3.4960 Bohr (=   1.8500 Ang.)
  Radius for O  used is    2.8724 Bohr (=   1.5200 Ang.)
  Radius for H  used is    2.2677 Bohr (=   1.2000 Ang.)
Calculating surface                               ...        done! (  0.0s)
Cavity surface points                             ...         1185
Cavity Volume                                     ...     812.0040
Cavity Surface-area                               ...     512.2960
Calculating surface distance matrix               ...        done! (  0.0s)
Performing Cholesky decomposition & store         ...        done! (  0.1s)
Overall time for CPCM initialization              ...                 0.1s

----------------------------------------D-I-I-S--------------------------------------------
Iteration    Energy (Eh)           Delta-E    RMSDP     MaxDP     DIISErr   Damp  Time(sec)
-------------------------------------------------------------------------------------------
               ***  Starting incremental Fock matrix formation  ***
                              *** Initializing SOSCF ***
---------------------------------------S-O-S-C-F--------------------------------------
Iteration    Energy (Eh)           Delta-E    RMSDP     MaxDP     MaxGrad    Time(sec)
--------------------------------------------------------------------------------------
    1    -420.7322460682481164     0.00e+00  1.67e-06  4.46e-05  4.16e-06     2.5
               *** Restarting incremental Fock matrix formation ***
    2    -420.7322460687925627    -5.44e-10  1.05e-06  2.31e-05  6.60e-06     2.5
                  *** Gradient check signals convergence ***

               *****************************************************
               *                     SUCCESS                       *
               *           SCF CONVERGED AFTER   2 CYCLES          *
               *****************************************************


SMD CDS free energy correction energy :                 4.91926     Kcal/mol
Total Energy after SMD CDS correction =              -420.724406724 Eh
             **** ENERGY FILE WAS UPDATED (xtb_opt.en.tmp) ****

----------------
TOTAL SCF ENERGY
----------------

Total Energy       :       -420.72440672354276 Eh          -11448.49314 eV

Components:
Nuclear Repulsion  :        401.96663193780847 Eh           10938.06814 eV
Electronic Energy  :       -822.67060549966823 Eh          -22386.00526 eV
One Electron Energy:      -1367.86500542962813 Eh          -37221.49910 eV
Two Electron Energy:        545.19439992995990 Eh           14835.49384 eV
CPCM Dielectric    :         -0.02827250693284 Eh              -0.76933 eV
SMD CDS (Gcds)     :          0.00783934524979 Eh               0.21332 eV

Virial components:
Potential Energy   :       -839.84400270466335 Eh          -22853.31715 eV
Kinetic Energy     :        419.11959598112060 Eh           11404.82402 eV
Virial Ratio       :          2.00382900431717

DFT components:
N(Alpha)           :       31.999953087058 electrons
N(Beta)            :       31.999953087058 electrons
N(Total)           :       63.999906174116 electrons
E(X)               :      -55.169133606740 Eh       
E(C)               :       -2.096516273441 Eh       
E(XC)              :      -57.265649880181 Eh       

CPCM Solvation Model Properties:
Surface-charge          :         -0.04263638341933
Corrected charge        :          0.00000000000000
Outlying charge corr.   :          0.00014452672638 Eh               0.00393 eV
Free-energy (cav+disp)  :          0.00783934524979 Eh               0.21332 eV

---------------
SCF CONVERGENCE
---------------

  Last Energy change         ...    5.4445e-10  Tolerance :   1.0000e-07
  Last MAX-Density change    ...    2.3131e-05  Tolerance :   1.0000e-07
  Last RMS-Density change    ...    1.0513e-06  Tolerance :   5.0000e-09
  Last DIIS Error            ...    2.2839e-05  Tolerance :   1.0000e-07
  Last Orbital Gradient      ...    6.5957e-06  Tolerance :   1.0000e-04
  Last Orbital Rotation      ...    2.2300e-05  Tolerance :   1.0000e-04


----------------
ORBITAL ENERGIES
----------------

  NO   OCC          E(Eh)            E(eV) 
   0   2.0000     -18.988866      -516.7133 
   1   2.0000     -18.956544      -515.8338 
   2   2.0000     -10.123413      -275.4721 
   3   2.0000     -10.108597      -275.0689 
   4   2.0000     -10.052940      -273.5544 
   5   2.0000     -10.046879      -273.3895 
   6   2.0000     -10.045205      -273.3439 
   7   2.0000     -10.044005      -273.3113 
   8   2.0000     -10.043797      -273.3056 
   9   2.0000      -1.035213       -28.1696 
  10   2.0000      -1.020660       -27.7736 
  11   2.0000      -0.836930       -22.7740 
  12   2.0000      -0.742352       -20.2004 
  13   2.0000      -0.724054       -19.7025 
  14   2.0000      -0.631641       -17.1878 
  15   2.0000      -0.590203       -16.0602 
  16   2.0000      -0.563714       -15.3394 
  17   2.0000      -0.503664       -13.7054 
  18   2.0000      -0.475794       -12.9470 
  19   2.0000      -0.460750       -12.5376 
  20   2.0000      -0.423014       -11.5108 
  21   2.0000      -0.415314       -11.3013 
  22   2.0000      -0.402499       -10.9525 
  23   2.0000      -0.400976       -10.9111 
  24   2.0000      -0.378508       -10.2997 
  25   2.0000      -0.362818        -9.8728 
  26   2.0000      -0.346095        -9.4177 
  27   2.0000      -0.321517        -8.7489 
  28   2.0000      -0.318851        -8.6764 
  29   2.0000      -0.252836        -6.8800 
  30   2.0000      -0.237019        -6.4496 
  31   2.0000      -0.219750        -5.9797 
  32   0.0000      -0.099962        -2.7201 
  33   0.0000      -0.031244        -0.8502 
  34   0.0000       0.009561         0.2602 
  35   0.0000       0.078502         2.1361 
  36   0.0000       0.092564         2.5188 
  37   0.0000       0.111805         3.0424 
  38   0.0000       0.116562         3.1718 
  39   0.0000       0.122516         3.3338 
  40   0.0000       0.138157         3.7595 
  41   0.0000       0.139997         3.8095 
  42   0.0000       0.162767         4.4291 
*Only the first 10 virtual orbitals were printed.
Total SCF time: 0 days 0 hours 0 min 5 sec 
Finished LeanSCF after   5.4 sec

Maximum memory used throughout the entire LEANSCF-calculation: 23.6 MB


-------------------------------------------------------------------------------
                          DFT DISPERSION CORRECTION                            
                                                                               
                                DFTD4 V3.4.0                                   
-------------------------------------------------------------------------------
-------------------------   ----------------
Dispersion correction           -0.004929883
-------------------------   ----------------

------------------   -----------------
gCP correction             0.004920827
------------------   -----------------

-------------------------   --------------------
FINAL SINGLE POINT ENERGY      -420.724415779441
-------------------------   --------------------

------------------------------------------------------------------------------
                         ORCA SCF GRADIENT CALCULATION
------------------------------------------------------------------------------

Nuc. rep. gradient        (SHARK) ... done (  0.0 sec)
HCore & Overlap gradient  (SHARK) ... done (  0.2 sec)
Split-RIJ-J gradient      (SHARK) ... done (  1.3 sec)
XC gradient                       ... done (  4.3 sec)
CPCM gradient                     ... done (  0.6 sec)
SMD gradient                      ... done (  0.0 sec)
Dispersion correction             ... done (  0.0 sec)

-------------------
DISPERSION GRADIENT
-------------------

   1   C   :   -0.000040904   -0.000078577    0.000000001
   2   C   :    0.000019669   -0.000068662   -0.000000001
   3   C   :    0.000051633   -0.000003735   -0.000000001
   4   C   :    0.000003852    0.000047513   -0.000000003
   5   C   :   -0.000063677    0.000037662   -0.000000002
   6   C   :   -0.000074236   -0.000019464    0.000000001
   7   O   :   -0.000079402    0.000060370    0.000000003
   8   C   :    0.000099260    0.000008121   -0.000000000
   9   O   :    0.000085014    0.000038660    0.000000001
  10   H   :   -0.000017252   -0.000040224    0.000000003
  11   H   :    0.000015604   -0.000038958   -0.000000001
  12   H   :    0.000010707    0.000039586   -0.000000001
  13   H   :   -0.000037192   -0.000008817   -0.000000000
  14   H   :   -0.000015619    0.000029219   -0.000000000
  15   H   :    0.000042544   -0.000002693    0.000000001

Difference to translation invariance:
           :    0.0000000000   -0.0000000000    0.0000000000

Difference to rotation invariance:
           :    0.0000000000    0.0000000000    0.0000000000

Norm of the Dispersion gradient    ...    0.0002599779
RMS gradient                       ...    0.0000387552
MAX gradient                       ...    0.0000992604
gCP correction                   ... done

------------------
CARTESIAN GRADIENT
------------------

   1   C   :    0.001367567    0.000764926   -0.000008378
   2   C   :   -0.006935733   -0.000635033   -0.000004812
   3   C   :    0.007370757   -0.003474201    0.000017399
   4   C   :    0.002350075   -0.003796386   -0.000001250
   5   C   :   -0.007926261    0.008410841   -0.000014932
   6   C   :    0.002857342    0.001239284    0.000012822
   7   O   :    0.008120461   -0.011587260    0.000004368
   8   C   :   -0.000035032    0.018180579   -0.000015924
   9   O   :   -0.005140858   -0.015891373    0.000004852
  10   H   :    0.001977623    0.004028148    0.000006960
  11   H   :   -0.003387232    0.004039775   -0.000002170
  12   H   :   -0.001082926   -0.004657763   -0.000000436
  13   H   :    0.004965796   -0.000295374   -0.000005986
  14   H   :   -0.003395099    0.001567595    0.000002019
  15   H   :   -0.001106480    0.002106241    0.000005471

Difference to translation invariance:
           :    0.0000000000   -0.0000000000   -0.0000000000

Difference to rotation invariance:
           :   -0.0000006525   -0.0000008174    0.0003462409

Norm of the Cartesian gradient     ...    0.0347197309
RMS gradient                       ...    0.0051757119
MAX gradient                       ...    0.0181805794

-------
TIMINGS
-------

Total SCF gradient time     ....        7.033 sec

Densities                   ....       0.001 sec  (  0.0%)
One electron gradient       ....       0.195 sec  (  2.8%)
RI-J Coulomb gradient       ....       1.330 sec  ( 18.9%)
XC gradient                 ....       4.324 sec  ( 61.5%)
CPCM gradient               ....       0.633 sec  (  9.0%)
   A-Matrix (El+Nuc)        ....       0.043 sec  (  0.6%)
   Potential                ....       0.590 sec  (  8.4%)
SMD gradient                ....       0.010 sec  (  0.1%)

Maximum memory used throughout the entire SCFGRAD-calculation: 34.8 MB

------------------------------------------------------------------------------
                              ORCA PROPERTY CALCULATIONS
------------------------------------------------------------------------------

GBWName                                 ... xtb_opt.gbw
Number of atoms                         ...     15
Number of basis functions               ...    211
Max core memory                         ...   1024 MB

Electric properties:
Dipole moment                           ... YES
Quadrupole moment                       ...  NO
Static polarizability (Dipole/Dipole)   ...  NO
Static polarizability (Dipole/Quad.)    ...  NO
Static polarizability (Quad./Quad.)     ...  NO
Static polarizability (Velocity)        ...  NO

Atomic electric properties:
Dipole moment                           ...  NO
Quadrupole moment                       ...  NO
Static polarizability                   ...  NO

Choice of electric origin               ... Center of mass
Position of electric origin             ...    -0.000010    -0.000033    -0.000000

General magnetic properties:
Magnetizability                         ...  NO

EPR properties:
g-Tensor (aka g-matrix)                 ...  NO
Zero-Field splitting spin-orbit         ...  NO
Zero-field splitting spin-spin          ...  NO
Hyperfine couplings                     ...  NO (   0 nuclei)
Quadrupole couplings                    ...  NO (   0 nuclei)
Contact density                         ...  NO (   0 nuclei)

NMR properties:
Chemical shifts                         ...  NO (   0 nuclei)
Spin-rotation constants                 ...  NO (   0 nuclei)
Spin-spin couplings                     ...  NO (   0 nuclei,    0 pairs)

Choice of magnetic origin               ... GIAO
Position of magnetic origin             ...     0.000000     0.000000     0.000000

Properties with geometric perturbations:
SCF Hessian                             ...  NO
IR spectrum                             ...  NO
VCD spectrum                            ...  NO
X-ray spectroscopy properties:
SCF XES/XAS/RIXS spectra                ...  NO


-------------
DIPOLE MOMENT
-------------

Method             : SCF
Type of density    : Electron Density
Multiplicity       :   1
Irrep              :   0
Energy             :  -420.7244067235427565 Eh
Relativity type    : 
Basis              : AO
                                X                 Y                 Z
Electronic contribution:      0.640967351       1.994251458      -0.000157718
Nuclear contribution   :     -2.863896976      -3.711376092       0.000272591
                        -----------------------------------------
Total Dipole Moment    :     -2.222929625      -1.717124634       0.000114872
                        -----------------------------------------
Magnitude (a.u.)       :      2.808902479
Magnitude (Debye)      :      7.139662704



--------------------
Rotational spectrum 
--------------------
 
Rotational constants in cm-1:             0.098921             0.043332             0.030132 
Rotational constants in MHz :          2965.575492          1299.052312           903.346758 

Dipole components along the rotational axes: 
x,y,z [a.u.] :    -2.234126     1.702531     0.000105 
x,y,z [Debye]:    -5.678698     4.327491     0.000266 

 

Dipole moment calculation done in   0.0 sec 

Maximum memory used throughout the entire PROP-calculation: 13.3 MB

--------------------------------
SUGGESTED CITATIONS FOR THIS RUN
--------------------------------

Below you find a list of papers that are relevant to this ORCA run
We neither can nor want to force you to cite these papers, but we appreciate if you do
You receive ORCA, which is the product of decades of hard work by many enthusiastic individuals, for free
The only thing we kindly ask in return is that you cite our papers,
We deeply appreciate it, if you show your appreciation for ORCA by not just citing the generic ORCA reference.

Please note that relegating all ORCA citations to the supporting information does *not* help us.
SI sections are not indexed - citations you put there will not count into any citation statistics
But we need these citations in order to attract the funding resources that allow us to do what we are doing

Therefore, if you are a happy ORCA user, please consider citing a few of the papers listed below in the main body of your paper

In addition to the list printed below, the program has created the file xtb_opt.bibtex that contains the list in bibtex format
You can import this file easily into all common literature databanks and citation aid programs


List of essential papers. We consider these as the minimum necessary citations

  1. Neese,F.
     Software update: the ORCA program system, version 5.0
     WIRES Comput. Molec. Sci., 2022 12(1)e1606
     doi.org/10.1002/wcms.1606
  2. Grimme,S.; Hansen,A.; Ehlert,S.; Mewes,J.
     r2SCAN-3c: A 'Swiss army knife' composite electronic-structure method
     J. Chem. Phys., 2021 154 064103
     doi.org/10.1063/5.0040021

List of papers to cite with high priority. The work reported in these papers was absolutely
necessary for this run to complete.
Our perspective: the developers of density functionals and basis sets usually get cited in chemistry papers
Good! But without the algorithms to do something with them, the functionals or basis sets would not do anything.
Hence, in our opinion, the algorithm design and method developments papers are equally worthy of getting cited

  1. Neese,F.
     An improvement of the resolution of the identity approximation for the formation of the Coulomb matrix
     J. Comp. Chem., 2003 24(14)1740-1747
     doi.org/10.1002/jcc.10318
  2. Garcia-Rates,M.; Neese,F.
     Effect of the Solute Cavity on the Solvation Energy and its Derivatives within the Framework of the Gaussian Charge Scheme
     J. Comput. Chem., 2020 41 922-939
     doi.org/10.1002/jcc.26139
  3. Neese,F.
     The SHARK Integral Generation and Digestion System
     J. Comp. Chem., 2022  1-16
     doi.org/10.1002/jcc.26942
  4. Lehtola,S.; Steigemann,C.; Oliveira,M.; Marques,M.
     Recent developments in Libxc - A comprehensive library of functionals for density functional theory
     Software X, 2018 7 
     doi.org/10.1016/j.softx.2017.11.002
  5. Caldeweyher,E.; Bannwarth,C.; Grimme,S.
     Extension of the D3 dispersion coefficient model
     J. Chem. Phys., 2017 147 034112-XXXX
     doi.org/10.1063/1.4993215
  6. Caldeweyher,E.; Ehlert,S.; Hansen,A.; Neugebauer,H.; Spicher,S.; Bannwarth,C.; Grimme,S.
     A generally applicable atomic-charge dependent London dispersion correction
     J. Chem. Phys., 2019 150 154122-XXXX
     doi.org/10.1063/1.5090222
  7. Caldeweyher,E.; Mewes,J.; Ehlert,S.; Grimme,S.
     Extension and evaluation of the D4 London-dispersion model for periodic systems
     Phys. Chem. Chem. Phys., 2020 22(16)8499-8512
     doi.org/10.1039/D0CP00502A

List of suggested additional citations. These are papers that are important in the 'surrounding' of 
of this run, or papers that preceded the highly important papers. If you like your results we are grateful for a citation.

  1. Neese,F.
     The ORCA program system
     WIRES Comput. Molec. Sci., 2012 2(1)73-78
     doi.org/10.1002/wcms.81
  2. Neese,F.
     Software update: the ORCA program system, version 4.0
     WIRES Comput. Molec. Sci., 2018 8(1)1-6
     doi.org/10.1002/wcms.1327
  3. Neese,F.; Wennmohs,F.; Becker,U.; Riplinger,C.
     The ORCA quantum chemistry program package
     J. Chem. Phys., 2020 152 Art. No. L224108
     doi.org/10.1063/5.0004608

List of optional additional citations

  1. Neese,F.
     Approximate second-order SCF convergence for spin unrestricted wavefunctions
     Chem. Phys. Lett., 2000 325(1-3)93-98
     doi.org/10.1016/s0009-2614(00)00662-x

Timings for individual modules:

Sum of individual times          ...       13.886 sec (=   0.231 min)
Startup calculation              ...        0.978 sec (=   0.016 min)   7.0 %
SCF iterations                   ...        5.707 sec (=   0.095 min)  41.1 %
Property calculations            ...        0.085 sec (=   0.001 min)   0.6 %
SCF Gradient evaluation          ...        7.115 sec (=   0.119 min)  51.2 %
                             ****ORCA TERMINATED NORMALLY****
TOTAL RUN TIME: 0 days 0 hours 0 minutes 15 seconds 223 msec
  ------------------------------------------------------------------------
          * successful ORCA run, taking over control again...

         :::::::::::::::::::::::::::::::::::::::::::::::::::::
         ::                  ORCA SUMMARY                   ::
         :::::::::::::::::::::::::::::::::::::::::::::::::::::
         :: total energy            -420.724415779441 Eh    ::
         :: gradient norm              0.034719730885 Eh/a0 ::
         :: HOMO-LUMO gap              0.000000000000 eV    ::
         :::::::::::::::::::::::::::::::::::::::::::::::::::::

      ----------------------------------------------------------- 
     |                       L-ANC optimizer                     |
      ----------------------------------------------------------- 
          low memory version by Sebastian Ehlert

          ...................................................
          :                      SETUP                      :
          :.................................................:
          :   energy convergence        0.5000000E-05 Eh    :
          :   grad. convergence         0.1000000E-02 Eh/a0 :
          :   optimization log               true           :
          :   writing optlog all                1     steps :
          :   Hessian reset                     8     steps :
          :   maximium step len.        1.0000000     a0    :
          :   LBFGS images                      8           :
          ...................................................
 * calculating model hessian...
Using Lindh-Hessian (1995)
 Shifting diagonal of input Hessian by   1.000000000000000E-002
 Lowest  eigenvalues of input Hessian
    0.000000    0.000000    0.000000    0.000000    0.000000    0.000000
    0.015324    0.018422    0.022105    0.028479    0.029145    0.037570
    0.051130    0.051193    0.065729    0.078873    0.097983    0.101703
 Highest eigenvalues
    1.651459    1.768176    1.899424    2.004807    2.115088    2.235761
 

........................................................................
.............................. CYCLE    1 ..............................
........................................................................
                         * ORCA takes the control...
  ------------------------------------------------------------------------

                                 *****************
                                 * O   R   C   A *
                                 *****************

                                            #,                                       
                                            ###                                      
                                            ####                                     
                                            #####                                    
                                            ######                                   
                                           ########,                                 
                                     ,,################,,,,,                         
                               ,,#################################,,                 
                          ,,##########################################,,             
                       ,#########################################, ''#####,          
                    ,#############################################,,   '####,        
                  ,##################################################,,,,####,       
                ,###########''''           ''''###############################       
              ,#####''   ,,,,##########,,,,          '''####'''          '####       
            ,##' ,,,,###########################,,,                        '##       
           ' ,,###''''                  '''############,,,                           
         ,,##''                                '''############,,,,        ,,,,,,###''
      ,#''                                            '''#######################'''  
     '                                                          ''''####''''         
             ,#######,   #######,   ,#######,      ##                                
            ,#'     '#,  ##    ##  ,#'     '#,    #''#        ,####,   ,####,        
            ##       ##  ##   ,#'  ##            #'  '#       #'       #'  '#        
            ##       ##  #######   ##           ,######,      #####,   #    #        
            '#,     ,#'  ##    ##  '#,     ,#' ,#      #,     #,   #   #,  ,#        
             '#######'   ##     ##  '#######'  #'      '#     '####' # '####'        



                #########################################################
                #                        -***-                          #
                #          Department of theory and spectroscopy        #
                #                                                       #
                #                      Frank Neese                      #
                #                                                       #
                #     Directorship, Architecture, Infrastructure        #
                #                    SHARK, DRIVERS                     #
                #        Core code/Algorithms in most modules           #
                #                                                       #
                #        Max Planck Institute fuer Kohlenforschung      #
                #                Kaiser Wilhelm Platz 1                 #
                #                 D-45470 Muelheim/Ruhr                 #
                #                      Germany                          #
                #                                                       #
                #                  All rights reserved                  #
                #                        -***-                          #
                #########################################################


                         Program Version 6.0.0  -   RELEASE  -


 With contributions from (in alphabetic order):
   Daniel Aravena         : Magnetic Suceptibility
   Michael Atanasov       : Ab Initio Ligand Field Theory (pilot matlab implementation)
   Alexander A. Auer      : GIAO ZORA, VPT2 properties, NMR spectrum
   Ute Becker             : All parallelization in ORCA, NUMFREQ, NUMCALC
   Giovanni Bistoni       : ED, misc. LED, open-shell LED, HFLD
   Martin Brehm           : Molecular dynamics
   Dmytro Bykov           : pre 5.0 version of the SCF Hessian
   Marcos Casanova-Páez   : Triplet and SCS-CIS(D). UHF-(DLPNO)-IP/EA/STEOM-CCSD. UHF-CVS-IP/STEOM-CCSD
   Vijay G. Chilkuri      : MRCI spin determinant printing, contributions to CSF-ICE
   Pauline Colinet        : FMM embedding
   Dipayan Datta          : RHF DLPNO-CCSD density
   Achintya Kumar Dutta   : EOM-CC, STEOM-CC
   Nicolas Foglia         : Exact transition moments, OPA infrastructure, MCD improvements
   Dmitry Ganyushin       : Spin-Orbit,Spin-Spin,Magnetic field MRCI
   Miquel Garcia          : C-PCM and meta-GGA Hessian, CCSD/C-PCM, Gaussian charge scheme
   Tiago L. C. Gouveia    : GS-ROHF, GS-ROCIS
   Yang Guo               : DLPNO-NEVPT2, F12-NEVPT2, CIM, IAO-localization
   Andreas Hansen         : Spin unrestricted coupled pair/coupled cluster methods
   Ingolf Harden          : AUTO-CI MPn and infrastructure 
   Benjamin Helmich-Paris : MC-RPA, TRAH-(SCF,CASSCF), AVAS, COSX integrals, SCF dyn. polar.
   Lee Huntington         : MR-EOM, pCC
   Robert Izsak           : Overlap fitted RIJCOSX, COSX-SCS-MP3, EOM
   Riya Kayal             : Wick's Theorem for AUTO-CI, AUTO-CI UHF-CCSDT
   Emily Kempfer          : AUTO-CI, RHF CISDT and CCSDT
   Christian Kollmar      : KDIIS, OOCD, Brueckner-CCSD(T), CCSD density, CASPT2, CASPT2-K, improved NEVPT2
   Axel Koslowski         : Symmetry handling
   Simone Kossmann        : Meta GGA functionals, TD-DFT gradient, OOMP2, (MP2 Hessian; deprecated post 5.0)
   Lucas Lang             : DCDCAS
   Marvin Lechner         : AUTO-CI (C++ implementation), FIC-MRCC
   Spencer Leger          : CASSCF response
   Dagmar Lenk            : GEPOL surface, SMD, ORCA-2-JSON
   Dimitrios Liakos       : Extrapolation schemes; Compound Job, initial MDCI parallelization
   Dimitrios Manganas     : Further ROCIS development; embedding schemes. LFT, Crystal Embedding
   Dimitrios Pantazis     : SARC Basis sets
   Anastasios Papadopoulos: AUTO-CI, single reference methods and gradients
   Taras Petrenko         : pre 6.0 DFT Hessian and TD-DFT gradient, (ASA, deprecated), ECA, 1-Electron XAS/XES, NRVS
   Peter Pinski           : DLPNO-MP2, DLPNO-MP2 Gradient
   Christoph Reimann      : Effective Core Potentials
   Marius Retegan         : Local ZFS, SOC
   Christoph Riplinger    : Optimizer, TS searches, QM/MM, DLPNO-CCSD(T), (RO)-DLPNO pert. Triples
   Michael Roemelt        : Original ROCIS implementation
   Masaaki Saitow         : Open-shell DLPNO-CCSD energy and density
   Barbara Sandhoefer     : DKH picture change effects
   Kantharuban Sivalingam : CASSCF convergence/infrastructure, NEVPT2 and variants, FIC-MRCI
   Bernardo de Souza      : ESD, SOC TD-DFT
   Georgi Stoychev        : AutoAux, RI-MP2 NMR, DLPNO-MP2 response, X2C
   Van Anh Tran           : RI-MP2 g-tensors
   Willem Van den Heuvel  : Paramagnetic NMR
   Zikuan Wang            : NOTCH, Electric field optimization 
   Frank Wennmohs         : Technical directorship and infrastructure
   Hang Xu                : AUTO-CI-Response properties 


 We gratefully acknowledge several colleagues who have allowed us to
 interface, adapt or use parts of their codes:
   Stefan Grimme, W. Hujo, H. Kruse, P. Pracht,  : VdW corrections, initial TS optimization,
                  C. Bannwarth, S. Ehlert,         DFT functionals, gCP, sTDA/sTD-DF
                  L. Wittmann, M. Mueller
   Ed Valeev, F. Pavosevic, A. Kumar             : LibInt (2-el integral package), F12 methods
   Garnet Chan, S. Sharma, J. Yang, R. Olivares  : DMRG
   Ulf Ekstrom                                   : XCFun DFT Library
   Mihaly Kallay                                 : mrcc  (arbitrary order and MRCC methods)
   Frank Weinhold                                : gennbo (NPA and NBO analysis)
   Simon Mueller                                 : openCOSMO-RS
   Christopher J. Cramer and Donald G. Truhlar   : smd solvation model
   Lars Goerigk                                  : TD-DFT with DH, B97 family of functionals
   V. Asgeirsson, H. Jonsson                     : NEB implementation
   FAccTs GmbH                                   : IRC, NEB, NEB-TS, DLPNO-Multilevel, CI-OPT
                                                   MM, QMMM, 2- and 3-layer-ONIOM, Crystal-QMMM,
                                                   LR-CPCM, SF, NACMEs, symmetry and pop. for TD-DFT,
                                                   nearIR, NL-DFT gradient (VV10), updates on ESD,
                                                   ML-optimized integration grids, MBIS, APM,
                                                   GOAT, DOCKER, SOLVATOR, interface openCOSMO-RS
   S Lehtola, MJT Oliveira, MAL Marques          : LibXC Library
   Liviu Ungur et al                             : ANISO software


 Your calculation uses the libint2 library for the computation of 2-el integrals
 For citations please refer to: http://libint.valeyev.net

 Your ORCA version has been built with support for libXC version: 6.2.2
 For citations please refer to: https://libxc.gitlab.io

 This ORCA versions uses:
   CBLAS   interface :  Fast vector & matrix operations
   LAPACKE interface :  Fast linear algebra routines
   SCALAPACK package :  Parallel linear algebra routines
   Shared memory     :  Shared parallel matrices
   BLAS/LAPACK       :  OpenBLAS 0.3.27  USE64BITINT DYNAMIC_ARCH NO_AFFINITY SkylakeX SINGLE_THREADED
        Core in use  :  SkylakeX
   Copyright (c) 2011-2014, The OpenBLAS Project




***************************************
The coordinates will be read from file: xtb_opt.xyz
***************************************


Your calculation utilizes the geometrical counterpoise correction gCP
Please cite in your paper:
H.Kruse, S. Grimme J.Chem.Phys., 136, (2012), 154101 
   

Your calculation utilizes the atom-pairwise dispersion correction
based on EEQ partial charges (D4)


Your calculation utilizes the SMD solvation module
Please cite in your paper:
A.V. Marenich, C.J. Cramer, D.G. Truhlar J. Phys. Chem. B, 113, (2009), 6378 

================================================================================

----- Orbital basis set information -----
Your calculation utilizes the basis: def2-mTZVPP
   Stefan Grimme, Andreas Hansen, Sebastian Ehlert, and Jan-Michael Mewes 
   J. Chem. Phys. 154, 064103 (2021). DOI: 10.1063/5.0040021

----- AuxJ basis set information -----
Your calculation utilizes the auxiliary basis: def2/J
   F. Weigend, Phys. Chem. Chem. Phys. 8, 1057 (2006).

================================================================================
                                        WARNINGS
                       Please study these warnings very carefully!
================================================================================

WARNING: Old DensityContainer found on disk!
         Will remove this file - 
         If you want to keep old densities, please start your calculation with a different basename. 

Using LibXC functional ID 497 : Re-regularized SCAN exchange by Furness et al
[ 1]  J. W. Furness, A. D. Kaplan, J. Ning, J. P. Perdew, and J. Sun.,  J. Phys. Chem. Lett. 11, 8208-8215 (2020)
[ 2]  J. W. Furness, A. D. Kaplan, J. Ning, J. P. Perdew, and J. Sun.,  J. Phys. Chem. Lett. 11, 9248-9248 (2020)
Using LibXC functional ID 498 : Re-regularized SCAN correlation by Furness et al
[ 1]  J. W. Furness, A. D. Kaplan, J. Ning, J. P. Perdew, and J. Sun.,  J. Phys. Chem. Lett. 11, 8208-8215 (2020)
[ 2]  J. W. Furness, A. D. Kaplan, J. Ning, J. P. Perdew, and J. Sun.,  J. Phys. Chem. Lett. 11, 9248-9248 (2020)
Using LibXC functional ID 497 : Re-regularized SCAN exchange by Furness et al
[ 1]  J. W. Furness, A. D. Kaplan, J. Ning, J. P. Perdew, and J. Sun.,  J. Phys. Chem. Lett. 11, 8208-8215 (2020)
[ 2]  J. W. Furness, A. D. Kaplan, J. Ning, J. P. Perdew, and J. Sun.,  J. Phys. Chem. Lett. 11, 9248-9248 (2020)
Using LibXC functional ID 498 : Re-regularized SCAN correlation by Furness et al
[ 1]  J. W. Furness, A. D. Kaplan, J. Ning, J. P. Perdew, and J. Sun.,  J. Phys. Chem. Lett. 11, 8208-8215 (2020)
[ 2]  J. W. Furness, A. D. Kaplan, J. Ning, J. P. Perdew, and J. Sun.,  J. Phys. Chem. Lett. 11, 9248-9248 (2020)

================================================================================
                                       INPUT FILE
================================================================================
NAME = xtb_opt.inp
|  1> ! r2scan-3c def2/J RI DEFGRID2 scfconv7 ENGRAD tightSCF miniprint
|  2> %cpcm
|  3>     smd true
|  4>     smdsolvent "water"
|  5> end
|  6> * xyzfile 0 1 xtb_opt.xyz
|  7> 
|  8>                          ****END OF INPUT****
================================================================================

                     *******************************
                     * Energy+Gradient Calculation *
                     *******************************

---------------------------------
CARTESIAN COORDINATES (ANGSTROEM)
---------------------------------
  C     -0.995619   -1.816185    0.000044
  C      0.376819   -1.613244    0.000023
  C      0.873774   -0.304594   -0.000013
  C      0.002694    0.788006   -0.000034
  C     -1.370331    0.573099    0.000000
  C     -1.868715   -0.734470    0.000015
  O     -2.183593    1.663636    0.000010
  C      2.321722   -0.093237    0.000059
  O      2.872083    0.999852   -0.000012
  H     -1.397111   -2.822594    0.000083
  H      1.063063   -2.452951    0.000023
  H      0.397319    1.797751   -0.000045
  H     -2.941307   -0.900653    0.000020
  H     -3.112882    1.392880    0.000114
  H      2.927131   -1.021575   -0.000038

----------------------------
CARTESIAN COORDINATES (A.U.)
----------------------------
  NO LB      ZA    FRAG     MASS         X           Y           Z
   0 C     6.0000    0    12.011   -1.881447   -3.432092    0.000084
   1 C     6.0000    0    12.011    0.712084   -3.048589    0.000043
   2 C     6.0000    0    12.011    1.651193   -0.575599   -0.000024
   3 C     6.0000    0    12.011    0.005092    1.489116   -0.000065
   4 C     6.0000    0    12.011   -2.589550    1.083001    0.000000
   5 C     6.0000    0    12.011   -3.531360   -1.387947    0.000029
   6 O     8.0000    0    15.999   -4.126394    3.143816    0.000018
   7 C     6.0000    0    12.011    4.387418   -0.176193    0.000112
   8 O     8.0000    0    15.999    5.427450    1.889446   -0.000023
   9 H     1.0000    0     1.008   -2.640158   -5.333930    0.000156
  10 H     1.0000    0     1.008    2.008898   -4.635406    0.000043
  11 H     1.0000    0     1.008    0.750825    3.397258   -0.000085
  12 H     1.0000    0     1.008   -5.558264   -1.701987    0.000038
  13 H     1.0000    0     1.008   -5.882494    2.632161    0.000215
  14 H     1.0000    0     1.008    5.531475   -1.930497   -0.000073

------------------------------------------------------------------------------
                   ___                                                        
                  /   \      - P O W E R E D   B Y -                         
                 /     \                                                     
                 |  |  |   _    _      __       _____    __    __             
                 |  |  |  | |  | |    /  \     |  _  \  |  |  /  |          
                  \  \/   | |  | |   /    \    | | | |  |  | /  /          
                 / \  \   | |__| |  /  /\  \   | |_| |  |  |/  /          
                |  |  |   |  __  | /  /__\  \  |    /   |      \           
                |  |  |   | |  | | |   __   |  |    \   |  |\   \          
                \     /   | |  | | |  |  |  |  | |\  \  |  | \   \       
                 \___/    |_|  |_| |__|  |__|  |_| \__\ |__|  \__/        
                                                                              
                      - O R C A' S   B I G   F R I E N D -                    
                                      &                                       
                       - I N T E G R A L  F E E D E R -                       
                                                                              
 v1 FN, 2020, v2 2021, v3 2022-2024                                           
------------------------------------------------------------------------------


----------------------
SHARK INTEGRAL PACKAGE
----------------------

Number of atoms                             ...     15
Number of basis functions                   ...    211
Number of shells                            ...    101
Maximum angular momentum                    ...      2
Integral batch strategy                     ... SHARK/LIBINT Hybrid
RI-J (if used) integral strategy            ... SPLIT-RIJ (Revised 2003 algorithm where possible)
Printlevel                                  ...      1
Contraction scheme used                     ... SEGMENTED contraction
Prescreening option                         ... SCHWARTZ
   Thresh                                   ... 3.000e-11
   Tcut                                     ... 1.000e-12
   Tpresel                                  ... 1.000e-12 
Coulomb Range Separation                    ... NOT USED
Exchange Range Separation                   ... NOT USED
Multipole approximations                    ... NOT USED
Finite Nucleus Model                        ... NOT USED
CABS basis                                  ... NOT available
Auxiliary Coulomb fitting basis             ... AVAILABLE
   # of basis functions in Aux-J            ...    507
   # of shells in Aux-J                     ...    165
   Maximum angular momentum in Aux-J        ...      4
Auxiliary J/K fitting basis                 ... NOT available
Auxiliary Correlation fitting basis         ... NOT available
Auxiliary 'external' fitting basis          ... NOT available

Checking pre-screening integrals            ... done (  0.0 sec) Dimension = 101
Check shell pair data                       ... done (  0.0 sec)
Shell pair information
Shell pair cut-off parameter TPreSel        ...   1.0e-12
Total number of shell pairs                 ...      5151
Shell pairs after pre-screening             ...      4617
Total number of primitive shell pairs       ...     19131
Primitive shell pairs kept                  ...     12219
          la=0 lb=0:   1420 shell pairs
          la=1 lb=0:   1709 shell pairs
          la=1 lb=1:    526 shell pairs
          la=2 lb=0:    560 shell pairs
          la=2 lb=1:    340 shell pairs
          la=2 lb=2:     62 shell pairs

Calculating one electron integrals          ... done (  0.0 sec)
Calculating RI/J V-Matrix + Cholesky decomp.... done (  0.1 sec)
Calculating Nuclear repulsion               ... done (  0.0 sec) ENN=    400.765429972414 Eh

Diagonalization of the overlap matrix:
Smallest eigenvalue                        ... 3.084e-05
Time for diagonalization                   ...    0.004 sec
Threshold for overlap eigenvalues          ... 1.000e-07
Number of eigenvalues below threshold      ... 0
Time for construction of square roots      ...    0.015 sec
Total time needed                          ...    0.027 sec

-------------------
DFT GRID GENERATION
-------------------

General Integration Accuracy     IntAcc      ... 4.388
Radial Grid Type                 RadialGrid  ... OptM3 with GC (2021)
Angular Grid (max. ang.)         AngularGrid ... 4 (Lebedev-302)
Angular grid pruning method      GridPruning ... 4 (adaptive)
Weight generation scheme         WeightScheme... mBecke (2022)
Basis function cutoff            BFCut       ... 1.0000e-11
Integration weight cutoff        WCut        ... 1.0000e-14
Partially contracted basis set               ... off
Rotationally invariant grid construction     ... off
Angular grids for H and He will be reduced by one unit
Diffuse basis detected: some atoms will have their outermost
                        angular grid increased by 1.

Total number of grid points                  ...    74203
Total number of batches                      ...     1166
Average number of points per batch           ...       63
Average number of grid points per atom       ...     4947
Initializing property integral containers    ... done (  0.0 sec)

SHARK setup successfully completed in   0.9 seconds

Maximum memory used throughout the entire STARTUP-calculation: 34.4 MB
Occupation numbers will be reassigned to an Aufbau configuration
             **** ENERGY FILE WAS UPDATED (xtb_opt.en.tmp) ****
Finished Guess after   0.3 sec
Maximum memory used throughout the entire GUESS-calculation: 14.6 MB
--------------------
CPCM SOLVATION MODEL
--------------------
CPCM parameters:
  Epsilon                                         ...      78.3550
  Refrac                                          ...       1.3328
  Rsolv                                           ...       1.3000
  Surface type                                    ... GAUSSIAN VDW
  Discretization scheme                           ... Constant charge density
    Threshold for H atoms                         ...       5.0000 (charges/Ang^2)
    Threshold for non-H atoms                     ...       5.0000 (charges/Ang^2)
  Epsilon function type                           ...         CPCM
Solvent:                                          ... WATER
SMD-CDS solvent descriptors:
  Soln                                            ...       1.3328
  Soln25                                          ...       1.3323
  Sola                                            ...       0.0000
  Solb                                            ...       0.0000
  Solg                                            ...       0.0000
  Solc                                            ...       0.0000
  Solh                                            ...       0.0000
Radii:
  Scheme                                          ... Element-dependent radii
  Radius for C  used is    3.4960 Bohr (=   1.8500 Ang.)
  Radius for O  used is    2.8724 Bohr (=   1.5200 Ang.)
  Radius for H  used is    2.2677 Bohr (=   1.2000 Ang.)
Calculating surface                               ...        done! (  0.0s)
Cavity surface points                             ...         1184
Cavity Volume                                     ...     815.0621
Cavity Surface-area                               ...     514.1794
Calculating surface distance matrix               ...        done! (  0.0s)
Performing Cholesky decomposition & store         ...        done! (  0.1s)
Overall time for CPCM initialization              ...                 0.1s

----------------------------------------D-I-I-S--------------------------------------------
Iteration    Energy (Eh)           Delta-E    RMSDP     MaxDP     DIISErr   Damp  Time(sec)
-------------------------------------------------------------------------------------------
               ***  Starting incremental Fock matrix formation  ***
    1    -420.7328096694434976     0.00e+00  1.20e-04  3.66e-03  4.83e-03  0.700   2.5
                              *** Initializing SOSCF ***
---------------------------------------S-O-S-C-F--------------------------------------
Iteration    Energy (Eh)           Delta-E    RMSDP     MaxDP     MaxGrad    Time(sec)
--------------------------------------------------------------------------------------
    2    -420.7328799095309364    -7.02e-05  3.61e-04  1.23e-02  2.95e-03     2.1
               *** Restarting incremental Fock matrix formation ***
    3    -420.7330346704774797    -1.55e-04  2.54e-04  9.16e-03  5.29e-04     2.5
    4    -420.7330291212135194     5.55e-06  8.85e-05  2.32e-03  6.55e-04     2.1
    5    -420.7330412121564791    -1.21e-05  4.12e-05  1.55e-03  2.39e-04     2.1
    6    -420.7330404918899944     7.20e-07  2.45e-05  9.23e-04  2.26e-04     2.1
    7    -420.7330422618694570    -1.77e-06  1.89e-05  6.67e-04  4.27e-05     2.0
    8    -420.7330421039497992     1.58e-07  1.27e-05  4.60e-04  6.92e-05     1.9
    9    -420.7330423417216139    -2.38e-07  1.21e-06  2.77e-05  3.97e-06     1.9
                  *** Gradient check signals convergence ***

               *****************************************************
               *                     SUCCESS                       *
               *           SCF CONVERGED AFTER   9 CYCLES          *
               *****************************************************


SMD CDS free energy correction energy :                 4.87592     Kcal/mol
Total Energy after SMD CDS correction =              -420.725272076 Eh
             **** ENERGY FILE WAS UPDATED (xtb_opt.en.tmp) ****

----------------
TOTAL SCF ENERGY
----------------

Total Energy       :       -420.72527207574967 Eh          -11448.51668 eV

Components:
Nuclear Repulsion  :        400.76542997241353 Eh           10905.38177 eV
Electronic Energy  :       -821.46970172391673 Eh          -22353.32701 eV
One Electron Energy:      -1365.50043425885519 Eh          -37157.15585 eV
Two Electron Energy:        544.03073253493847 Eh           14803.82884 eV
CPCM Dielectric    :         -0.02877059021839 Eh              -0.78289 eV
SMD CDS (Gcds)     :          0.00777026597197 Eh               0.21144 eV

Virial components:
Potential Energy   :       -839.69987444930678 Eh          -22849.39522 eV
Kinetic Energy     :        418.97460237355710 Eh           11400.87854 eV
Virial Ratio       :          2.00417846259003

DFT components:
N(Alpha)           :       31.999956034993 electrons
N(Beta)            :       31.999956034993 electrons
N(Total)           :       63.999912069987 electrons
E(X)               :      -55.135373396964 Eh       
E(C)               :       -2.094865400190 Eh       
E(XC)              :      -57.230238797154 Eh       

CPCM Solvation Model Properties:
Surface-charge          :         -0.04275222256921
Corrected charge        :         -0.00000000000000
Outlying charge corr.   :          0.00014510943571 Eh               0.00395 eV
Free-energy (cav+disp)  :          0.00777026597197 Eh               0.21144 eV

---------------
SCF CONVERGENCE
---------------

  Last Energy change         ...    2.3777e-07  Tolerance :   1.0000e-07
  Last MAX-Density change    ...    2.7699e-05  Tolerance :   1.0000e-07
  Last RMS-Density change    ...    1.2131e-06  Tolerance :   5.0000e-09
  Last DIIS Error            ...    2.9539e-03  Tolerance :   1.0000e-07
  Last Orbital Gradient      ...    3.9680e-06  Tolerance :   1.0000e-04
  Last Orbital Rotation      ...    2.5464e-05  Tolerance :   1.0000e-04


----------------
ORBITAL ENERGIES
----------------

  NO   OCC          E(Eh)            E(eV) 
   0   2.0000     -18.988666      -516.7079 
   1   2.0000     -18.956840      -515.8418 
   2   2.0000     -10.125399      -275.5261 
   3   2.0000     -10.109919      -275.1049 
   4   2.0000     -10.055062      -273.6122 
   5   2.0000     -10.049486      -273.4604 
   6   2.0000     -10.047750      -273.4132 
   7   2.0000     -10.046391      -273.3762 
   8   2.0000     -10.045827      -273.3608 
   9   2.0000      -1.032933       -28.1075 
  10   2.0000      -1.015855       -27.6428 
  11   2.0000      -0.835732       -22.7414 
  12   2.0000      -0.741270       -20.1710 
  13   2.0000      -0.723884       -19.6979 
  14   2.0000      -0.630814       -17.1653 
  15   2.0000      -0.589102       -16.0303 
  16   2.0000      -0.562629       -15.3099 
  17   2.0000      -0.502318       -13.6688 
  18   2.0000      -0.474881       -12.9222 
  19   2.0000      -0.459621       -12.5069 
  20   2.0000      -0.421621       -11.4729 
  21   2.0000      -0.414427       -11.2771 
  22   2.0000      -0.402220       -10.9450 
  23   2.0000      -0.399282       -10.8650 
  24   2.0000      -0.376137       -10.2352 
  25   2.0000      -0.363659        -9.8957 
  26   2.0000      -0.346401        -9.4260 
  27   2.0000      -0.320454        -8.7200 
  28   2.0000      -0.319832        -8.7031 
  29   2.0000      -0.252713        -6.8767 
  30   2.0000      -0.237494        -6.4625 
  31   2.0000      -0.220427        -5.9981 
  32   0.0000      -0.101349        -2.7579 
  33   0.0000      -0.032834        -0.8935 
  34   0.0000       0.006903         0.1878 
  35   0.0000       0.078449         2.1347 
  36   0.0000       0.090825         2.4715 
  37   0.0000       0.111061         3.0221 
  38   0.0000       0.116003         3.1566 
  39   0.0000       0.119932         3.2635 
  40   0.0000       0.137896         3.7523 
  41   0.0000       0.139038         3.7834 
  42   0.0000       0.161328         4.3900 
*Only the first 10 virtual orbitals were printed.
Total SCF time: 0 days 0 hours 0 min 19 sec 
Finished LeanSCF after  19.8 sec

Maximum memory used throughout the entire LEANSCF-calculation: 23.5 MB


-------------------------------------------------------------------------------
                          DFT DISPERSION CORRECTION                            
                                                                               
                                DFTD4 V3.4.0                                   
-------------------------------------------------------------------------------
-------------------------   ----------------
Dispersion correction           -0.004920294
-------------------------   ----------------

------------------   -----------------
gCP correction             0.004872609
------------------   -----------------

-------------------------   --------------------
FINAL SINGLE POINT ENERGY      -420.725319761366
-------------------------   --------------------

------------------------------------------------------------------------------
                         ORCA SCF GRADIENT CALCULATION
------------------------------------------------------------------------------

Nuc. rep. gradient        (SHARK) ... done (  0.0 sec)
HCore & Overlap gradient  (SHARK) ... done (  0.2 sec)
Split-RIJ-J gradient      (SHARK) ... done (  1.3 sec)
XC gradient                       ... done (  4.3 sec)
CPCM gradient                     ... done (  0.6 sec)
SMD gradient                      ... done (  0.0 sec)
Dispersion correction             ... done (  0.0 sec)

-------------------
DISPERSION GRADIENT
-------------------

   1   C   :   -0.000040865   -0.000078753    0.000000001
   2   C   :    0.000019955   -0.000068698    0.000000001
   3   C   :    0.000051610   -0.000003559   -0.000000001
   4   C   :    0.000003701    0.000048163   -0.000000002
   5   C   :   -0.000063671    0.000037835   -0.000000001
   6   C   :   -0.000074296   -0.000019544    0.000000000
   7   O   :   -0.000078971    0.000060068    0.000000002
   8   C   :    0.000099219    0.000007667    0.000000001
   9   O   :    0.000084857    0.000038572   -0.000000001
  10   H   :   -0.000017244   -0.000040242    0.000000001
  11   H   :    0.000015788   -0.000038869    0.000000000
  12   H   :    0.000010423    0.000039846   -0.000000001
  13   H   :   -0.000037243   -0.000008858    0.000000000
  14   H   :   -0.000015664    0.000029306   -0.000000001
[...]

DFT components:
N(Alpha)           :       31.999961349014 electrons
N(Beta)            :       31.999961349014 electrons
N(Total)           :       63.999922698028 electrons
E(X)               :      -55.123582872788 Eh       
E(C)               :       -2.094161610071 Eh       
E(XC)              :      -57.217744482860 Eh       

CPCM Solvation Model Properties:
Surface-charge          :         -0.04277115784796
Corrected charge        :         -0.00000000000000
Outlying charge corr.   :          0.00014518124736 Eh               0.00395 eV
Free-energy (cav+disp)  :          0.00765462461225 Eh               0.20829 eV

---------------
SCF CONVERGENCE
---------------

  Last Energy change         ...    2.4009e-07  Tolerance :   1.0000e-07
  Last MAX-Density change    ...    4.2040e-05  Tolerance :   1.0000e-07
  Last RMS-Density change    ...    1.3353e-06  Tolerance :   5.0000e-09
  Last DIIS Error            ...    1.3366e-04  Tolerance :   1.0000e-07
  Last Orbital Gradient      ...    5.0163e-06  Tolerance :   1.0000e-04
  Last Orbital Rotation      ...    1.9775e-05  Tolerance :   1.0000e-04


----------------
ORBITAL ENERGIES
----------------

  NO   OCC          E(Eh)            E(eV) 
   0   2.0000     -18.988100      -516.6925 
   1   2.0000     -18.957020      -515.8467 
   2   2.0000     -10.125953      -275.5412 
   3   2.0000     -10.110272      -275.1145 
   4   2.0000     -10.055905      -273.6351 
   5   2.0000     -10.050664      -273.4925 
   6   2.0000     -10.048902      -273.4445 
   7   2.0000     -10.047381      -273.4031 
   8   2.0000     -10.046850      -273.3887 
   9   2.0000      -1.029362       -28.0104 
  10   2.0000      -1.014866       -27.6159 
  11   2.0000      -0.835781       -22.7427 
  12   2.0000      -0.741341       -20.1729 
  13   2.0000      -0.723978       -19.7004 
  14   2.0000      -0.630660       -17.1611 
  15   2.0000      -0.587762       -15.9938 
  16   2.0000      -0.561873       -15.2893 
  17   2.0000      -0.501044       -13.6341 
  18   2.0000      -0.474564       -12.9135 
  19   2.0000      -0.459354       -12.4997 
  20   2.0000      -0.421056       -11.4575 
  21   2.0000      -0.414372       -11.2756 
  22   2.0000      -0.402931       -10.9643 
  23   2.0000      -0.398249       -10.8369 
  24   2.0000      -0.374907       -10.2017 
  25   2.0000      -0.364682        -9.9235 
  26   2.0000      -0.346654        -9.4329 
  27   2.0000      -0.321022        -8.7354 
  28   2.0000      -0.319751        -8.7009 
  29   2.0000      -0.253099        -6.8872 
  30   2.0000      -0.237706        -6.4683 
  31   2.0000      -0.221073        -6.0157 
  32   0.0000      -0.101758        -2.7690 
  33   0.0000      -0.033749        -0.9184 
  34   0.0000       0.005706         0.1553 
  35   0.0000       0.078019         2.1230 
  36   0.0000       0.089703         2.4409 
  37   0.0000       0.110689         3.0120 
  38   0.0000       0.115534         3.1438 
  39   0.0000       0.118724         3.2306 
  40   0.0000       0.137582         3.7438 
  41   0.0000       0.138887         3.7793 
  42   0.0000       0.161029         4.3818 
*Only the first 10 virtual orbitals were printed.
Total SCF time: 0 days 0 hours 0 min 9 sec 
Finished LeanSCF after   9.3 sec

Maximum memory used throughout the entire LEANSCF-calculation: 23.5 MB


-------------------------------------------------------------------------------
                          DFT DISPERSION CORRECTION                            
                                                                               
                                DFTD4 V3.4.0                                   
-------------------------------------------------------------------------------
-------------------------   ----------------
Dispersion correction           -0.004917775
-------------------------   ----------------

------------------   -----------------
gCP correction             0.004869878
------------------   -----------------

-------------------------   --------------------
FINAL SINGLE POINT ENERGY      -420.725490460491
-------------------------   --------------------

------------------------------------------------------------------------------
                         ORCA SCF GRADIENT CALCULATION
------------------------------------------------------------------------------

Nuc. rep. gradient        (SHARK) ... done (  0.0 sec)
HCore & Overlap gradient  (SHARK) ... done (  0.2 sec)
Split-RIJ-J gradient      (SHARK) ... done (  1.3 sec)
XC gradient                       ... done (  4.3 sec)
CPCM gradient                     ... done (  0.6 sec)
SMD gradient                      ... done (  0.0 sec)
Dispersion correction             ... done (  0.0 sec)

-------------------
DISPERSION GRADIENT
-------------------

   1   C   :   -0.000040858   -0.000078821    0.000000006
   2   C   :    0.000020110   -0.000068460   -0.000000007
   3   C   :    0.000051647   -0.000003378   -0.000000013
   4   C   :    0.000003643    0.000048624   -0.000000000
   5   C   :   -0.000063582    0.000037880    0.000000010
   6   C   :   -0.000074339   -0.000019513    0.000000011
   7   O   :   -0.000078797    0.000059404    0.000000008
   8   C   :    0.000099143    0.000007262   -0.000000052
   9   O   :    0.000084939    0.000038217    0.000000017
  10   H   :   -0.000017269   -0.000040286    0.000000003
  11   H   :    0.000015891   -0.000038717   -0.000000004
  12   H   :    0.000010130    0.000040130   -0.000000000
  13   H   :   -0.000037254   -0.000008807    0.000000004
  14   H   :   -0.000015791    0.000029615    0.000000002
  15   H   :    0.000042387   -0.000003151    0.000000015

Difference to translation invariance:
           :    0.0000000000    0.0000000000    0.0000000000

Difference to rotation invariance:
           :    0.0000000000   -0.0000000000    0.0000000000

Norm of the Dispersion gradient    ...    0.0002597952
RMS gradient                       ...    0.0000387280
MAX gradient                       ...    0.0000991433
gCP correction                   ... done

------------------
CARTESIAN GRADIENT
------------------

   1   C   :   -0.000039931   -0.000000407   -0.000018613
   2   C   :    0.000185808   -0.000021282    0.000010147
   3   C   :   -0.000197954    0.000118011    0.000204867
   4   C   :    0.000036369    0.000070818    0.000041381
   5   C   :    0.000072954   -0.000108117   -0.000015814
   6   C   :   -0.000062790   -0.000074740   -0.000001340
   7   O   :    0.000043618    0.000070176   -0.000007309
   8   C   :    0.000151312   -0.000244336   -0.000708292
   9   O   :   -0.000024532    0.000157783    0.000235607
  10   H   :   -0.000057372   -0.000035952   -0.000002916
  11   H   :    0.000017981   -0.000021499    0.000015632
  12   H   :    0.000000611    0.000018101    0.000004676
  13   H   :   -0.000031234   -0.000017940    0.000001807
  14   H   :   -0.000084327    0.000017847   -0.000001212
  15   H   :   -0.000010514    0.000071538    0.000241378

Difference to translation invariance:
           :    0.0000000000    0.0000000000    0.0000000000

Difference to rotation invariance:
           :   -0.0000004172   -0.0000002642    0.0006265631

Norm of the Cartesian gradient     ...    0.0009577596
RMS gradient                       ...    0.0001427744
MAX gradient                       ...    0.0007082918

-------
TIMINGS
-------

Total SCF gradient time     ....        6.998 sec

Densities                   ....       0.001 sec  (  0.0%)
One electron gradient       ....       0.196 sec  (  2.8%)
RI-J Coulomb gradient       ....       1.320 sec  ( 18.9%)
XC gradient                 ....       4.297 sec  ( 61.4%)
CPCM gradient               ....       0.628 sec  (  9.0%)
   A-Matrix (El+Nuc)        ....       0.045 sec  (  0.6%)
   Potential                ....       0.583 sec  (  8.3%)
SMD gradient                ....       0.011 sec  (  0.2%)

Maximum memory used throughout the entire SCFGRAD-calculation: 34.8 MB

------------------------------------------------------------------------------
                              ORCA PROPERTY CALCULATIONS
------------------------------------------------------------------------------

GBWName                                 ... xtb_opt.gbw
Number of atoms                         ...     15
Number of basis functions               ...    211
Max core memory                         ...   1024 MB

Electric properties:
Dipole moment                           ... YES
Quadrupole moment                       ...  NO
Static polarizability (Dipole/Dipole)   ...  NO
Static polarizability (Dipole/Quad.)    ...  NO
Static polarizability (Quad./Quad.)     ...  NO
Static polarizability (Velocity)        ...  NO

Atomic electric properties:
Dipole moment                           ...  NO
Quadrupole moment                       ...  NO
Static polarizability                   ...  NO

Choice of electric origin               ... Center of mass
Position of electric origin             ...     0.001494     0.002759    -0.000185

General magnetic properties:
Magnetizability                         ...  NO

EPR properties:
g-Tensor (aka g-matrix)                 ...  NO
Zero-Field splitting spin-orbit         ...  NO
Zero-field splitting spin-spin          ...  NO
Hyperfine couplings                     ...  NO (   0 nuclei)
Quadrupole couplings                    ...  NO (   0 nuclei)
Contact density                         ...  NO (   0 nuclei)

NMR properties:
Chemical shifts                         ...  NO (   0 nuclei)
Spin-rotation constants                 ...  NO (   0 nuclei)
Spin-spin couplings                     ...  NO (   0 nuclei,    0 pairs)

Choice of magnetic origin               ... GIAO
Position of magnetic origin             ...     0.000000     0.000000     0.000000

Properties with geometric perturbations:
SCF Hessian                             ...  NO
IR spectrum                             ...  NO
VCD spectrum                            ...  NO
X-ray spectroscopy properties:
SCF XES/XAS/RIXS spectra                ...  NO


-------------
DIPOLE MOMENT
-------------

Method             : SCF
Type of density    : Electron Density
Multiplicity       :   1
Irrep              :   0
Energy             :  -420.7254425637292456 Eh
Relativity type    : 
Basis              : AO
                                X                 Y                 Z
Electronic contribution:      0.698983589       1.920680350      -0.002660695
Nuclear contribution   :     -2.876085217      -3.734075934       0.001989153
                        -----------------------------------------
Total Dipole Moment    :     -2.177101628      -1.813395583      -0.000671542
                        -----------------------------------------
Magnitude (a.u.)       :      2.833403517
Magnitude (Debye)      :      7.201939393



--------------------
Rotational spectrum 
--------------------
 
Rotational constants in cm-1:             0.098415             0.042973             0.029912 
Rotational constants in MHz :          2950.418638          1288.302480           896.740304 

Dipole components along the rotational axes: 
x,y,z [a.u.] :     2.178818    -1.811333    -0.000742 
x,y,z [Debye]:     5.538114    -4.604043    -0.001885 

 

Dipole moment calculation done in   0.0 sec 

Maximum memory used throughout the entire PROP-calculation: 13.3 MB

--------------------------------
SUGGESTED CITATIONS FOR THIS RUN
--------------------------------

Below you find a list of papers that are relevant to this ORCA run
We neither can nor want to force you to cite these papers, but we appreciate if you do
You receive ORCA, which is the product of decades of hard work by many enthusiastic individuals, for free
The only thing we kindly ask in return is that you cite our papers,
We deeply appreciate it, if you show your appreciation for ORCA by not just citing the generic ORCA reference.

Please note that relegating all ORCA citations to the supporting information does *not* help us.
SI sections are not indexed - citations you put there will not count into any citation statistics
But we need these citations in order to attract the funding resources that allow us to do what we are doing

Therefore, if you are a happy ORCA user, please consider citing a few of the papers listed below in the main body of your paper

In addition to the list printed below, the program has created the file xtb_opt.bibtex that contains the list in bibtex format
You can import this file easily into all common literature databanks and citation aid programs


List of essential papers. We consider these as the minimum necessary citations

  1. Neese,F.
     Software update: the ORCA program system, version 5.0
     WIRES Comput. Molec. Sci., 2022 12(1)e1606
     doi.org/10.1002/wcms.1606
  2. Grimme,S.; Hansen,A.; Ehlert,S.; Mewes,J.
     r2SCAN-3c: A 'Swiss army knife' composite electronic-structure method
     J. Chem. Phys., 2021 154 064103
     doi.org/10.1063/5.0040021

List of papers to cite with high priority. The work reported in these papers was absolutely
necessary for this run to complete.
Our perspective: the developers of density functionals and basis sets usually get cited in chemistry papers
Good! But without the algorithms to do something with them, the functionals or basis sets would not do anything.
Hence, in our opinion, the algorithm design and method developments papers are equally worthy of getting cited

  1. Neese,F.
     An improvement of the resolution of the identity approximation for the formation of the Coulomb matrix
     J. Comp. Chem., 2003 24(14)1740-1747
     doi.org/10.1002/jcc.10318
  2. Garcia-Rates,M.; Neese,F.
     Effect of the Solute Cavity on the Solvation Energy and its Derivatives within the Framework of the Gaussian Charge Scheme
     J. Comput. Chem., 2020 41 922-939
     doi.org/10.1002/jcc.26139
  3. Neese,F.
     The SHARK Integral Generation and Digestion System
     J. Comp. Chem., 2022  1-16
     doi.org/10.1002/jcc.26942
  4. Lehtola,S.; Steigemann,C.; Oliveira,M.; Marques,M.
     Recent developments in Libxc - A comprehensive library of functionals for density functional theory
     Software X, 2018 7 
     doi.org/10.1016/j.softx.2017.11.002
  5. Caldeweyher,E.; Bannwarth,C.; Grimme,S.
     Extension of the D3 dispersion coefficient model
     J. Chem. Phys., 2017 147 034112-XXXX
     doi.org/10.1063/1.4993215
  6. Caldeweyher,E.; Ehlert,S.; Hansen,A.; Neugebauer,H.; Spicher,S.; Bannwarth,C.; Grimme,S.
     A generally applicable atomic-charge dependent London dispersion correction
     J. Chem. Phys., 2019 150 154122-XXXX
     doi.org/10.1063/1.5090222
  7. Caldeweyher,E.; Mewes,J.; Ehlert,S.; Grimme,S.
     Extension and evaluation of the D4 London-dispersion model for periodic systems
     Phys. Chem. Chem. Phys., 2020 22(16)8499-8512
     doi.org/10.1039/D0CP00502A

List of suggested additional citations. These are papers that are important in the 'surrounding' of 
of this run, or papers that preceded the highly important papers. If you like your results we are grateful for a citation.

  1. Neese,F.
     The ORCA program system
     WIRES Comput. Molec. Sci., 2012 2(1)73-78
     doi.org/10.1002/wcms.81
  2. Neese,F.
     Software update: the ORCA program system, version 4.0
     WIRES Comput. Molec. Sci., 2018 8(1)1-6
     doi.org/10.1002/wcms.1327
  3. Neese,F.; Wennmohs,F.; Becker,U.; Riplinger,C.
     The ORCA quantum chemistry program package
     J. Chem. Phys., 2020 152 Art. No. L224108
     doi.org/10.1063/5.0004608

List of optional additional citations

  1. Neese,F.
     Approximate second-order SCF convergence for spin unrestricted wavefunctions
     Chem. Phys. Lett., 2000 325(1-3)93-98
     doi.org/10.1016/s0009-2614(00)00662-x

Timings for individual modules:

Sum of individual times          ...       17.758 sec (=   0.296 min)
Startup calculation              ...        0.965 sec (=   0.016 min)   5.4 %
SCF iterations                   ...        9.616 sec (=   0.160 min)  54.1 %
Property calculations            ...        0.094 sec (=   0.002 min)   0.5 %
SCF Gradient evaluation          ...        7.083 sec (=   0.118 min)  39.9 %
                             ****ORCA TERMINATED NORMALLY****
TOTAL RUN TIME: 0 days 0 hours 0 minutes 18 seconds 647 msec
  ------------------------------------------------------------------------
          * successful ORCA run, taking over control again...

         :::::::::::::::::::::::::::::::::::::::::::::::::::::
         ::                  ORCA SUMMARY                   ::
         :::::::::::::::::::::::::::::::::::::::::::::::::::::
         :: total energy            -420.725490460491 Eh    ::
         :: gradient norm              0.000957759624 Eh/a0 ::
         :: HOMO-LUMO gap              0.000000000000 eV    ::
         :::::::::::::::::::::::::::::::::::::::::::::::::::::

           -------------------------------------------------
          |                Property Printout                |
           -------------------------------------------------
           -------------------------------------------------
          |                Geometry Summary                 |
           -------------------------------------------------

      molecular mass/u    :      122.1216056
   center of mass at/Å    :        0.0007957       0.0014776      -0.0000978
  moments of inertia/u·Å² :        0.1712891E+03   0.3922835E+03   0.5635725E+03
rotational constants/cm⁻¹ :        0.9841626E-01   0.4297309E-01   0.2991209E-01

 * 13 selected distances

     #   Z          #   Z                                           value/Å
     1   6 C        2   6 C                                       1.3904495
     2   6 C        3   6 C                                       1.3999205
     3   6 C        4   6 C                                       1.3987155
     4   6 C        5   6 C                                       1.3881248
     1   6 C        6   6 C                                       1.3905597
     5   6 C        6   6 C                                       1.4006796 (max)
     5   6 C        7   8 O                                       1.3716430
     8   6 C        9   8 O                                       1.2258978
     1   6 C       10   1 H                                       1.0849633
     2   6 C       11   1 H                                       1.0856666
     4   6 C       12   1 H                                       1.0850254
     6   6 C       13   1 H                                       1.0866461
     7   8 O       14   1 H                                       0.9676691 (min)

 * 4 distinct bonds (by element types)

   Z      Z             #   av. dist./Å        max./Å        min./Å
   1 H    6 C           4     1.0855754     1.0866461     1.0849633
   6 C    6 C           6     1.3947416     1.4006796     1.3881248
   1 H    8 O           1     0.9676691     0.9676691     0.9676691
   6 C    8 O           2     1.2987704     1.3716430     1.2258978


optimized geometry written to: xtbopt.coord


           -------------------------------------------------
          | TOTAL ENERGY             -420.725490460491 Eh   |
          | GRADIENT NORM               0.000957759624 Eh/α |
           -------------------------------------------------

------------------------------------------------------------------------
 * finished run on 2025/04/04 at 20:11:23.887     
------------------------------------------------------------------------
 total:
 * wall-time:     0 d,  0 h,  2 min,  5.167 sec
 *  cpu-time:     0 d,  0 h,  0 min,  0.462 sec
 * ratio c/w:     0.004 speedup
 SCF:
 * wall-time:     0 d,  0 h,  0 min, 15.314 sec
 *  cpu-time:     0 d,  0 h,  0 min,  0.176 sec
 * ratio c/w:     0.011 speedup
 ANC optimizer:
 * wall-time:     0 d,  0 h,  1 min, 49.832 sec
 *  cpu-time:     0 d,  0 h,  0 min,  0.274 sec
 * ratio c/w:     0.002 speedup

