
                                 *****************
                                 * O   R   C   A *
                                 *****************

                                            #,                                       
                                            ###                                      
                                            ####                                     
                                            #####                                    
                                            ######                                   
                                           ########,                                 
                                     ,,################,,,,,                         
                               ,,#################################,,                 
                          ,,##########################################,,             
                       ,#########################################, ''#####,          
                    ,#############################################,,   '####,        
                  ,##################################################,,,,####,       
                ,###########''''           ''''###############################       
              ,#####''   ,,,,##########,,,,          '''####'''          '####       
            ,##' ,,,,###########################,,,                        '##       
           ' ,,###''''                  '''############,,,                           
         ,,##''                                '''############,,,,        ,,,,,,###''
      ,#''                                            '''#######################'''  
     '                                                          ''''####''''         
             ,#######,   #######,   ,#######,      ##                                
            ,#'     '#,  ##    ##  ,#'     '#,    #''#        ,####,   ,####,        
            ##       ##  ##   ,#'  ##            #'  '#       #'       #'  '#        
            ##       ##  #######   ##           ,######,      #####,   #    #        
            '#,     ,#'  ##    ##  '#,     ,#' ,#      #,     #,   #   #,  ,#        
             '#######'   ##     ##  '#######'  #'      '#     '####' # '####'        



                #########################################################
                #                        -***-                          #
                #          Department of theory and spectroscopy        #
                #                                                       #
                #                      Frank Neese                      #
                #                                                       #
                #     Directorship, Architecture, Infrastructure        #
                #                    SHARK, DRIVERS                     #
                #        Core code/Algorithms in most modules           #
                #                                                       #
                #        Max Planck Institute fuer Kohlenforschung      #
                #                Kaiser Wilhelm Platz 1                 #
                #                 D-45470 Muelheim/Ruhr                 #
                #                      Germany                          #
                #                                                       #
                #                  All rights reserved                  #
                #                        -***-                          #
                #########################################################


                         Program Version 6.0.0  -   RELEASE  -


 With contributions from (in alphabetic order):
   Daniel Aravena         : Magnetic Suceptibility
   Michael Atanasov       : Ab Initio Ligand Field Theory (pilot matlab implementation)
   Alexander A. Auer      : GIAO ZORA, VPT2 properties, NMR spectrum
   Ute Becker             : All parallelization in ORCA, NUMFREQ, NUMCALC
   Giovanni Bistoni       : ED, misc. LED, open-shell LED, HFLD
   Martin Brehm           : Molecular dynamics
   Dmytro Bykov           : pre 5.0 version of the SCF Hessian
   Marcos Casanova-Páez   : Triplet and SCS-CIS(D). UHF-(DLPNO)-IP/EA/STEOM-CCSD. UHF-CVS-IP/STEOM-CCSD
   Vijay G. Chilkuri      : MRCI spin determinant printing, contributions to CSF-ICE
   Pauline Colinet        : FMM embedding
   Dipayan Datta          : RHF DLPNO-CCSD density
   Achintya Kumar Dutta   : EOM-CC, STEOM-CC
   Nicolas Foglia         : Exact transition moments, OPA infrastructure, MCD improvements
   Dmitry Ganyushin       : Spin-Orbit,Spin-Spin,Magnetic field MRCI
   Miquel Garcia          : C-PCM and meta-GGA Hessian, CCSD/C-PCM, Gaussian charge scheme
   Tiago L. C. Gouveia    : GS-ROHF, GS-ROCIS
   Yang Guo               : DLPNO-NEVPT2, F12-NEVPT2, CIM, IAO-localization
   Andreas Hansen         : Spin unrestricted coupled pair/coupled cluster methods
   Ingolf Harden          : AUTO-CI MPn and infrastructure 
   Benjamin Helmich-Paris : MC-RPA, TRAH-(SCF,CASSCF), AVAS, COSX integrals, SCF dyn. polar.
   Lee Huntington         : MR-EOM, pCC
   Robert Izsak           : Overlap fitted RIJCOSX, COSX-SCS-MP3, EOM
   Riya Kayal             : Wick's Theorem for AUTO-CI, AUTO-CI UHF-CCSDT
   Emily Kempfer          : AUTO-CI, RHF CISDT and CCSDT
   Christian Kollmar      : KDIIS, OOCD, Brueckner-CCSD(T), CCSD density, CASPT2, CASPT2-K, improved NEVPT2
   Axel Koslowski         : Symmetry handling
   Simone Kossmann        : Meta GGA functionals, TD-DFT gradient, OOMP2, (MP2 Hessian; deprecated post 5.0)
   Lucas Lang             : DCDCAS
   Marvin Lechner         : AUTO-CI (C++ implementation), FIC-MRCC
   Spencer Leger          : CASSCF response
   Dagmar Lenk            : GEPOL surface, SMD, ORCA-2-JSON
   Dimitrios Liakos       : Extrapolation schemes; Compound Job, initial MDCI parallelization
   Dimitrios Manganas     : Further ROCIS development; embedding schemes. LFT, Crystal Embedding
   Dimitrios Pantazis     : SARC Basis sets
   Anastasios Papadopoulos: AUTO-CI, single reference methods and gradients
   Taras Petrenko         : pre 6.0 DFT Hessian and TD-DFT gradient, (ASA, deprecated), ECA, 1-Electron XAS/XES, NRVS
   Peter Pinski           : DLPNO-MP2, DLPNO-MP2 Gradient
   Christoph Reimann      : Effective Core Potentials
   Marius Retegan         : Local ZFS, SOC
   Christoph Riplinger    : Optimizer, TS searches, QM/MM, DLPNO-CCSD(T), (RO)-DLPNO pert. Triples
   Michael Roemelt        : Original ROCIS implementation
   Masaaki Saitow         : Open-shell DLPNO-CCSD energy and density
   Barbara Sandhoefer     : DKH picture change effects
   Kantharuban Sivalingam : CASSCF convergence/infrastructure, NEVPT2 and variants, FIC-MRCI
   Bernardo de Souza      : ESD, SOC TD-DFT
   Georgi Stoychev        : AutoAux, RI-MP2 NMR, DLPNO-MP2 response, X2C
   Van Anh Tran           : RI-MP2 g-tensors
   Willem Van den Heuvel  : Paramagnetic NMR
   Zikuan Wang            : NOTCH, Electric field optimization 
   Frank Wennmohs         : Technical directorship and infrastructure
   Hang Xu                : AUTO-CI-Response properties 


 We gratefully acknowledge several colleagues who have allowed us to
 interface, adapt or use parts of their codes:
   Stefan Grimme, W. Hujo, H. Kruse, P. Pracht,  : VdW corrections, initial TS optimization,
                  C. Bannwarth, S. Ehlert,         DFT functionals, gCP, sTDA/sTD-DF
                  L. Wittmann, M. Mueller
   Ed Valeev, F. Pavosevic, A. Kumar             : LibInt (2-el integral package), F12 methods
   Garnet Chan, S. Sharma, J. Yang, R. Olivares  : DMRG
   Ulf Ekstrom                                   : XCFun DFT Library
   Mihaly Kallay                                 : mrcc  (arbitrary order and MRCC methods)
   Frank Weinhold                                : gennbo (NPA and NBO analysis)
   Simon Mueller                                 : openCOSMO-RS
   Christopher J. Cramer and Donald G. Truhlar   : smd solvation model
   Lars Goerigk                                  : TD-DFT with DH, B97 family of functionals
   V. Asgeirsson, H. Jonsson                     : NEB implementation
   FAccTs GmbH                                   : IRC, NEB, NEB-TS, DLPNO-Multilevel, CI-OPT
                                                   MM, QMMM, 2- and 3-layer-ONIOM, Crystal-QMMM,
                                                   LR-CPCM, SF, NACMEs, symmetry and pop. for TD-DFT,
                                                   nearIR, NL-DFT gradient (VV10), updates on ESD,
                                                   ML-optimized integration grids, MBIS, APM,
                                                   GOAT, DOCKER, SOLVATOR, interface openCOSMO-RS
   S Lehtola, MJT Oliveira, MAL Marques          : LibXC Library
   Liviu Ungur et al                             : ANISO software


 Your calculation uses the libint2 library for the computation of 2-el integrals
 For citations please refer to: http://libint.valeyev.net

 Your ORCA version has been built with support for libXC version: 6.2.2
 For citations please refer to: https://libxc.gitlab.io

 This ORCA versions uses:
   CBLAS   interface :  Fast vector & matrix operations
   LAPACKE interface :  Fast linear algebra routines
   SCALAPACK package :  Parallel linear algebra routines
   Shared memory     :  Shared parallel matrices
   BLAS/LAPACK       :  OpenBLAS 0.3.27  USE64BITINT DYNAMIC_ARCH NO_AFFINITY SkylakeX SINGLE_THREADED
        Core in use  :  SkylakeX
   Copyright (c) 2011-2014, The OpenBLAS Project


Your calculation utilizes the geometrical counterpoise correction gCP
Please cite in your paper:
H.Kruse, S. Grimme J.Chem.Phys., 136, (2012), 154101 
   

Your calculation utilizes the atom-pairwise dispersion correction
based on EEQ partial charges (D4)


================================================================================

----- Orbital basis set information -----
Your calculation utilizes the basis: def2-SV(P)
   F. Weigend and R. Ahlrichs, Phys. Chem. Chem. Phys. 7, 3297 (2005).

----- AuxJ basis set information -----
Your calculation utilizes the auxiliary basis: def2/J
   F. Weigend, Phys. Chem. Chem. Phys. 8, 1057 (2006).

================================================================================
                                        WARNINGS
                       Please study these warnings very carefully!
================================================================================


================================================================================
                                       INPUT FILE
================================================================================
NAME = sp.inp
|  1> ! pbe def2-sv(p) def2/J RI DEFGRID1 loosescf d4 GCP(DFT/SV(P)) printgap
|  2> %output
|  3>     printlevel normal
|  4> end
|  5> * xyz 0 1
|  6> C 1.204666295 1.26115332 0.0528100434
|  7> C 0.4330157754 -0.0001416561 -0.3458051135
|  8> C 1.2103575463 -1.2580162581 0.0521357776
|  9> C -0.8823773019 -0.0024502564 0.368098535
| 10> O -1.9705852217 -0.0007958955 -0.1544952094
| 11> H 2.1673866166 1.272610523 -0.4499391106
| 12> H 1.3711251927 1.2799484598 1.1269426815
| 13> H 0.6526420095 2.1537198689 -0.2310664593
| 14> H 0.2489863942 -8.9807e-05 -1.4238876541
| 15> H 2.1731219824 -1.2649816381 -0.4506273292
| 16> H 0.6623991867 -2.152969418 -0.232079491
| 17> H 1.3769563269 -1.2765583018 1.126248338
| 18> H -0.7958662482 -0.0055422148 1.4705696815
| 19> *
| 20> 
| 21>                          ****END OF INPUT****
================================================================================

                       ****************************
                       * Single Point Calculation *
                       ****************************

---------------------------------
CARTESIAN COORDINATES (ANGSTROEM)
---------------------------------
  C      1.204666    1.261153    0.052810
  C      0.433016   -0.000142   -0.345805
  C      1.210358   -1.258016    0.052136
  C     -0.882377   -0.002450    0.368099
  O     -1.970585   -0.000796   -0.154495
  H      2.167387    1.272611   -0.449939
  H      1.371125    1.279948    1.126943
  H      0.652642    2.153720   -0.231066
  H      0.248986   -0.000090   -1.423888
  H      2.173122   -1.264982   -0.450627
  H      0.662399   -2.152969   -0.232079
  H      1.376956   -1.276558    1.126248
  H     -0.795866   -0.005542    1.470570

----------------------------
CARTESIAN COORDINATES (A.U.)
----------------------------
  NO LB      ZA    FRAG     MASS         X           Y           Z
   0 C     6.0000    0    12.011    2.276489    2.383234    0.099797
   1 C     6.0000    0    12.011    0.818281   -0.000268   -0.653477
   2 C     6.0000    0    12.011    2.287244   -2.377306    0.098522
   3 C     6.0000    0    12.011   -1.667451   -0.004630    0.695605
   4 O     8.0000    0    15.999   -3.723866   -0.001504   -0.291954
   5 H     1.0000    0     1.008    4.095767    2.404885   -0.850262
   6 H     1.0000    0     1.008    2.591051    2.418752    2.129613
   7 H     1.0000    0     1.008    1.233315    4.069941   -0.436652
   8 H     1.0000    0     1.008    0.470516   -0.000170   -2.690758
   9 H     1.0000    0     1.008    4.106605   -2.390469   -0.851562
  10 H     1.0000    0     1.008    1.251753   -4.068523   -0.438567
  11 H     1.0000    0     1.008    2.602070   -2.412346    2.128301
  12 H     1.0000    0     1.008   -1.503969   -0.010473    2.778974

--------------------------------
INTERNAL COORDINATES (ANGSTROEM)
--------------------------------
 C      0   0   0     0.000000000000     0.00000000     0.00000000
 C      1   0   0     1.531405754346     0.00000000     0.00000000
 C      2   1   0     1.531295430657   110.67855037     0.00000000
 C      2   1   3     1.496637129295   108.66123552   119.31039570
 O      4   2   1     1.207188235244   125.85786686   119.51951629
 H      1   2   3     1.086148423085   109.56209141    60.11655998
 H      1   2   3     1.087116712288   110.40041359   300.37333762
 H      1   2   3     1.087194428234   110.63193806   179.93588333
 H      2   1   3     1.093676725628   109.95792855   238.29524460
 H      3   2   1     1.086155890053   109.56917537   299.87871400
 H      3   2   1     1.087188043153   110.63452550   180.05783425
 H      3   2   1     1.087113956074   110.39984382    59.62272738
 H      4   2   1     1.105864526732   114.00335132   299.54426878

---------------------------
INTERNAL COORDINATES (A.U.)
---------------------------
 C      0   0   0     0.000000000000     0.00000000     0.00000000
 C      1   0   0     2.893937475625     0.00000000     0.00000000
 C      2   1   0     2.893728994067   110.67855037     0.00000000
 C      2   1   3     2.828234296226   108.66123552   119.31039570
 O      4   2   1     2.281255156703   125.85786686   119.51951629
 H      1   2   3     2.052523060421   109.56209141    60.11655998
 H      1   2   3     2.054352861833   110.40041359   300.37333762
 H      1   2   3     2.054499723687   110.63193806   179.93588333
 H      2   1   3     2.066749490480   109.95792855   238.29524460
 H      3   2   1     2.052537170946   109.56917537   299.87871400
 H      3   2   1     2.054487657634   110.63452550   180.05783425
 H      3   2   1     2.054347653344   110.39984382    59.62272738
 H      4   2   1     2.089781096742   114.00335132   299.54426878

---------------------
BASIS SET INFORMATION
---------------------
There are 3 groups of distinct atoms

 Group   1 Type C   : 7s4p1d contracted to 3s2p1d pattern {511/31/1}
 Group   2 Type O   : 7s4p1d contracted to 3s2p1d pattern {511/31/1}
 Group   3 Type H   : 4s contracted to 2s pattern {31}

Atom   0C    basis set group =>   1
Atom   1C    basis set group =>   1
Atom   2C    basis set group =>   1
Atom   3C    basis set group =>   1
Atom   4O    basis set group =>   2
Atom   5H    basis set group =>   3
Atom   6H    basis set group =>   3
Atom   7H    basis set group =>   3
Atom   8H    basis set group =>   3
Atom   9H    basis set group =>   3
Atom  10H    basis set group =>   3
Atom  11H    basis set group =>   3
Atom  12H    basis set group =>   3
---------------------------------
AUXILIARY/J BASIS SET INFORMATION
---------------------------------
There are 3 groups of distinct atoms

 Group   1 Type C   : 12s5p4d2f1g contracted to 6s4p3d1f1g pattern {711111/2111/211/2/1}
 Group   2 Type O   : 12s5p4d2f1g contracted to 6s4p3d1f1g pattern {711111/2111/211/2/1}
 Group   3 Type H   : 5s2p1d contracted to 3s1p1d pattern {311/2/1}

Atom   0C    basis set group =>   1
Atom   1C    basis set group =>   1
Atom   2C    basis set group =>   1
Atom   3C    basis set group =>   1
Atom   4O    basis set group =>   2
Atom   5H    basis set group =>   3
Atom   6H    basis set group =>   3
Atom   7H    basis set group =>   3
Atom   8H    basis set group =>   3
Atom   9H    basis set group =>   3
Atom  10H    basis set group =>   3
Atom  11H    basis set group =>   3
Atom  12H    basis set group =>   3
------------------------------------------------------------------------------
                             ORCA STARTUP CALCULATIONS
                           -- RI-GTO INTEGRALS CHOSEN --
------------------------------------------------------------------------------
------------------------------------------------------------------------------
                   ___                                                        
                  /   \      - P O W E R E D   B Y -                         
                 /     \                                                     
                 |  |  |   _    _      __       _____    __    __             
                 |  |  |  | |  | |    /  \     |  _  \  |  |  /  |          
                  \  \/   | |  | |   /    \    | | | |  |  | /  /          
                 / \  \   | |__| |  /  /\  \   | |_| |  |  |/  /          
                |  |  |   |  __  | /  /__\  \  |    /   |      \           
                |  |  |   | |  | | |   __   |  |    \   |  |\   \          
                \     /   | |  | | |  |  |  |  | |\  \  |  | \   \       
                 \___/    |_|  |_| |__|  |__|  |_| \__\ |__|  \__/        
                                                                              
                      - O R C A' S   B I G   F R I E N D -                    
                                      &                                       
                       - I N T E G R A L  F E E D E R -                       
                                                                              
 v1 FN, 2020, v2 2021, v3 2022-2024                                           
------------------------------------------------------------------------------


----------------------
SHARK INTEGRAL PACKAGE
----------------------

Number of atoms                             ...     13
Number of basis functions                   ...     86
Number of shells                            ...     46
Maximum angular momentum                    ...      2
Integral batch strategy                     ... SHARK/LIBINT Hybrid
RI-J (if used) integral strategy            ... SPLIT-RIJ (Revised 2003 algorithm where possible)
Printlevel                                  ...      1
Contraction scheme used                     ... SEGMENTED contraction
Prescreening option                         ... SCHWARTZ
   Thresh                                   ... 1.000e-09
   Tcut                                     ... 1.000e-10
   Tpresel                                  ... 1.000e-10 
Coulomb Range Separation                    ... NOT USED
Exchange Range Separation                   ... NOT USED
Multipole approximations                    ... NOT USED
Finite Nucleus Model                        ... NOT USED
CABS basis                                  ... NOT available
Auxiliary Coulomb fitting basis             ... AVAILABLE
   # of basis functions in Aux-J            ...    333
   # of shells in Aux-J                     ...    115
   Maximum angular momentum in Aux-J        ...      4
Auxiliary J/K fitting basis                 ... NOT available
Auxiliary Correlation fitting basis         ... NOT available
Auxiliary 'external' fitting basis          ... NOT available

Checking pre-screening integrals            ... done (  0.0 sec) Dimension = 46
Check shell pair data                       ... done (  0.0 sec)
Shell pair information
Shell pair cut-off parameter TPreSel        ...   1.0e-10
Total number of shell pairs                 ...      1081
Shell pairs after pre-screening             ...      1063
Total number of primitive shell pairs       ...      4367
Primitive shell pairs kept                  ...      3291
          la=0 lb=0:    484 shell pairs
          la=1 lb=0:    308 shell pairs
          la=1 lb=1:     55 shell pairs
          la=2 lb=0:    151 shell pairs
          la=2 lb=1:     50 shell pairs
          la=2 lb=2:     15 shell pairs

Calculating one electron integrals          ... done (  0.0 sec)
Calculating RI/J V-Matrix + Cholesky decomp.... done (  0.0 sec)
Calculating Nuclear repulsion               ... done (  0.0 sec) ENN=    176.432203233218 Eh

Diagonalization of the overlap matrix:
Smallest eigenvalue                        ... 2.069e-03
Time for diagonalization                   ...    0.001 sec
Threshold for overlap eigenvalues          ... 1.000e-07
Number of eigenvalues below threshold      ... 0
Time for construction of square roots      ...    0.015 sec
Total time needed                          ...    0.024 sec

-------------------
DFT GRID GENERATION
-------------------

General Integration Accuracy     IntAcc      ... 4.159
Radial Grid Type                 RadialGrid  ... OptM3 with GC (2021)
Angular Grid (max. ang.)         AngularGrid ... 3 (Lebedev-194)
Angular grid pruning method      GridPruning ... 4 (adaptive)
Weight generation scheme         WeightScheme... mBecke (2022)
Basis function cutoff            BFCut       ... 1.0000e-10
Integration weight cutoff        WCut        ... 1.0000e-14
Partially contracted basis set               ... off
Rotationally invariant grid construction     ... off
Angular grids for H and He will be reduced by one unit

Total number of grid points                  ...    27733
Total number of batches                      ...      441
Average number of points per batch           ...       62
Average number of grid points per atom       ...     2133
Initializing property integral containers    ... done (  0.0 sec)

SHARK setup successfully completed in   0.4 seconds

Maximum memory used throughout the entire STARTUP-calculation: 14.2 MB
-------------------------------------------------------------------------------
                                 ORCA GUESS
                   Start orbitals & Density for SCF / CASSCF
-------------------------------------------------------------------------------

------------
SCF SETTINGS
------------
Hamiltonian:
 Density Functional     Method          .... DFT(GTOs)
 Exchange Functional    Exchange        .... PBE
   PBE kappa parameter   XKappa         ....  0.804000
   PBE mue parameter    XMuePBE         ....  0.219520
 Correlation Functional Correlation     .... PBE
   PBE beta parameter  CBetaPBE         ....  0.066725
 LDA part of GGA corr.  LDAOpt          .... PW91-LDA
 Gradients option       PostSCFGGA      .... off
   NL short-range parameter             ....  6.400000
 RI-approximation to the Coulomb term is turned on
   Number of AuxJ basis functions       .... 333


General Settings:
 Integral files         IntName         .... sp
 Hartree-Fock type      HFTyp           .... RHF
 Total Charge           Charge          ....    0
 Multiplicity           Mult            ....    1
 Number of Electrons    NEL             ....   40
 Basis Dimension        Dim             ....   86
 Nuclear Repulsion      ENuc            ....    176.4322032332 Eh

Convergence Acceleration:
 AO-DIIS                CNVDIIS         .... on
   Start iteration      DIISMaxIt       ....    12
   Startup error        DIISStart       ....  0.200000
   # of expansion vecs  DIISMaxEq       ....     5
   Bias factor          DIISBfac        ....   1.050
   Max. coefficient     DIISMaxC        ....  10.000
 MO-DIIS                CNVKDIIS        .... off
 Trust-Rad. Augm. Hess. CNVTRAH         .... auto
   Auto Start mean grad. ratio tolernc. ....  1.125000
   Auto Start start iteration           ....    50
   Auto Start num. interpolation iter.  ....    10
   Max. Number of Micro iterations      ....    24
   Max. Number of Macro iterations      .... Maxiter - #DIIS iter
   Number of Davidson start vectors     ....     2
   Converg. threshold    (grad. norm)   ....   1.000e-04
   Grad. Scal. Fac. for Micro threshold ....   0.100
   Minimum threshold for Micro iter.    ....   1.000e-02
   NR start threshold (gradient norm)   ....   1.000e-04
   Initial trust radius                 ....   0.400
   Minimum AH scaling param. (alpha)    ....   1.000
   Maximum AH scaling param. (alpha)    .... 1000.000
   Quad. conv. algorithm                .... NR
   White noise on init. David. guess    .... on
   Maximum white noise                  ....   0.010
   Pseudo random numbers                .... off
   Inactive MOs                         .... canonical
   Orbital update algorithm             .... Taylor
   Preconditioner                       .... Diag
   Full preconditioner red. dimension   ....   250
 SOSCF                  CNVSOSCF        .... on
   Start iteration      SOSCFMaxIt      ....   150
   Startup grad/error   SOSCFStart      ....  0.003300
   Hessian update       SOSCFHessUp     .... L-BFGS
 Level Shifting         CNVShift        .... on
   Level shift para.    LevelShift      ....    0.2500
   Turn off err/grad.   ShiftErr        ....    0.0010
 Zerner damping         CNVZerner       .... off
 Static damping         CNVDamp         .... on
   Fraction old density DampFac         ....    0.7000
   Max. Damping (<1)    DampMax         ....    0.9800
   Min. Damping (>=0)   DampMin         ....    0.0000
   Turn off err/grad.   DampErr         ....    0.1000

SCF Procedure:
 Maximum # iterations   MaxIter         ....   125
 SCF integral mode      SCFMode         .... Direct
   Integral package                     .... SHARK and LIBINT hybrid scheme
 Reset frequency        DirectResetFreq ....    20
 Integral Threshold     Thresh          ....  1.000e-09 Eh
 Primitive CutOff       TCut            ....  1.000e-10 Eh

Convergence Tolerance:
 Convergence Check Mode ConvCheckMode   .... Total+1el-Energy
 Convergence forced     ConvForced      .... 0
 Energy Change          TolE            ....  1.000e-05 Eh
 1-El. energy change                    ....  1.000e-02 Eh
 Orbital Gradient       TolG            ....  1.000e-04
 Orbital Rotation angle TolX            ....  1.000e-04
 DIIS Error             TolErr          ....  5.000e-04

------------------------------
INITIAL GUESS: MODEL POTENTIAL
------------------------------
Loading Hartree-Fock densities                     ... done
Calculating cut-offs                               ... done
Initializing the effective Hamiltonian             ... done
Setting up the integral package (SHARK)            ... done
Starting the Coulomb interaction                   ... done (   0.0 sec)
Making the grid                                    ... done (   0.1 sec)
Mapping shells                                     ... done
Starting the XC term evaluation                    ... done (   0.1 sec)
  promolecular density results
     # of electrons  =     39.991889577
     EX              =    -30.946149459
     EC              =     -1.299760570
     EX+EC           =    -32.245910030
Transforming the Hamiltonian                       ... done (   0.0 sec)
Diagonalizing the Hamiltonian                      ... done (   0.0 sec)
Back transforming the eigenvectors                 ... done (   0.0 sec)
Now organizing SCF variables                       ... done
                      ------------------
                      INITIAL GUESS DONE (   0.2 sec)
                      ------------------
             **** ENERGY FILE WAS UPDATED (sp.en.tmp) ****
Finished Guess after   0.4 sec
Maximum memory used throughout the entire GUESS-calculation: 10.9 MB

-------------------------------------------------------------------------------------------
                                      ORCA LEAN-SCF
                              memory conserving SCF solver
-------------------------------------------------------------------------------------------

----------------------------------------D-I-I-S--------------------------------------------
Iteration    Energy (Eh)           Delta-E    RMSDP     MaxDP     DIISErr   Damp  Time(sec)
-------------------------------------------------------------------------------------------
               ***  Starting incremental Fock matrix formation  ***
    1    -231.8031099344767370     0.00e+00  7.51e-03  1.69e-01  2.36e-01  0.700   0.3
    2    -231.8848195674903252    -8.17e-02  4.79e-03  9.96e-02  7.34e-02  0.700   0.4
                               ***Turning on AO-DIIS***
    3    -231.9093423734658757    -2.45e-02  1.77e-03  1.99e-02  2.34e-02  0.700   0.3
    4    -231.9253293058381757    -1.60e-02  2.41e-03  2.45e-02  2.13e-02  0.000   0.3
    5    -231.9628787261694072    -3.75e-02  8.88e-04  1.35e-02  9.41e-03  0.000   0.3
                              *** Initializing SOSCF ***
---------------------------------------S-O-S-C-F--------------------------------------
Iteration    Energy (Eh)           Delta-E    RMSDP     MaxDP     MaxGrad    Time(sec)
--------------------------------------------------------------------------------------
    6    -231.9634771038606402    -5.98e-04  2.94e-04  3.62e-03  2.16e-03     0.3
               *** Restarting incremental Fock matrix formation ***
    7    -231.9635206304686506    -4.35e-05  2.49e-04  3.91e-03  3.96e-04     0.4
    8    -231.9635186048942330     2.03e-06  1.20e-04  3.12e-03  8.27e-04     0.4
                 **** Energy Check signals convergence ****

               *****************************************************
               *                     SUCCESS                       *
               *           SCF CONVERGED AFTER   8 CYCLES          *
               *****************************************************

             **** ENERGY FILE WAS UPDATED (sp.en.tmp) ****

----------------
TOTAL SCF ENERGY
----------------

Total Energy       :       -231.96351860489423 Eh           -6312.04824 eV

Components:
Nuclear Repulsion  :        176.43220323321796 Eh            4800.96433 eV
Electronic Energy  :       -408.39572183811219 Eh          -11113.01257 eV
One Electron Energy:       -662.72612135901022 Eh          -18033.69458 eV
Two Electron Energy:        254.33039952089803 Eh            6920.68201 eV

Virial components:
Potential Energy   :       -462.03608505892316 Eh          -12572.64106 eV
Kinetic Energy     :        230.07256645402890 Eh            6260.59282 eV
Virial Ratio       :          2.00821893796383

DFT components:
N(Alpha)           :       19.999935136077 electrons
N(Beta)            :       19.999935136077 electrons
N(Total)           :       39.999870272153 electrons
E(X)               :      -31.636170481738 Eh       
E(C)               :       -1.312174550122 Eh       
E(XC)              :      -32.948345031859 Eh       

---------------
SCF CONVERGENCE
---------------

  Last Energy change         ...   -2.0256e-06  Tolerance :   1.0000e-05
  Last MAX-Density change    ...    3.1159e-03  Tolerance :   1.0000e-03
  Last RMS-Density change    ...    1.1964e-04  Tolerance :   1.0000e-04
  Last DIIS Error            ...    2.1629e-03  Tolerance :   5.0000e-04
  Last Orbital Gradient      ...    8.2708e-04  Tolerance :   1.0000e-04
  Last Orbital Rotation      ...    9.4537e-04  Tolerance :   1.0000e-04


----------------
ORBITAL ENERGIES
----------------

  NO   OCC          E(Eh)            E(eV) 
   0   2.0000     -18.747640      -510.1492 
   1   2.0000      -9.968658      -271.2610 
   2   2.0000      -9.908280      -269.6180 
   3   2.0000      -9.892591      -269.1911 
   4   2.0000      -9.892556      -269.1901 
   5   2.0000      -0.942275       -25.6406 
   6   2.0000      -0.739129       -20.1127 
   7   2.0000      -0.628870       -17.1124 
   8   2.0000      -0.575501       -15.6602 
   9   2.0000      -0.509782       -13.8719 
  10   2.0000      -0.420895       -11.4531 
  11   2.0000      -0.414229       -11.2717 
  12   2.0000      -0.392672       -10.6852 
  13   2.0000      -0.377839       -10.2815 
  14   2.0000      -0.359065        -9.7707 
  15   2.0000      -0.335350        -9.1253 
  16   2.0000      -0.334779        -9.1098 
  17   2.0000      -0.310550        -8.4505 
  18   2.0000      -0.308083        -8.3834 
  19   2.0000      -0.200088        -5.4447 
  20   0.0000      -0.058185        -1.5833 
  21   0.0000       0.035201         0.9579 
  22   0.0000       0.058502         1.5919 
  23   0.0000       0.085926         2.3382 
  24   0.0000       0.087809         2.3894 
  25   0.0000       0.107415         2.9229 
  26   0.0000       0.113322         3.0837 
  27   0.0000       0.125998         3.4286 
  28   0.0000       0.138360         3.7650 
  29   0.0000       0.148352         4.0369 
  30   0.0000       0.186857         5.0846 
*Only the first 10 virtual orbitals were printed.

                    ********************************
                    * MULLIKEN POPULATION ANALYSIS *
                    ********************************

-----------------------
MULLIKEN ATOMIC CHARGES
-----------------------
   0 C :   -0.268736
   1 C :   -0.155061
   2 C :   -0.268737
   3 C :    0.046646
   4 O :   -0.158921
   5 H :    0.114388
   6 H :    0.104099
   7 H :    0.120622
   8 H :    0.085707
   9 H :    0.114339
  10 H :    0.120551
  11 H :    0.104111
  12 H :    0.040992
Sum of atomic charges:   -0.0000000

--------------------------------
MULLIKEN REDUCED ORBITAL CHARGES
--------------------------------
  0 C s       :     3.104585  s :     3.104585
      pz      :     1.062037  p :     3.135024
      px      :     1.056280
      py      :     1.016707
      dz2     :     0.008521  d :     0.029127
      dxz     :     0.004542
      dyz     :     0.002873
      dx2y2   :     0.006863
      dxy     :     0.006329

  1 C s       :     3.094561  s :     3.094561
      pz      :     1.047880  p :     3.018803
      px      :     0.984397
      py      :     0.986526
      dz2     :     0.010873  d :     0.041697
      dxz     :     0.007023
      dyz     :     0.005601
      dx2y2   :     0.010110
      dxy     :     0.008090

  2 C s       :     3.104542  s :     3.104542
      pz      :     1.062009  p :     3.135073
      px      :     1.056011
      py      :     1.017052
      dz2     :     0.008516  d :     0.029122
      dxz     :     0.004552
      dyz     :     0.002865
      dx2y2   :     0.006899
      dxy     :     0.006290

  3 C s       :     3.215453  s :     3.215453
      pz      :     0.973871  p :     2.652096
      px      :     0.907457
      py      :     0.770768
      dz2     :     0.026168  d :     0.085805
      dxz     :     0.025841
      dyz     :     0.002653
      dx2y2   :     0.015271
      dxy     :     0.015872

  4 O s       :     3.761956  s :     3.761956
      pz      :     1.695050  p :     4.379037
      px      :     1.423771
      py      :     1.260217
      dz2     :     0.002465  d :     0.017928
      dxz     :     0.005273
      dyz     :     0.001067
      dx2y2   :     0.004409
      dxy     :     0.004714

  5 H s       :     0.885612  s :     0.885612

  6 H s       :     0.895901  s :     0.895901

  7 H s       :     0.879378  s :     0.879378

  8 H s       :     0.914293  s :     0.914293

  9 H s       :     0.885661  s :     0.885661

 10 H s       :     0.879449  s :     0.879449

 11 H s       :     0.895889  s :     0.895889

 12 H s       :     0.959008  s :     0.959008


------------------------
MULLIKEN OVERLAP CHARGES
------------------------
B(  0-C ,  1-C ) :   0.7566 B(  0-C ,  2-C ) :  -0.1326 B(  0-C ,  3-C ) :  -0.0629 
B(  0-C ,  5-H ) :   0.7389 B(  0-C ,  6-H ) :   0.7504 B(  0-C ,  7-H ) :   0.7426 
B(  1-C ,  2-C ) :   0.7546 B(  1-C ,  3-C ) :   0.3999 B(  1-C ,  4-O ) :  -0.2166 
B(  1-C ,  6-H ) :  -0.0569 B(  1-C ,  7-H ) :  -0.0689 B(  1-C ,  8-H ) :   0.5655 
B(  1-C , 10-H ) :  -0.0687 B(  1-C , 11-H ) :  -0.0567 B(  1-C , 12-H ) :  -0.3610 
B(  2-C ,  3-C ) :  -0.0621 B(  2-C ,  9-H ) :   0.7388 B(  2-C , 10-H ) :   0.7428 
B(  2-C , 11-H ) :   0.7504 B(  3-C ,  4-O ) :   1.3837 B(  3-C , 12-H ) :   0.7393 
B(  4-O , 12-H ) :  -0.1010 


                     *******************************
                     * LOEWDIN POPULATION ANALYSIS *
                     *******************************

----------------------
LOEWDIN ATOMIC CHARGES
----------------------
   0 C :   -0.323825
   1 C :   -0.194134
   2 C :   -0.323911
   3 C :    0.011501
   4 O :   -0.118823
   5 H :    0.126220
   6 H :    0.120868
   7 H :    0.125941
   8 H :    0.126530
   9 H :    0.126211
  10 H :    0.125909
  11 H :    0.120861
  12 H :    0.076651

-------------------------------
LOEWDIN REDUCED ORBITAL CHARGES
-------------------------------
  0 C s       :     2.948302  s :     2.948302
      pz      :     1.124647  p :     3.304890
      px      :     1.103584
      py      :     1.076660
      dz2     :     0.020880  d :     0.070633
      dxz     :     0.010768
      dyz     :     0.006377
      dx2y2   :     0.016060
      dxy     :     0.016549

  1 C s       :     2.891913  s :     2.891913
      pz      :     1.092753  p :     3.198734
      px      :     1.063162
      py      :     1.042819
      dz2     :     0.027070  d :     0.103487
      dxz     :     0.018452
      dyz     :     0.011558
      dx2y2   :     0.024206
      dxy     :     0.022201

  2 C s       :     2.948259  s :     2.948259
      pz      :     1.124648  p :     3.305017
      px      :     1.103336
      py      :     1.077033
      dz2     :     0.020873  d :     0.070634
      dxz     :     0.010789
      dyz     :     0.006362
      dx2y2   :     0.016129
      dxy     :     0.016481

  3 C s       :     2.938209  s :     2.938209
      pz      :     1.062194  p :     2.850561
      px      :     1.026555
      py      :     0.761813
      dz2     :     0.058903  d :     0.199729
      dxz     :     0.067439
      dyz     :     0.004364
      dx2y2   :     0.040198
      dxy     :     0.028824

  4 O s       :     3.556110  s :     3.556110
      pz      :     1.739815  p :     4.531303
      px      :     1.534534
      py      :     1.256955
      dz2     :     0.004237  d :     0.031410
      dxz     :     0.010633
      dyz     :     0.001300
      dx2y2   :     0.009496
      dxy     :     0.005744

  5 H s       :     0.873780  s :     0.873780

  6 H s       :     0.879132  s :     0.879132

  7 H s       :     0.874059  s :     0.874059

  8 H s       :     0.873470  s :     0.873470

  9 H s       :     0.873789  s :     0.873789

 10 H s       :     0.874091  s :     0.874091

 11 H s       :     0.879139  s :     0.879139

 12 H s       :     0.923349  s :     0.923349


---------------------------------
LOEWDIN BOND ORDERS (THRESH 0.050000)
---------------------------------
B(  0-C ,  1-C ) :   1.0758 B(  0-C ,  2-C ) :   0.0533 B(  0-C ,  3-C ) :   0.0750 
B(  0-C ,  5-H ) :   0.9310 B(  0-C ,  6-H ) :   0.9353 B(  0-C ,  7-H ) :   0.9360 
B(  1-C ,  2-C ) :   1.0760 B(  1-C ,  3-C ) :   1.0738 B(  1-C ,  4-O ) :   0.1141 
B(  1-C ,  8-H ) :   0.8697 B(  2-C ,  3-C ) :   0.0748 B(  2-C ,  9-H ) :   0.9310 
B(  2-C , 10-H ) :   0.9360 B(  2-C , 11-H ) :   0.9353 B(  3-C ,  4-O ) :   2.3655 
B(  3-C , 12-H ) :   0.8745 B(  4-O , 12-H ) :   0.0696 

------------------------------------------
LOEWDIN REDUCED ORBITAL POPULATIONS PER MO
-------------------------------------------
THRESHOLD FOR PRINTING IS 0.1%%
                      0         1         2         3         4         5   
                 -18.74764  -9.96866  -9.90828  -9.89259  -9.89256  -0.94228
                   2.00000   2.00000   2.00000   2.00000   2.00000   2.00000
                  --------  --------  --------  --------  --------  --------
 0 C  s               0.0       0.0       0.0      99.6       0.1       0.1
 1 C  s               0.0       0.0      99.6       0.0       0.0       1.1
 1 C  pz              0.0       0.0       0.0       0.0       0.0       0.2
 1 C  px              0.0       0.1       0.0       0.0       0.0       1.5
 2 C  s               0.0       0.0       0.0       0.1      99.6       0.1
 3 C  s               0.0      99.5       0.0       0.0       0.0      19.5
 3 C  pz              0.0       0.0       0.0       0.0       0.0       2.9
 3 C  px              0.1       0.0       0.1       0.0       0.0      10.9
 3 C  dxz             0.0       0.0       0.0       0.0       0.0       0.8
 3 C  dx2y2           0.0       0.0       0.0       0.0       0.0       1.0
 4 O  s              99.9       0.0       0.0       0.0       0.0      52.5
 4 O  pz              0.0       0.1       0.0       0.0       0.0       1.3
 4 O  px              0.0       0.2       0.0       0.0       0.0       5.6
 4 O  dxz             0.0       0.0       0.0       0.0       0.0       0.1
 4 O  dx2y2           0.0       0.0       0.0       0.0       0.0       0.1
 8 H  s               0.0       0.0       0.1       0.0       0.0       0.3
12 H  s               0.0       0.1       0.0       0.0       0.0       1.7

                      6         7         8         9        10        11   
                  -0.73913  -0.62887  -0.57550  -0.50978  -0.42089  -0.41423
                   2.00000   2.00000   2.00000   2.00000   2.00000   2.00000
                  --------  --------  --------  --------  --------  --------
 0 C  s              13.8      23.0       8.4       0.8       0.4       0.1
 0 C  pz              0.1       0.0       0.0       4.0       0.8      10.4
 0 C  px              0.8       0.0       3.0       0.3       2.1       0.6
 0 C  py              2.5       0.6       0.9       1.5      15.4       4.5
 0 C  dxy             0.1       0.0       0.1       0.0       0.1       0.1
 1 C  s              28.3       0.0       4.3       7.6       1.2       0.4
 1 C  pz              0.9       0.0       0.3      14.5       0.0      15.0
 1 C  px              0.6       0.0      14.4       0.1      16.8       0.0
 1 C  py              0.0      15.5       0.0       0.0       0.0       0.0
 1 C  dxz             0.0       0.0       0.3       0.1       0.1       0.0
 1 C  dyz             0.0       0.1       0.0       0.0       0.0       0.0
 1 C  dx2y2           0.0       0.0       0.2       0.0       0.0       0.0
 1 C  dxy             0.0       0.3       0.0       0.0       0.0       0.0
 2 C  s              13.8      23.0       8.4       0.8       0.4       0.1
 2 C  pz              0.1       0.0       0.0       4.0       0.8      10.5
 2 C  px              0.8       0.0       3.0       0.3       2.0       0.6
 2 C  py              2.5       0.6       0.8       1.5      15.5       4.5
 2 C  dxy             0.1       0.0       0.1       0.0       0.1       0.1
 3 C  s               3.3       0.0      12.5       6.6       0.1       1.6
 3 C  pz              0.2       0.0       0.4      19.7      12.5       3.9
 3 C  px              9.4       0.0      10.0       0.0       2.1       3.5
 3 C  py              0.0       0.8       0.0       0.0       0.0       0.0
 3 C  dz2             0.0       0.0       0.1       0.1       0.0       0.1
 3 C  dxz             0.2       0.0       0.3       0.0       0.0       0.0
 4 O  s               1.8       0.0       4.6       1.5       0.4       5.5
 4 O  pz              0.0       0.0       0.2       4.1       3.8       7.9
 4 O  px              0.2       0.0       2.2       0.3       3.5       6.2
 4 O  dxz             0.0       0.0       0.0       0.1       0.0       0.1
 5 H  s               2.5       5.6       4.6       0.2       0.4       2.8
 6 H  s               2.7       5.7       2.8       2.7       0.7       3.1
 7 H  s               2.4       6.7       2.2       0.4       7.4       2.3
 8 H  s               4.6       0.0       1.1      10.8       0.1       4.2
 9 H  s               2.5       5.6       4.6       0.2       0.4       2.8
10 H  s               2.4       6.7       2.2       0.4       7.4       2.3
11 H  s               2.7       5.7       2.8       2.7       0.7       3.1
12 H  s               0.8       0.0       5.2      14.1       4.1       3.4

                     12        13        14        15        16        17   
                  -0.39267  -0.37784  -0.35906  -0.33535  -0.33478  -0.31055
                   2.00000   2.00000   2.00000   2.00000   2.00000   2.00000
                  --------  --------  --------  --------  --------  --------
 0 C  s               0.3       0.0       0.0       0.0       0.1       0.3
 0 C  pz              1.2       1.3      27.4       0.0       2.1       8.9
 0 C  px             17.2       5.7       0.8       7.8      13.0       2.8
 0 C  py              0.6       2.4       0.1       5.5       0.1       0.5
 0 C  dz2             0.1       0.0       0.3       0.0       0.0       0.5
 0 C  dxz             0.1       0.0       0.1       0.1       0.2       0.1
 0 C  dx2y2           0.0       0.0       0.0       0.1       0.3       0.1
 0 C  dxy             0.0       0.0       0.0       0.1       0.0       0.0
 1 C  s               0.0       0.1       0.0       0.0       0.5       0.1
 1 C  pz              0.0       0.4       0.0       0.0       1.0      21.1
 1 C  px              0.0       0.1       0.0       0.0       7.6       3.7
 1 C  py             16.0       0.0       0.9       0.3       0.0       0.0
 1 C  dz2             0.0       0.1       0.0       0.0       0.0       1.1
 1 C  dxz             0.0       0.0       0.0       0.0       0.4       0.1
 1 C  dyz             0.1       0.0       0.3       0.0       0.0       0.0
 1 C  dx2y2           0.0       0.3       0.0       0.0       0.6       0.1
 1 C  dxy             0.0       0.0       0.1       0.0       0.0       0.0
 2 C  s               0.3       0.0       0.0       0.0       0.1       0.3
 2 C  pz              1.1       1.2      27.4       0.1       2.0       8.9
 2 C  px             17.4       5.5       0.8       9.6      11.3       2.9
 2 C  py              0.5       2.4       0.1       5.4       0.3       0.6
 2 C  dz2             0.1       0.0       0.3       0.0       0.0       0.5
 2 C  dxz             0.1       0.0       0.1       0.1       0.2       0.1
 2 C  dx2y2           0.0       0.0       0.0       0.2       0.3       0.1
 2 C  dxy             0.0       0.0       0.0       0.1       0.0       0.0
 3 C  s               0.0       1.5       0.0       0.0       2.0       0.1
 3 C  pz              0.0       9.7       0.0       0.0       0.6       1.2
 3 C  px              0.0       2.7       0.0       0.0      11.5       0.2
 3 C  py             16.6       0.0       1.5      15.2       0.0       0.0
 3 C  dz2             0.0       0.0       0.0       0.0       0.2       0.3
 3 C  dyz             0.1       0.0       0.0       0.1       0.0       0.0
 3 C  dxy             0.0       0.0       0.0       0.5       0.0       0.0
 4 O  s               0.0       9.6       0.0       0.0       1.9       0.1
 4 O  pz              0.0       0.8       0.0       0.0      14.2       0.0
 4 O  px              0.0      39.9       0.0       0.0       3.7       1.7
 4 O  py             10.7       0.0       1.2      31.0       0.1       0.0
 4 O  dx2y2           0.0       0.2       0.0       0.0       0.0       0.0
 4 O  dxy             0.1       0.0       0.0       0.1       0.0       0.0
 5 H  s               5.7       1.2       5.2       4.1      10.7       0.1
 6 H  s               2.1       0.9      13.4       0.0       0.9       8.8
 7 H  s               0.9       3.6       0.7       6.8       1.2       1.6
 8 H  s               0.0       0.6       0.0       0.0       0.8      20.7
 9 H  s               5.7       1.1       5.2       5.3       9.6       0.1
10 H  s               0.9       3.6       0.8       7.3       0.8       1.4
11 H  s               2.1       0.8      13.4       0.0       0.9       8.7
12 H  s               0.0       3.9       0.0       0.0       0.6       2.4

                     18        19        20        21        22        23   
                  -0.30808  -0.20009  -0.05818   0.03520   0.05850   0.08593
                   2.00000   2.00000   0.00000   0.00000   0.00000   0.00000
                  --------  --------  --------  --------  --------  --------
 0 C  s               0.5       0.0       1.4      10.2       0.0      12.6
 0 C  pz              0.0       0.0       0.2       0.3       5.8       0.5
 0 C  px              0.4       0.6       0.7       2.0       0.0       0.1
 0 C  py             19.0       0.2       0.7       1.5       0.2       3.2
 0 C  dz2             0.0       0.0       0.0       0.0       0.2       0.1
 0 C  dyz             0.1       0.0       0.0       0.1       0.0       0.0
 0 C  dxy             0.3       0.0       0.0       0.1       0.0       0.0
 1 C  s               0.0       1.3       0.0       3.0       3.0       0.0
 1 C  pz              0.0       1.1       0.0       1.5       4.1       0.0
 1 C  px              0.0       8.2       0.0       0.0       0.7       0.0
 1 C  py             19.3       0.0       0.3       0.0       0.0       0.8
 1 C  dz2             0.0       0.0       0.0       0.0       0.9       0.0
 1 C  dyz             0.1       0.0       0.1       0.0       0.0       0.4
 1 C  dxy             0.7       0.0       1.5       0.0       0.0       0.1
 2 C  s               0.5       0.0       1.4      10.2       0.0      12.5
 2 C  pz              0.0       0.0       0.2       0.3       5.8       0.5
 2 C  px              0.4       0.6       0.7       2.0       0.0       0.1
 2 C  py             18.8       0.2       0.7       1.5       0.2       3.1
 2 C  dz2             0.0       0.0       0.0       0.0       0.2       0.1
 2 C  dyz             0.1       0.0       0.0       0.1       0.0       0.0
 2 C  dxy             0.3       0.0       0.0       0.1       0.0       0.0
 3 C  s               0.0       0.2       0.0       1.0       2.8       0.0
 3 C  pz              0.0       2.1       0.0       1.3       6.2       0.0
 3 C  px              0.0       0.9       0.0       0.0       0.1       0.0
 3 C  py              4.0       0.0      52.3       0.0       0.0       2.3
 3 C  dz2             0.0       2.1       0.0       0.1       0.2       0.0
 3 C  dxz             0.0       1.9       0.0       0.1       0.1       0.0
 3 C  dyz             0.0       0.0       0.5       0.0       0.0       0.1
 3 C  dx2y2           0.0       0.8       0.0       0.0       0.1       0.0
 3 C  dxy             0.9       0.0       1.2       0.0       0.0       0.0
 4 O  s               0.0       0.0       0.0       0.0       0.1       0.0
 4 O  pz              0.0      54.5       0.0       0.6       0.2       0.0
 4 O  px              0.0      13.1       0.0       0.0       0.1       0.0
 4 O  py             19.9       0.0      33.7       0.0       0.0       0.3
 4 O  dyz             0.0       0.0       0.1       0.0       0.0       0.0
 4 O  dxy             0.0       0.0       0.4       0.0       0.0       0.0
 5 H  s               0.0       0.6       1.2      12.4       2.3       4.4
 6 H  s               0.1       0.1       0.2       9.1       9.9      10.7
 7 H  s               7.1       0.1       0.3       5.5       2.2      16.7
 8 H  s               0.0       0.4       0.0       5.1      20.5       0.0
 9 H  s               0.0       0.6       1.2      12.4       2.3       4.6
10 H  s               7.2       0.1       0.3       5.5       2.2      16.2
11 H  s               0.1       0.1       0.2       9.1       9.9      10.6
12 H  s               0.0       9.8       0.0       4.6      19.2       0.0

                     24        25        26        27        28        29   
                   0.08781   0.10741   0.11332   0.12600   0.13836   0.14835
                   0.00000   0.00000   0.00000   0.00000   0.00000   0.00000
                  --------  --------  --------  --------  --------  --------
 0 C  s               0.4       2.7       0.4       0.8       0.3       1.9
 0 C  pz              0.2       1.0       5.4       3.4       7.2       1.3
 0 C  px              9.5       0.2       0.2       3.2       6.7       3.7
 0 C  py              2.6       0.9       0.7       7.7       0.0       9.1
 0 C  dz2             0.1       0.0       0.3       0.2       0.3       0.8
 0 C  dxz             0.3       0.1       0.0       0.0       0.5       0.0
 0 C  dyz             0.1       0.4       0.3       0.1       0.0       0.1
 0 C  dx2y2           0.4       0.2       0.0       0.0       0.2       1.3
 0 C  dxy             0.2       0.1       0.1       0.5       0.0       1.9
 1 C  s               0.0       2.2       4.3       0.0       0.0      15.1
 1 C  pz              0.0       3.1       8.2       0.0       0.0       5.6
 1 C  px              0.3       4.2       0.3       0.0       0.0       4.8
 1 C  py              0.0       0.0       0.0       2.5       0.4       0.0
 1 C  dz2             0.0       0.1       0.2       0.0       0.0       2.5
 1 C  dxz             0.1       2.0       0.2       0.0       0.0       0.0
 1 C  dyz             0.0       0.0       0.0       0.6       1.0       0.0
 1 C  dx2y2           1.3       0.1       0.0       0.0       0.0       0.4
 1 C  dxy             0.0       0.0       0.0       0.5       0.1       0.0
 2 C  s               0.5       2.7       0.4       0.8       0.3       1.9
 2 C  pz              0.2       1.0       5.4       3.4       7.3       1.3
 2 C  px              9.5       0.2       0.2       3.1       6.6       3.8
 2 C  py              2.7       0.9       0.7       7.7       0.0       8.9
 2 C  dz2             0.1       0.0       0.3       0.2       0.3       0.8
 2 C  dxz             0.3       0.1       0.0       0.0       0.5       0.0
 2 C  dyz             0.1       0.4       0.3       0.2       0.0       0.1
 2 C  dx2y2           0.4       0.2       0.0       0.0       0.2       1.3
 2 C  dxy             0.2       0.1       0.1       0.5       0.0       1.9
 3 C  s               0.4       9.5       1.8       0.0       0.0       9.2
 3 C  pz              1.0       6.3       0.5       0.0       0.0       1.7
 3 C  px              2.1       2.4       2.2       0.0       0.0       3.1
 3 C  py              0.0       0.0       0.0       0.5       1.0       0.0
 3 C  dz2             0.0       0.1       0.3       0.0       0.0       0.0
 3 C  dxz             0.1       0.3       0.7       0.0       0.0       0.5
 3 C  dx2y2           0.2       0.2       0.5       0.0       0.0       4.0
 4 O  s               0.5       0.6       0.5       0.0       0.0       2.1
 4 O  pz              0.1       0.7       0.5       0.0       0.0       0.1
 4 O  px              0.4       0.2       0.1       0.0       0.0       1.4
 4 O  py              0.0       0.0       0.0       0.1       0.4       0.0
 4 O  dxz             0.0       0.2       0.0       0.0       0.0       0.1
 5 H  s              12.6       0.8       6.5       2.5      25.6       0.4
 6 H  s               0.3       6.5       6.0      12.0       7.3       1.1
 7 H  s              19.5       0.1       3.7      17.5       0.3       0.3
 8 H  s               0.1       9.7      30.6       0.0       0.0       2.1
 9 H  s              12.4       0.8       6.4       2.5      25.7       0.3
10 H  s              20.0       0.1       3.7      17.4       0.2       0.3
11 H  s               0.4       6.5       6.0      12.0       7.4       1.0
12 H  s               0.1      32.7       1.7       0.0       0.0       3.6

                     30        31        32        33        34        35   
                   0.18686   0.22416   0.24797   0.34654   0.38139   0.38613
                   0.00000   0.00000   0.00000   0.00000   0.00000   0.00000
                  --------  --------  --------  --------  --------  --------
 0 C  s               1.2       0.0       0.2       0.2       1.1       0.5
 0 C  pz              2.9       0.3       0.2       0.2      10.8      16.4
 0 C  px              7.9       3.1       0.7       7.9       0.2       0.1
 0 C  py              7.6       2.3       4.6       6.7       5.1       4.2
 0 C  dz2             0.7       0.1       0.0       0.2       3.6       3.9
 0 C  dxz             1.2       0.4       0.0       1.6       0.3       0.5
 0 C  dyz             0.5       1.4       0.1       0.2       0.1       0.3
 0 C  dx2y2           0.1       0.3       0.2       1.9       0.0       0.0
 0 C  dxy             1.8       0.0       1.4       1.4       0.3       0.3
 1 C  s               0.0       1.9       7.6       0.1       0.1       0.0
 1 C  pz              0.0       2.3       3.9       0.3       1.7       0.0
 1 C  px              0.0      25.1       4.1       1.3       2.1       0.0
 1 C  py             30.9       0.0       0.0       0.0       0.0      12.2
 1 C  dz2             0.0       0.1       0.3       0.2       2.6       0.0
 1 C  dxz             0.0       4.6       0.3       0.1       0.5       0.0
 1 C  dyz             1.5       0.0       0.0       0.0       0.0       1.9
 1 C  dx2y2           0.0       2.6       0.1       2.8       0.1       0.0
 1 C  dxy             3.5       0.0       0.0       0.0       0.0       0.4
 2 C  s               1.2       0.0       0.2       0.1       1.2       0.5
 2 C  pz              2.9       0.3       0.2       0.2      10.1      17.1
 2 C  px              8.1       3.1       0.7       7.9       0.2       0.1
 2 C  py              7.7       2.3       4.6       6.7       5.3       3.9
 2 C  dz2             0.7       0.1       0.0       0.2       3.4       4.1
 2 C  dxz             1.2       0.4       0.1       1.6       0.3       0.5
 2 C  dyz             0.5       1.4       0.1       0.2       0.1       0.3
 2 C  dx2y2           0.1       0.3       0.2       2.0       0.0       0.0
 2 C  dxy             1.8       0.0       1.4       1.3       0.3       0.3
 3 C  s               0.0      13.4       6.2       7.1       9.8       0.0
 3 C  pz              0.0       8.1       1.8       3.3       0.7       0.0
 3 C  px              0.0       5.2      33.3       6.3       0.5       0.0
 3 C  py              3.2       0.0       0.0       0.0       0.0       7.3
 3 C  dz2             0.0       0.7       0.0       1.0       1.1       0.0
 3 C  dxz             0.0       0.7       4.1       0.4       0.2       0.0
 3 C  dyz             1.6       0.0       0.0       0.0       0.0       0.2
 3 C  dx2y2           0.0       3.2       1.0       0.0       0.3       0.0
 3 C  dxy             0.3       0.0       0.0       0.0       0.0       0.0
 4 O  s               0.0       0.9       9.0       0.4       0.4       0.0
 4 O  pz              0.0       1.0       2.0       0.1       0.0       0.0
 4 O  px              0.0       0.9       0.3       0.7       0.2       0.0
 4 O  dz2             0.0       0.5       0.1       0.0       0.0       0.0
 4 O  dx2y2           0.0       0.0       0.0       0.2       0.1       0.0
 5 H  s               1.1       0.0       0.3       6.8       1.4       1.4
 6 H  s               3.5       0.8       0.9       0.0       8.4      10.8
 7 H  s               0.9       0.7       1.8       9.7       3.2       0.0
 8 H  s               0.0       1.5       3.4       0.8       8.0       0.0
 9 H  s               1.1       0.0       0.3       6.9       1.4       1.4
10 H  s               0.9       0.7       1.8       9.7       3.2       0.0
11 H  s               3.5       0.8       0.9       0.0       7.9      11.2
12 H  s               0.0       8.1       1.2       1.4       3.8       0.0

                     36        37        38        39        40        41   
                   0.42672   0.47402   0.54666   0.54760   0.57384   0.59397
                   0.00000   0.00000   0.00000   0.00000   0.00000   0.00000
                  --------  --------  --------  --------  --------  --------
 0 C  s               1.4       1.7       3.2       3.0       1.5       4.6
 0 C  pz              0.4       4.0       3.9       0.2      11.3       1.8
 0 C  px              8.3       5.2       1.3       1.5       0.3       2.5
 0 C  py              6.2       4.7       5.0       9.4       1.5       0.0
 0 C  dz2             0.1       0.6       0.9       0.0       0.0       0.6
 0 C  dxz             0.7       0.0       0.3       0.3       0.1       0.1
 0 C  dyz             0.1       0.2       0.0       0.4       0.7       0.6
 0 C  dx2y2           1.6       0.1       1.0       0.0       0.0       0.1
 0 C  dxy             0.0       0.2       1.2       0.1       0.3       0.3
 1 C  s               0.0       2.5       0.0       9.4       0.3       7.5
 1 C  pz              0.0       1.5       0.0       1.3       9.5       3.0
 1 C  px              0.0      12.5       0.0       1.6      18.1      15.9
 1 C  py              4.4       0.0       2.1       0.0       0.0       0.0
 1 C  dz2             0.0       2.1       0.0       1.2       0.3       1.0
 1 C  dxz             0.0       0.9       0.0       0.0       0.5       0.0
 1 C  dyz             0.7       0.0       0.0       0.0       0.0       0.0
 1 C  dx2y2           0.0       0.1       0.0       0.0       0.0       0.1
 1 C  dxy             2.6       0.0       2.0       0.0       0.0       0.0
 2 C  s               1.4       1.7       2.9       3.2       1.5       4.5
 2 C  pz              0.4       4.0       4.0       0.1      11.3       1.8
 2 C  px              8.3       5.2       1.2       1.7       0.3       2.6
 2 C  py              6.2       4.6       4.4      10.0       1.5       0.0
 2 C  dz2             0.1       0.6       0.9       0.0       0.0       0.6
 2 C  dxz             0.7       0.0       0.3       0.3       0.1       0.1
 2 C  dyz             0.1       0.2       0.0       0.4       0.7       0.6
 2 C  dx2y2           1.6       0.1       0.9       0.0       0.0       0.1
 2 C  dxy             0.0       0.2       1.2       0.1       0.3       0.3
 3 C  s               0.0       0.1       0.0      14.4       8.5       7.8
 3 C  pz              0.0       8.7       0.0       3.0      11.8       2.5
 3 C  px              0.0       6.4       0.0       3.1       2.2      18.9
 3 C  py             37.5       0.0      28.4       0.0       0.0       0.0
 3 C  dz2             0.0       2.5       0.0       0.4       0.1       0.1
 3 C  dxz             0.0       0.8       0.0       0.0       0.1       3.5
 3 C  dyz             0.0       0.0       0.9       0.0       0.0       0.0
 3 C  dx2y2           0.0       1.4       0.0       0.2       0.7       0.1
 3 C  dxy             0.6       0.0       0.8       0.0       0.0       0.0
 4 O  s               0.0       0.1       0.0       0.3       0.6       0.4
 4 O  pz              0.0       4.8       0.0       3.6       0.6       2.5
 4 O  px              0.0       3.6       0.0       0.3       1.4       3.1
 4 O  py              0.3       0.0       3.4       0.0       0.0       0.0
 4 O  dz2             0.0       0.3       0.0       0.0       0.0       0.1
 4 O  dxz             0.0       0.1       0.0       0.3       0.1       2.4
 4 O  dx2y2           0.0       0.3       0.0       0.3       0.2       1.3
 4 O  dxy             0.3       0.0       0.0       0.0       0.0       0.0
 5 H  s               6.1       0.0       8.7       0.1       1.9       0.4
 6 H  s               0.2       2.5       0.3       0.9       0.5       2.2
 7 H  s               1.7       1.1       5.8       0.3       0.2       0.3
 8 H  s               0.0       0.7       0.0      17.3       0.4       2.7
 9 H  s               6.0       0.0       8.7       0.0       2.0       0.4
10 H  s               1.6       1.1       5.9       0.1       0.2       0.3
11 H  s               0.2       2.5       0.3       0.9       0.5       2.2
12 H  s               0.0      10.1       0.0      10.0       7.8       0.1

                     42        43        44        45        46        47   
                   0.59760   0.61425   0.63416   0.63965   0.64704   0.66275
                   0.00000   0.00000   0.00000   0.00000   0.00000   0.00000
                  --------  --------  --------  --------  --------  --------
 0 C  s               5.9      13.7       0.9      10.0       3.5       7.5
 0 C  pz              1.5       0.6       0.7       6.8       8.6       8.9
 0 C  px              6.7       1.1       4.6       1.8       1.6       2.1
 0 C  py              0.5       0.2       3.0       1.1       4.9      16.9
 0 C  dz2             0.6       0.0       1.1       0.1       0.5       0.1
 0 C  dxz             0.1       0.2       2.2       0.5       0.2       0.8
 0 C  dyz             0.0       0.0       0.7       0.1       0.2       0.0
 0 C  dx2y2           1.1       0.2       0.5       0.0       0.1       0.0
 0 C  dxy             0.4       0.0       1.8       0.0       0.2       0.0
 1 C  s               0.0       0.5       0.0       0.5       0.6       0.0
 1 C  pz              0.0       2.9       0.0       1.8       7.7       0.0
 1 C  px              0.0       0.6       0.0       0.2      15.5       0.0
 1 C  py             53.7       0.0       1.7       0.0       0.0       9.8
 1 C  dz2             0.0       0.1       0.0       0.8       0.1       0.0
 1 C  dyz             0.1       0.0       0.4       0.0       0.0       0.0
 1 C  dx2y2           0.0       0.0       0.0       0.2       0.1       0.0
 1 C  dxy             0.2       0.0       0.1       0.0       0.0       0.0
 2 C  s               6.0      13.6       1.0       9.9       3.5       7.3
 2 C  pz              1.6       0.6       0.8       6.7       8.4       9.0
 2 C  px              6.7       1.1       4.5       1.8       1.7       1.8
 2 C  py              0.5       0.2       3.0       1.1       4.8      16.2
 2 C  dz2             0.6       0.0       1.1       0.1       0.5       0.1
 2 C  dxz             0.1       0.2       2.2       0.5       0.2       0.8
 2 C  dyz             0.0       0.0       0.7       0.1       0.1       0.0
 2 C  dx2y2           1.1       0.2       0.5       0.0       0.1       0.0
 2 C  dxy             0.4       0.0       1.8       0.0       0.2       0.0
 3 C  s               0.0       2.8       0.0       4.0       6.1       0.0
 3 C  pz              0.0      12.8       0.0      11.6       1.7       0.0
 3 C  px              0.0      14.2       0.0       1.7       0.1       0.0
 3 C  py              0.4       0.0      13.5       0.0       0.0       1.1
 3 C  dz2             0.0       0.3       0.0       2.0       0.0       0.0
 3 C  dxz             0.0       1.8       0.0       0.0       0.1       0.0
 3 C  dyz             1.1       0.0       0.0       0.0       0.0       0.0
 3 C  dx2y2           0.0       1.3       0.0       0.0       0.1       0.0
 4 O  s               0.0       0.6       0.0       0.6       0.3       0.0
 4 O  pz              0.0       1.9       0.0       0.4       0.5       0.0
 4 O  px              0.0       6.0       0.0       0.2       1.3       0.0
 4 O  py              1.7       0.0       2.0       0.0       0.0       1.1
 4 O  dz2             0.0       0.2       0.0       0.1       0.0       0.0
 4 O  dxz             0.0       1.9       0.0       0.1       0.2       0.0
 4 O  dx2y2           0.0       2.5       0.0       0.0       0.6       0.0
 5 H  s               0.4       6.1       3.6       0.4       0.9       1.2
 6 H  s               3.0       1.0       0.7       4.1       6.2       4.6
 7 H  s               1.2       0.5      21.1       0.0       2.6       2.3
 8 H  s               0.0       0.5       0.0       4.5       6.8       0.0
 9 H  s               0.4       6.1       3.5       0.4       0.9       1.3
10 H  s               1.2       0.5      21.4       0.0       2.4       2.0
11 H  s               3.0       1.0       0.8       4.0       6.0       5.0
12 H  s               0.0       2.1       0.0      21.9       0.1       0.0

                     48        49        50        51        52        53   
                   0.66310   0.66888   0.67503   0.69123   0.69823   0.74886
                   0.00000   0.00000   0.00000   0.00000   0.00000   0.00000
                  --------  --------  --------  --------  --------  --------
 0 C  s               0.9      12.4       2.0       1.1       0.4       2.4
 0 C  pz              0.3       8.7       3.5       1.0      11.4       3.6
 0 C  px              6.3       6.2       2.6       7.6      18.0       2.3
 0 C  py              5.7       4.0       3.5       0.3       1.5       1.2
 0 C  dz2             0.1       0.3       0.1       0.1       0.2       0.7
 0 C  dxz             0.0       0.2       0.2       0.6       0.0       0.7
 0 C  dyz             0.0       0.0       0.0       1.2       0.2       0.9
 0 C  dx2y2           0.3       0.1       0.0       0.3       0.0       0.8
 0 C  dxy             0.3       0.0       0.1       0.3       0.0       0.0
 1 C  s               6.0       0.0      12.3       1.2       0.0       2.8
 1 C  pz             11.5       0.0      15.2      14.0       0.0      16.9
 1 C  px              0.5       0.0       2.4       2.7       0.0      10.4
 1 C  py              0.0       2.2       0.0       0.0       8.1       0.0
 1 C  dz2             0.2       0.0       0.1       0.3       0.0       2.4
 1 C  dxz             0.7       0.0       0.0       0.7       0.0       0.4
 1 C  dx2y2           0.1       0.0       0.1       0.3       0.0       0.6
 1 C  dxy             0.0       0.0       0.0       0.0       0.2       0.0
 2 C  s               1.0      12.4       2.0       1.1       0.4       2.4
 2 C  pz              0.4       8.8       3.4       1.0      11.3       3.6
 2 C  px              6.4       6.1       2.5       7.8      18.0       2.2
 2 C  py              6.5       4.0       3.5       0.4       1.5       1.2
 2 C  dz2             0.0       0.3       0.1       0.1       0.2       0.7
 2 C  dxz             0.0       0.2       0.2       0.6       0.0       0.7
 2 C  dyz             0.0       0.0       0.0       1.2       0.2       0.9
 2 C  dx2y2           0.3       0.1       0.0       0.3       0.0       0.8
 2 C  dxy             0.3       0.0       0.1       0.3       0.1       0.0
 3 C  s               1.0       0.0       0.7       2.2       0.0       2.1
 3 C  pz             15.0       0.0       4.4      10.3       0.0       5.9
 3 C  px              0.4       0.0       4.9       9.1       0.0       2.6
 3 C  py              0.0       2.9       0.0       0.0       1.2       0.0
 3 C  dz2             0.4       0.0       0.3       0.3       0.0       0.1
 3 C  dxz             0.1       0.0       0.0       0.0       0.0       0.4
 3 C  dyz             0.0       0.0       0.0       0.0       0.4       0.0
 3 C  dx2y2           0.0       0.0       0.2       1.2       0.0       0.0
 3 C  dxy             0.0       0.0       0.0       0.0       1.0       0.0
 4 O  s               0.1       0.0       0.0       0.1       0.0       7.6
 4 O  pz              2.5       0.0       0.1       1.1       0.0       5.7
 4 O  px              0.4       0.0       1.2       1.3       0.0       3.6
 4 O  py              0.0       0.5       0.0       0.0       2.0       0.0
 4 O  dz2             0.0       0.0       0.0       0.0       0.0       0.1
 4 O  dxz             0.2       0.0       0.0       0.3       0.0       0.1
 4 O  dx2y2           0.1       0.0       0.0       0.3       0.0       0.1
 5 H  s               0.9       1.5       3.4      13.1      10.3       0.0
 6 H  s               2.2      12.5       1.8       0.4       1.3       5.0
 7 H  s               9.0       1.3       7.3       0.4       0.5       0.5
 8 H  s               6.3       0.0       6.2       0.3       0.0       0.8
 9 H  s               0.8       1.4       3.4      13.3      10.2       0.0
10 H  s               9.1       1.3       7.3       0.4       0.4       0.5
11 H  s               1.9      12.6       1.7       0.4       1.2       5.0
12 H  s               1.7       0.0       2.9       0.7       0.0       1.3

                     54        55        56        57        58        59   
                   0.86979   0.90372   0.93272   1.07196   1.07235   1.09638
                   0.00000   0.00000   0.00000   0.00000   0.00000   0.00000
                  --------  --------  --------  --------  --------  --------
 0 C  s               2.4       1.1      12.6      11.5       7.2       0.5
 0 C  pz              0.3       2.4       0.2       0.2       0.6       0.0
 0 C  px              0.3       5.0       2.6       2.3       0.1       0.4
 0 C  py              0.1       1.3       6.6       0.4       2.9       0.0
 0 C  dz2             0.0       0.1       0.2       0.1       0.1       0.1
 0 C  dxz             0.5       0.8       0.8       2.1       0.0       0.2
 0 C  dyz             0.1       0.1       0.2       0.2       0.0       0.0
 0 C  dx2y2           0.4       0.0       0.1       1.0       0.0       0.0
 0 C  dxy             0.0       0.1       0.1       0.1       0.2       0.0
 1 C  s               3.0      39.6       0.0      15.8       0.6       0.5
 1 C  pz              1.1       1.7       0.0       4.9       0.2       0.3
 1 C  px              2.0       0.2       0.0       1.8       0.1       0.0
 1 C  py              0.0       0.0       0.7       0.0       0.0       0.0
 1 C  dz2             0.0       0.1       0.0       0.7       0.0       0.5
 1 C  dxz             0.4       0.0       0.0       2.5       0.1       0.3
 1 C  dyz             0.0       0.0       0.0       0.0       0.1       0.0
 1 C  dx2y2           0.9       0.1       0.0       2.0       0.1       0.1
 2 C  s               2.4       1.2      12.5       4.5      14.2       0.4
 2 C  pz              0.3       2.4       0.2       0.3       0.4       0.0
 2 C  px              0.3       4.9       2.6       2.1       0.4       0.4
 2 C  py              0.1       1.3       6.6       0.7       2.5       0.0
 2 C  dz2             0.0       0.1       0.2       0.1       0.0       0.1
 2 C  dxz             0.5       0.8       0.8       1.8       0.3       0.2
 2 C  dyz             0.1       0.1       0.2       0.2       0.0       0.0
 2 C  dx2y2           0.4       0.0       0.1       1.0       0.0       0.0
 2 C  dxy             0.0       0.1       0.1       0.0       0.2       0.0
 3 C  s               2.8      12.5       0.0       3.7       0.1       0.8
 3 C  pz              0.0       0.4       0.0       7.3       0.3       6.0
 3 C  px              0.9       2.1       0.0       4.9       0.2       4.4
 3 C  py              0.0       0.0       0.3       0.2       5.9       0.0
 3 C  dz2             0.2       2.6       0.0       1.7       0.1       0.4
 3 C  dxz             1.9       0.2       0.0       0.5       0.0       1.3
 3 C  dyz             0.0       0.0       1.4       0.0       0.0       0.0
 3 C  dx2y2           1.2       1.8       0.0       0.1       0.0       1.0
 3 C  dxy             0.0       0.0       0.6       0.0       1.1       0.0
 4 O  s               3.8       0.3       0.0       3.0       0.1       0.5
 4 O  pz              8.8       1.5       0.0       1.9       0.0      64.0
 4 O  px             59.4       1.8       0.0       1.0       0.0      12.6
 4 O  py              0.0       0.0      34.6       1.9      51.0       0.0
 4 O  dz2             0.2       0.2       0.0       0.3       0.0       1.7
 4 O  dxz             0.7       0.0       0.0       0.2       0.0       1.5
 4 O  dyz             0.0       0.0       0.1       0.0       0.2       0.0
 4 O  dx2y2           1.2       0.2       0.0       0.1       0.0       0.1
 4 O  dxy             0.0       0.0       0.0       0.0       1.3       0.0
 5 H  s               0.4       0.1       3.4       1.0       1.1       0.0
 6 H  s               0.4       1.3       2.9       0.9       1.7       0.3
 7 H  s               0.2       1.0       1.5       3.9       0.3       0.1
 8 H  s               1.2       7.5       0.0       4.5       0.2       0.3
 9 H  s               0.4       0.1       3.4       0.3       1.8       0.0
10 H  s               0.2       1.0       1.5       2.8       1.5       0.1
11 H  s               0.4       1.4       2.9       0.2       2.4       0.3
12 H  s               0.2       0.6       0.0       3.4       0.1       0.3

                     60        61        62        63        64        65   
                   1.29386   1.37079   1.48973   1.58968   1.63646   1.66909
                   0.00000   0.00000   0.00000   0.00000   0.00000   0.00000
                  --------  --------  --------  --------  --------  --------
 0 C  s               0.1       0.6       0.2       1.1       0.4       1.4
 0 C  pz              0.8       0.0       0.1       0.0       0.0       0.4
 0 C  px              0.2       0.1       0.2       0.0       0.9       0.4
 0 C  py              0.1       0.0       0.0       0.2       0.3       1.4
 0 C  dz2             0.1       0.2       0.6       0.1       0.2       1.2
 0 C  dxz             0.2       0.0       4.9       1.7       7.0       3.2
 0 C  dyz            15.2       0.1       0.4       0.0       5.3       3.6
 0 C  dx2y2           0.0       0.8       7.5       1.1      18.9       6.7
 0 C  dxy             3.3       0.0       0.9       1.0       1.0       9.0
 1 C  s               0.0       2.7       0.0       0.0       0.0       0.0
 1 C  pz              0.0       0.1       1.7       0.0       0.0       0.0
 1 C  px              0.0       0.1       4.7       0.0       0.0       0.0
 1 C  py              0.2       0.0       0.0       0.9       1.0       7.1
 1 C  dz2             0.0       0.1       4.2       0.0       0.0       0.0
 1 C  dxz             0.0       1.1      11.4       0.0       0.0       0.0
 1 C  dyz            29.9       0.0       0.0       0.0       0.3       1.9
 1 C  dx2y2           0.0       0.7      24.5       0.0       0.0       0.0
 1 C  dxy            10.7       0.0       0.0       0.6       1.3      12.5
 2 C  s               0.1       0.6       0.2       1.1       0.4       1.4
 2 C  pz              0.8       0.0       0.1       0.0       0.0       0.4
 2 C  px              0.2       0.1       0.2       0.0       0.8       0.4
 2 C  py              0.1       0.0       0.0       0.2       0.3       1.4
 2 C  dz2             0.1       0.2       0.6       0.1       0.2       1.2
 2 C  dxz             0.3       0.0       4.9       1.7       6.9       3.3
 2 C  dyz            15.2       0.1       0.5       0.0       5.3       3.5
 2 C  dx2y2           0.0       0.9       7.6       1.0      18.9       6.6
 2 C  dxy             3.2       0.0       0.9       1.0       0.9       9.0
 3 C  s               0.0       3.1       0.8       0.0       0.0       0.0
 3 C  pz              0.0       0.2       6.1       0.0       0.0       0.0
 3 C  px              0.0       0.2       2.8       0.0       0.0       0.0
 3 C  py              0.2       0.0       0.0       0.7       0.5       0.3
 3 C  dz2             0.0       0.2       1.8       0.0       0.0       0.0
 3 C  dxz             0.0       2.5       1.6       0.0       0.0       0.0
 3 C  dyz             3.4       0.0       0.0      67.8       0.1       2.9
 3 C  dx2y2           0.0       0.0       0.6       0.0       0.0       0.0
 3 C  dxy            13.0       0.0       0.0       7.9      24.0      17.8
[...]
 1 C  dxy             6.5       0.0       0.0       0.0       5.0       0.0
 2 C  s               0.0       0.0       0.0       0.2       0.1       0.0
 2 C  pz              1.3       0.9       0.2       0.2       0.2       0.0
 2 C  px              0.8       0.5       1.3       0.3       0.1       0.1
 2 C  py              0.0       0.0       0.7       0.2       0.1       0.0
 2 C  dz2             6.2      15.1      14.3       9.8      10.0       3.2
 2 C  dxz            12.4      17.1       5.5       0.3       4.8       0.4
 2 C  dyz             3.2       0.1       3.6       0.2       1.2       4.6
 2 C  dx2y2           2.7       7.9       6.6       7.5       3.6       8.7
 2 C  dxy             4.6       0.0       9.8       1.4       2.5       4.4
 3 C  s               0.0       0.1       0.0       0.7       0.0       0.8
 3 C  pz              0.0       0.1       0.0       0.6       0.0       0.6
 3 C  px              0.0       0.1       0.0       0.0       0.0       1.0
 3 C  py              0.2       0.0       0.0       0.0       0.6       0.0
 3 C  dz2             0.0       0.0       0.0       2.0       0.0       1.0
 3 C  dxz             0.0       0.1       0.0       2.0       0.0       2.0
 3 C  dyz             4.9       0.0       0.0       0.0       2.2       0.0
 3 C  dx2y2           0.0       1.1       0.0      21.6       0.0       0.9
 3 C  dxy             5.4       0.0       0.0       0.0       5.1       0.0
 4 O  s               0.0       0.1       0.0       2.7       0.0       0.2
 4 O  pz              0.0       0.1       0.0       1.5       0.0       0.2
 4 O  px              0.0       0.2       0.0       2.5       0.0       0.1
 4 O  dz2             0.0       0.0       0.0       1.5       0.0       2.1
 4 O  dxz             0.0       0.1       0.0       1.9       0.0       2.7
 4 O  dyz             1.8       0.0       0.0       0.0       6.2       0.0
 4 O  dx2y2           0.0       0.0       0.0       0.5       0.0       0.6
 4 O  dxy             0.1       0.0       0.0       0.0       0.7       0.0
 5 H  s               2.9       4.0       1.2       0.3       1.0       0.3
 6 H  s               1.9       3.0       1.3       1.1       1.4       0.2
 7 H  s               0.0       0.0       5.2       0.2       0.0       1.4
 8 H  s               0.0       0.2       0.0       1.8       0.0       1.3
 9 H  s               2.9       4.0       1.2       0.3       1.1       0.2
10 H  s               0.0       0.0       5.2       0.2       0.1       1.4
11 H  s               1.9       3.1       1.3       1.1       1.3       0.3
12 H  s               0.0       0.0       0.0       0.2       0.0       0.2

                     78        79        80        81        82        83   
                   2.45084   2.50853   2.51780   2.63499   2.65403   3.05019
                   0.00000   0.00000   0.00000   0.00000   0.00000   0.00000
                  --------  --------  --------  --------  --------  --------
 0 C  s               0.1       0.4       0.7       0.5       0.0       0.0
 0 C  px              0.0       0.6       0.3       0.2       0.2       0.0
 0 C  py              0.1       0.6       1.6       0.8       0.0       0.0
 0 C  dz2             0.5       1.4       1.9       0.4       0.0       0.1
 0 C  dxz             0.3       1.6       0.2       0.3       0.1       0.0
 0 C  dyz             1.4       0.9       1.7       1.3       0.0       0.0
 0 C  dx2y2           2.1       0.0       2.8       2.0       0.4       0.0
 0 C  dxy             0.3       6.3       6.8       2.0       1.1       0.0
 1 C  s               0.5       0.4       0.0       0.0       0.2       0.0
 1 C  px              0.1       3.2       0.0       0.0       0.8       0.0
 1 C  py              0.0       0.0       3.3       1.1       0.0       0.0
 1 C  dz2            20.2       5.3       0.0       0.0       1.6       0.0
 1 C  dxz             0.6       9.4       0.0       0.0       0.4       0.0
 1 C  dyz             0.0       0.0       6.1       0.5       0.0       0.9
 1 C  dx2y2           4.3      27.2       0.0       0.0       8.8       0.0
 1 C  dxy             0.0       0.0      21.8      19.6       0.0       0.4
 2 C  s               0.1       0.5       0.7       0.5       0.0       0.0
 2 C  px              0.0       0.6       0.3       0.2       0.1       0.0
 2 C  py              0.1       0.6       1.6       0.8       0.0       0.0
 2 C  dz2             0.4       1.5       1.8       0.4       0.0       0.1
 2 C  dxz             0.3       1.6       0.2       0.3       0.1       0.0
 2 C  dyz             1.3       1.0       1.7       1.3       0.0       0.0
 2 C  dx2y2           2.1       0.0       2.8       1.9       0.5       0.0
 2 C  dxy             0.3       6.6       6.6       2.1       1.0       0.0
 3 C  s               0.1       2.3       0.0       0.0       0.5       0.0
 3 C  pz              0.0       1.0       0.0       0.0       0.1       0.0
 3 C  px              1.0       1.7       0.0       0.0       0.9       0.0
 3 C  py              0.0       0.0       0.0       0.2       0.0       1.1
 3 C  dz2             3.0       0.0       0.0       0.0       5.9       0.0
 3 C  dxz            21.7       0.3       0.0       0.0       7.4       0.0
 3 C  dyz             0.0       0.0       0.2       4.1       0.0       2.4
 3 C  dx2y2           8.9       4.5       0.0       0.0       1.3       0.0
 3 C  dxy             0.0       0.0       0.0       2.1       0.0      16.4
 4 O  s               3.5       0.1       0.0       0.0       0.3       0.0
 4 O  pz              0.8       0.3       0.0       0.0       0.0       0.0
 4 O  px              4.1       0.1       0.0       0.0       0.4       0.0
 4 O  py              0.0       0.0       0.0       0.0       0.0       1.3
 4 O  dz2             7.5      16.1       0.0       0.0      26.3       0.0
 4 O  dxz            10.5       0.4       0.0       0.0      10.8       0.0
 4 O  dyz             0.0       0.0      29.4      42.2       0.0      15.9
 4 O  dx2y2           2.2       2.4       0.0       0.0      29.5       0.0
 4 O  dxy             0.0       0.0       6.8      15.0       0.0      61.2
 5 H  s               0.1       0.1       0.1       0.1       0.0       0.0
 7 H  s               0.0       0.1       0.2       0.0       0.0       0.0
 8 H  s               1.0       0.3       0.0       0.0       0.2       0.0
 9 H  s               0.1       0.1       0.1       0.1       0.0       0.0
10 H  s               0.0       0.1       0.2       0.0       0.0       0.0
12 H  s               0.1       0.0       0.0       0.0       0.6       0.0

                     84        85   
                   3.17621   3.49015
                   0.00000   0.00000
                  --------  --------
 1 C  s               0.3       0.0
 1 C  pz              0.3       0.0
 1 C  px              0.6       0.0
 1 C  dz2             0.3       0.2
 1 C  dxz             3.4       0.2
 1 C  dx2y2           0.3       0.0
 3 C  s               0.1       7.7
 3 C  pz              0.6       1.3
 3 C  px              0.1       5.8
 3 C  dz2            10.7       0.6
 3 C  dxz             8.3       1.5
 3 C  dx2y2           5.8       3.1
 4 O  s               0.2       6.2
 4 O  pz              0.8       0.9
 4 O  px              0.5       3.2
 4 O  dz2            33.3       2.4
 4 O  dxz            20.2      35.5
 4 O  dx2y2          13.4      31.2
12 H  s               0.5       0.0


                      *****************************
                      * MAYER POPULATION ANALYSIS *
                      *****************************

  NA   - Mulliken gross atomic population
  ZA   - Total nuclear charge
  QA   - Mulliken gross atomic charge
  VA   - Mayer's total valence
  BVA  - Mayer's bonded valence
  FA   - Mayer's free valence

  ATOM       NA         ZA         QA         VA         BVA        FA
  0 C      6.2687     6.0000    -0.2687     3.9423     3.9423    -0.0000
  1 C      6.1551     6.0000    -0.1551     3.9700     3.9700    -0.0000
  2 C      6.2687     6.0000    -0.2687     3.9422     3.9422    -0.0000
  3 C      5.9534     6.0000     0.0466     4.0889     4.0889     0.0000
  4 O      8.1589     8.0000    -0.1589     2.2899     2.2899    -0.0000
  5 H      0.8856     1.0000     0.1144     0.9562     0.9562    -0.0000
  6 H      0.8959     1.0000     0.1041     0.9648     0.9648    -0.0000
  7 H      0.8794     1.0000     0.1206     0.9491     0.9491    -0.0000
  8 H      0.9143     1.0000     0.0857     0.9711     0.9711    -0.0000
  9 H      0.8857     1.0000     0.1143     0.9563     0.9563    -0.0000
 10 H      0.8794     1.0000     0.1206     0.9490     0.9490    -0.0000
 11 H      0.8959     1.0000     0.1041     0.9649     0.9649    -0.0000
 12 H      0.9590     1.0000     0.0410     0.9556     0.9556    -0.0000

  Mayer bond orders larger than 0.100000
B(  0-C ,  1-C ) :   1.0777 B(  0-C ,  5-H ) :   0.9477 B(  0-C ,  6-H ) :   0.9483 
B(  0-C ,  7-H ) :   0.9511 B(  1-C ,  2-C ) :   1.0777 B(  1-C ,  3-C ) :   0.9546 
B(  1-C ,  8-H ) :   0.8925 B(  2-C ,  9-H ) :   0.9477 B(  2-C , 10-H ) :   0.9512 
B(  2-C , 11-H ) :   0.9482 B(  3-C ,  4-O ) :   2.1883 B(  3-C , 12-H ) :   0.8987 


-------
TIMINGS
-------

Total SCF time: 0 days 0 hours 0 min 3 sec 

Total time                  ....       3.003 sec
Sum of individual times     ....       2.748 sec  ( 91.5%)

SCF preparation             ....       0.140 sec  (  4.7%)
Fock matrix formation       ....       2.173 sec  ( 72.4%)
  Startup                   ....       0.037 sec  (  1.7% of F)
  Split-RI-J                ....       0.539 sec  ( 24.8% of F)
  XC integration            ....       1.228 sec  ( 56.5% of F)
    Basis function eval.    ....       0.380 sec  ( 31.0% of XC)
    Density eval.           ....       0.124 sec  ( 10.1% of XC)
    XC-Functional eval.     ....       0.127 sec  ( 10.4% of XC)
    XC-Potential eval.      ....       0.231 sec  ( 18.8% of XC)
Diagonalization             ....       0.000 sec  (  0.0%)
Density matrix formation    ....       0.109 sec  (  3.6%)
Total Energy calculation    ....       0.021 sec  (  0.7%)
Population analysis         ....       0.038 sec  (  1.3%)
Orbital Transformation      ....       0.041 sec  (  1.4%)
Orbital Orthonormalization  ....       0.000 sec  (  0.0%)
DIIS solution               ....       0.171 sec  (  5.7%)
  MO trafo                  ....       0.000 sec  (  0.0 % of DIIS)
  Orb grad                  ....       0.000 sec  (  0.0 % of DIIS)
  Energy W gradient         ....       0.000 sec  (  0.0 % of DIIS)
  DIIS error                ....       0.001 sec  (  0.6 % of DIIS)
  DIIS work                 ....       0.135 sec  ( 79.1 % of DIIS)
  Form Q                    ....       0.000 sec  (  0.0 % of DIIS)
  Form QpQm                 ....       0.000 sec  (  0.0 % of DIIS)
  Exp/Cayley                ....       0.000 sec  (  0.0 % of DIIS)
  Orb update                ....       0.000 sec  (  0.0 % of DIIS)
  Wake-sleep                ....       0.011 sec  (  6.4 % of DIIS)
SOSCF solution              ....       0.056 sec  (  1.9%)
  MO trafo                  ....       0.028 sec  ( 50.3 % of SOSCF)
  Orb grad                  ....       0.001 sec  (  1.8 % of SOSCF)
  Rot update                ....       0.012 sec  ( 21.5 % of SOSCF)
  Step                      ....       0.015 sec  ( 26.3 % of SOSCF)
Finished LeanSCF after   3.1 sec

Maximum memory used throughout the entire LEANSCF-calculation: 8.4 MB


-------------------------------------------------------------------------------
                          DFT DISPERSION CORRECTION                            
                                                                               
                                DFTD4 V3.4.0                                   
-------------------------------------------------------------------------------
The PBE functional is recognized
Active option DFTDOPT                   ...         5   

-------------------------   ----------------
Dispersion correction           -0.008392486
-------------------------   ----------------

------------------   -----------------
gCP correction             0.052826355
------------------   -----------------

-------------------------   --------------------
FINAL SINGLE POINT ENERGY      -231.919084736087
-------------------------   --------------------


------------------------------------------------------------------------------
                              ORCA PROPERTY CALCULATIONS
------------------------------------------------------------------------------

GBWName                                 ... sp.gbw
Number of atoms                         ...     13
Number of basis functions               ...     86
Max core memory                         ...   1024 MB

Electric properties:
Dipole moment                           ... YES
Quadrupole moment                       ...  NO
Static polarizability (Dipole/Dipole)   ...  NO
Static polarizability (Dipole/Quad.)    ...  NO
Static polarizability (Quad./Quad.)     ...  NO
Static polarizability (Velocity)        ...  NO

Atomic electric properties:
Dipole moment                           ...  NO
Quadrupole moment                       ...  NO
Static polarizability                   ...  NO

Choice of electric origin               ... Center of mass
Position of electric origin             ...     0.000047     0.000000     0.000004

General magnetic properties:
Magnetizability                         ...  NO

EPR properties:
g-Tensor (aka g-matrix)                 ...  NO
Zero-Field splitting spin-orbit         ...  NO
Zero-field splitting spin-spin          ...  NO
Hyperfine couplings                     ...  NO (   0 nuclei)
Quadrupole couplings                    ...  NO (   0 nuclei)
Contact density                         ...  NO (   0 nuclei)

NMR properties:
Chemical shifts                         ...  NO (   0 nuclei)
Spin-rotation constants                 ...  NO (   0 nuclei)
Spin-spin couplings                     ...  NO (   0 nuclei,    0 pairs)

Choice of magnetic origin               ... GIAO
Position of magnetic origin             ...     0.000000     0.000000     0.000000

Properties with geometric perturbations:
SCF Hessian                             ...  NO
IR spectrum                             ...  NO
VCD spectrum                            ...  NO
X-ray spectroscopy properties:
SCF XES/XAS/RIXS spectra                ...  NO


-------------
DIPOLE MOMENT
-------------

Method             : SCF
Type of density    : Electron Density
Multiplicity       :   1
Irrep              :   0
Energy             :  -231.9635186048942330 Eh
Relativity type    : 
Basis              : AO
                                X                 Y                 Z
Electronic contribution:     -6.336593732      -0.005766382      -0.683005757
Nuclear contribution   :      7.341689449       0.005746174       0.875983161
                        -----------------------------------------
Total Dipole Moment    :      1.005095717      -0.000020208       0.192977403
                        -----------------------------------------
Magnitude (a.u.)       :      1.023453799
Magnitude (Debye)      :      2.601412819



--------------------
Rotational spectrum 
--------------------
 
Rotational constants in cm-1:             0.260106             0.125389             0.094902 
Rotational constants in MHz :          7797.772363          3759.073621          2845.100997 

Dipole components along the rotational axes: 
x,y,z [a.u.] :     1.005095     0.000020     0.192980 
x,y,z [Debye]:     2.554749     0.000051     0.490515 

 

Dipole moment calculation done in   0.0 sec 

Maximum memory used throughout the entire PROP-calculation: 5.5 MB

--------------------------------
SUGGESTED CITATIONS FOR THIS RUN
--------------------------------

Below you find a list of papers that are relevant to this ORCA run
We neither can nor want to force you to cite these papers, but we appreciate if you do
You receive ORCA, which is the product of decades of hard work by many enthusiastic individuals, for free
The only thing we kindly ask in return is that you cite our papers,
We deeply appreciate it, if you show your appreciation for ORCA by not just citing the generic ORCA reference.

Please note that relegating all ORCA citations to the supporting information does *not* help us.
SI sections are not indexed - citations you put there will not count into any citation statistics
But we need these citations in order to attract the funding resources that allow us to do what we are doing

Therefore, if you are a happy ORCA user, please consider citing a few of the papers listed below in the main body of your paper

In addition to the list printed below, the program has created the file sp.bibtex that contains the list in bibtex format
You can import this file easily into all common literature databanks and citation aid programs


List of essential papers. We consider these as the minimum necessary citations

  1. Neese,F.
     Software update: the ORCA program system, version 5.0
     WIRES Comput. Molec. Sci., 2022 12(1)e1606
     doi.org/10.1002/wcms.1606

List of papers to cite with high priority. The work reported in these papers was absolutely
necessary for this run to complete.
Our perspective: the developers of density functionals and basis sets usually get cited in chemistry papers
Good! But without the algorithms to do something with them, the functionals or basis sets would not do anything.
Hence, in our opinion, the algorithm design and method developments papers are equally worthy of getting cited

  1. Neese,F.
     An improvement of the resolution of the identity approximation for the formation of the Coulomb matrix
     J. Comp. Chem., 2003 24(14)1740-1747
     doi.org/10.1002/jcc.10318
  2. Neese,F.
     The SHARK Integral Generation and Digestion System
     J. Comp. Chem., 2022  1-16
     doi.org/10.1002/jcc.26942
  3. Caldeweyher,E.; Bannwarth,C.; Grimme,S.
     Extension of the D3 dispersion coefficient model
     J. Chem. Phys., 2017 147 034112-XXXX
     doi.org/10.1063/1.4993215
  4. Caldeweyher,E.; Ehlert,S.; Hansen,A.; Neugebauer,H.; Spicher,S.; Bannwarth,C.; Grimme,S.
     A generally applicable atomic-charge dependent London dispersion correction
     J. Chem. Phys., 2019 150 154122-XXXX
     doi.org/10.1063/1.5090222
  5. Caldeweyher,E.; Mewes,J.; Ehlert,S.; Grimme,S.
     Extension and evaluation of the D4 London-dispersion model for periodic systems
     Phys. Chem. Chem. Phys., 2020 22(16)8499-8512
     doi.org/10.1039/D0CP00502A

List of suggested additional citations. These are papers that are important in the 'surrounding' of 
of this run, or papers that preceded the highly important papers. If you like your results we are grateful for a citation.

  1. Neese,F.
     The ORCA program system
     WIRES Comput. Molec. Sci., 2012 2(1)73-78
     doi.org/10.1002/wcms.81
  2. Neese,F.
     Software update: the ORCA program system, version 4.0
     WIRES Comput. Molec. Sci., 2018 8(1)1-6
     doi.org/10.1002/wcms.1327
  3. Neese,F.; Wennmohs,F.; Becker,U.; Riplinger,C.
     The ORCA quantum chemistry program package
     J. Chem. Phys., 2020 152 Art. No. L224108
     doi.org/10.1063/5.0004608

List of optional additional citations

  1. Neese,F.
     Approximate second-order SCF convergence for spin unrestricted wavefunctions
     Chem. Phys. Lett., 2000 325(1-3)93-98
     doi.org/10.1016/s0009-2614(00)00662-x

Timings for individual modules:

Sum of individual times          ...        4.004 sec (=   0.067 min)
Startup calculation              ...        0.451 sec (=   0.008 min)  11.3 %
SCF iterations                   ...        3.474 sec (=   0.058 min)  86.8 %
Property calculations            ...        0.079 sec (=   0.001 min)   2.0 %
                             ****ORCA TERMINATED NORMALLY****
TOTAL RUN TIME: 0 days 0 hours 0 minutes 4 seconds 542 msec
