
                                 *****************
                                 * O   R   C   A *
                                 *****************

                                            #,                                       
                                            ###                                      
                                            ####                                     
                                            #####                                    
                                            ######                                   
                                           ########,                                 
                                     ,,################,,,,,                         
                               ,,#################################,,                 
                          ,,##########################################,,             
                       ,#########################################, ''#####,          
                    ,#############################################,,   '####,        
                  ,##################################################,,,,####,       
                ,###########''''           ''''###############################       
              ,#####''   ,,,,##########,,,,          '''####'''          '####       
            ,##' ,,,,###########################,,,                        '##       
           ' ,,###''''                  '''############,,,                           
         ,,##''                                '''############,,,,        ,,,,,,###''
      ,#''                                            '''#######################'''  
     '                                                          ''''####''''         
             ,#######,   #######,   ,#######,      ##                                
            ,#'     '#,  ##    ##  ,#'     '#,    #''#        ,####,   ,####,        
            ##       ##  ##   ,#'  ##            #'  '#       #'       #'  '#        
            ##       ##  #######   ##           ,######,      #####,   #    #        
            '#,     ,#'  ##    ##  '#,     ,#' ,#      #,     #,   #   #,  ,#        
             '#######'   ##     ##  '#######'  #'      '#     '####' # '####'        



                #########################################################
                #                        -***-                          #
                #          Department of theory and spectroscopy        #
                #                                                       #
                #                      Frank Neese                      #
                #                                                       #
                #     Directorship, Architecture, Infrastructure        #
                #                    SHARK, DRIVERS                     #
                #        Core code/Algorithms in most modules           #
                #                                                       #
                #        Max Planck Institute fuer Kohlenforschung      #
                #                Kaiser Wilhelm Platz 1                 #
                #                 D-45470 Muelheim/Ruhr                 #
                #                      Germany                          #
                #                                                       #
                #                  All rights reserved                  #
                #                        -***-                          #
                #########################################################


                         Program Version 6.0.0  -   RELEASE  -


 With contributions from (in alphabetic order):
   Daniel Aravena         : Magnetic Suceptibility
   Michael Atanasov       : Ab Initio Ligand Field Theory (pilot matlab implementation)
   Alexander A. Auer      : GIAO ZORA, VPT2 properties, NMR spectrum
   Ute Becker             : All parallelization in ORCA, NUMFREQ, NUMCALC
   Giovanni Bistoni       : ED, misc. LED, open-shell LED, HFLD
   Martin Brehm           : Molecular dynamics
   Dmytro Bykov           : pre 5.0 version of the SCF Hessian
   Marcos Casanova-Páez   : Triplet and SCS-CIS(D). UHF-(DLPNO)-IP/EA/STEOM-CCSD. UHF-CVS-IP/STEOM-CCSD
   Vijay G. Chilkuri      : MRCI spin determinant printing, contributions to CSF-ICE
   Pauline Colinet        : FMM embedding
   Dipayan Datta          : RHF DLPNO-CCSD density
   Achintya Kumar Dutta   : EOM-CC, STEOM-CC
   Nicolas Foglia         : Exact transition moments, OPA infrastructure, MCD improvements
   Dmitry Ganyushin       : Spin-Orbit,Spin-Spin,Magnetic field MRCI
   Miquel Garcia          : C-PCM and meta-GGA Hessian, CCSD/C-PCM, Gaussian charge scheme
   Tiago L. C. Gouveia    : GS-ROHF, GS-ROCIS
   Yang Guo               : DLPNO-NEVPT2, F12-NEVPT2, CIM, IAO-localization
   Andreas Hansen         : Spin unrestricted coupled pair/coupled cluster methods
   Ingolf Harden          : AUTO-CI MPn and infrastructure 
   Benjamin Helmich-Paris : MC-RPA, TRAH-(SCF,CASSCF), AVAS, COSX integrals, SCF dyn. polar.
   Lee Huntington         : MR-EOM, pCC
   Robert Izsak           : Overlap fitted RIJCOSX, COSX-SCS-MP3, EOM
   Riya Kayal             : Wick's Theorem for AUTO-CI, AUTO-CI UHF-CCSDT
   Emily Kempfer          : AUTO-CI, RHF CISDT and CCSDT
   Christian Kollmar      : KDIIS, OOCD, Brueckner-CCSD(T), CCSD density, CASPT2, CASPT2-K, improved NEVPT2
   Axel Koslowski         : Symmetry handling
   Simone Kossmann        : Meta GGA functionals, TD-DFT gradient, OOMP2, (MP2 Hessian; deprecated post 5.0)
   Lucas Lang             : DCDCAS
   Marvin Lechner         : AUTO-CI (C++ implementation), FIC-MRCC
   Spencer Leger          : CASSCF response
   Dagmar Lenk            : GEPOL surface, SMD, ORCA-2-JSON
   Dimitrios Liakos       : Extrapolation schemes; Compound Job, initial MDCI parallelization
   Dimitrios Manganas     : Further ROCIS development; embedding schemes. LFT, Crystal Embedding
   Dimitrios Pantazis     : SARC Basis sets
   Anastasios Papadopoulos: AUTO-CI, single reference methods and gradients
   Taras Petrenko         : pre 6.0 DFT Hessian and TD-DFT gradient, (ASA, deprecated), ECA, 1-Electron XAS/XES, NRVS
   Peter Pinski           : DLPNO-MP2, DLPNO-MP2 Gradient
   Christoph Reimann      : Effective Core Potentials
   Marius Retegan         : Local ZFS, SOC
   Christoph Riplinger    : Optimizer, TS searches, QM/MM, DLPNO-CCSD(T), (RO)-DLPNO pert. Triples
   Michael Roemelt        : Original ROCIS implementation
   Masaaki Saitow         : Open-shell DLPNO-CCSD energy and density
   Barbara Sandhoefer     : DKH picture change effects
   Kantharuban Sivalingam : CASSCF convergence/infrastructure, NEVPT2 and variants, FIC-MRCI
   Bernardo de Souza      : ESD, SOC TD-DFT
   Georgi Stoychev        : AutoAux, RI-MP2 NMR, DLPNO-MP2 response, X2C
   Van Anh Tran           : RI-MP2 g-tensors
   Willem Van den Heuvel  : Paramagnetic NMR
   Zikuan Wang            : NOTCH, Electric field optimization 
   Frank Wennmohs         : Technical directorship and infrastructure
   Hang Xu                : AUTO-CI-Response properties 


 We gratefully acknowledge several colleagues who have allowed us to
 interface, adapt or use parts of their codes:
   Stefan Grimme, W. Hujo, H. Kruse, P. Pracht,  : VdW corrections, initial TS optimization,
                  C. Bannwarth, S. Ehlert,         DFT functionals, gCP, sTDA/sTD-DF
                  L. Wittmann, M. Mueller
   Ed Valeev, F. Pavosevic, A. Kumar             : LibInt (2-el integral package), F12 methods
   Garnet Chan, S. Sharma, J. Yang, R. Olivares  : DMRG
   Ulf Ekstrom                                   : XCFun DFT Library
   Mihaly Kallay                                 : mrcc  (arbitrary order and MRCC methods)
   Frank Weinhold                                : gennbo (NPA and NBO analysis)
   Simon Mueller                                 : openCOSMO-RS
   Christopher J. Cramer and Donald G. Truhlar   : smd solvation model
   Lars Goerigk                                  : TD-DFT with DH, B97 family of functionals
   V. Asgeirsson, H. Jonsson                     : NEB implementation
   FAccTs GmbH                                   : IRC, NEB, NEB-TS, DLPNO-Multilevel, CI-OPT
                                                   MM, QMMM, 2- and 3-layer-ONIOM, Crystal-QMMM,
                                                   LR-CPCM, SF, NACMEs, symmetry and pop. for TD-DFT,
                                                   nearIR, NL-DFT gradient (VV10), updates on ESD,
                                                   ML-optimized integration grids, MBIS, APM,
                                                   GOAT, DOCKER, SOLVATOR, interface openCOSMO-RS
   S Lehtola, MJT Oliveira, MAL Marques          : LibXC Library
   Liviu Ungur et al                             : ANISO software


 Your calculation uses the libint2 library for the computation of 2-el integrals
 For citations please refer to: http://libint.valeyev.net

 Your ORCA version has been built with support for libXC version: 6.2.2
 For citations please refer to: https://libxc.gitlab.io

 This ORCA versions uses:
   CBLAS   interface :  Fast vector & matrix operations
   LAPACKE interface :  Fast linear algebra routines
   SCALAPACK package :  Parallel linear algebra routines
   Shared memory     :  Shared parallel matrices
   BLAS/LAPACK       :  OpenBLAS 0.3.27  USE64BITINT DYNAMIC_ARCH NO_AFFINITY SkylakeX SINGLE_THREADED
        Core in use  :  SkylakeX
   Copyright (c) 2011-2014, The OpenBLAS Project


Your calculation utilizes the geometrical counterpoise correction gCP
Please cite in your paper:
H.Kruse, S. Grimme J.Chem.Phys., 136, (2012), 154101 
   

Your calculation utilizes the atom-pairwise dispersion correction
based on EEQ partial charges (D4)


================================================================================

----- Orbital basis set information -----
Your calculation utilizes the basis: def2-SV(P)
   F. Weigend and R. Ahlrichs, Phys. Chem. Chem. Phys. 7, 3297 (2005).

----- AuxJ basis set information -----
Your calculation utilizes the auxiliary basis: def2/J
   F. Weigend, Phys. Chem. Chem. Phys. 8, 1057 (2006).

================================================================================
                                        WARNINGS
                       Please study these warnings very carefully!
================================================================================


================================================================================
                                       INPUT FILE
================================================================================
NAME = sp.inp
|  1> ! pbe def2-sv(p) def2/J RI DEFGRID1 loosescf d4 GCP(DFT/SV(P)) printgap
|  2> %output
|  3>     printlevel normal
|  4> end
|  5> * xyz 0 1
|  6> C -1.6060975062 -0.0919779712 0.5076490819
|  7> C -0.6484120715 0.4979229137 -0.5222893222
|  8> C 0.6677213508 -0.2744673155 -0.6261524409
|  9> N 1.5047977792 -0.0474814881 0.5458499217
| 10> H -1.1900100235 -0.0236158112 1.5095827352
| 11> H -2.5481996377 0.4499860452 0.4968113782
| 12> H -1.8089297479 -1.1379074185 0.2850474072
| 13> H -0.4203242516 1.5318255548 -0.2618714376
| 14> H -1.1276836715 0.489554462 -1.5029224558
| 15> H 0.443368165 -1.3426427342 -0.7949785174
| 16> H 1.2257641573 0.0887069563 -1.4942274343
| 17> H 2.3804073305 -0.5473090516 0.4424964777
| 18> H 1.0427503073 -0.4154806188 1.3704951794
| 19> *
| 20> 
| 21>                          ****END OF INPUT****
================================================================================

                       ****************************
                       * Single Point Calculation *
                       ****************************

---------------------------------
CARTESIAN COORDINATES (ANGSTROEM)
---------------------------------
  C     -1.606098   -0.091978    0.507649
  C     -0.648412    0.497923   -0.522289
  C      0.667721   -0.274467   -0.626152
  N      1.504798   -0.047481    0.545850
  H     -1.190010   -0.023616    1.509583
  H     -2.548200    0.449986    0.496811
  H     -1.808930   -1.137907    0.285047
  H     -0.420324    1.531826   -0.261871
  H     -1.127684    0.489554   -1.502922
  H      0.443368   -1.342643   -0.794979
  H      1.225764    0.088707   -1.494227
  H      2.380407   -0.547309    0.442496
  H      1.042750   -0.415481    1.370495

----------------------------
CARTESIAN COORDINATES (A.U.)
----------------------------
  NO LB      ZA    FRAG     MASS         X           Y           Z
   0 C     6.0000    0    12.011   -3.035084   -0.173813    0.959318
   1 C     6.0000    0    12.011   -1.225321    0.940938   -0.986984
   2 C     6.0000    0    12.011    1.261810   -0.518668   -1.183257
   3 N     7.0000    0    14.007    2.843656   -0.089727    1.031507
   4 H     1.0000    0     1.008   -2.248793   -0.044627    2.852698
   5 H     1.0000    0     1.008   -4.815399    0.850350    0.938837
   6 H     1.0000    0     1.008   -3.418382   -2.150333    0.538662
   7 H     1.0000    0     1.008   -0.794298    2.894731   -0.494865
   8 H     1.0000    0     1.008   -2.131013    0.925124   -2.840112
   9 H     1.0000    0     1.008    0.837844   -2.537227   -1.502292
  10 H     1.0000    0     1.008    2.316359    0.167632   -2.823681
  11 H     1.0000    0     1.008    4.498318   -1.034264    0.836197
  12 H     1.0000    0     1.008    1.970513   -0.785145    2.589861

--------------------------------
INTERNAL COORDINATES (ANGSTROEM)
--------------------------------
 C      0   0   0     0.000000000000     0.00000000     0.00000000
 C      1   0   0     1.525095918978     0.00000000     0.00000000
 C      2   1   0     1.529569023903   113.00818693     0.00000000
 N      3   2   1     1.458015449425   111.14994104   287.85035752
 H      1   2   3     1.087047939971   110.96302147    64.14384910
 H      1   2   3     1.086921743766   110.16255939   183.73900472
 H      1   2   3     1.088421256950   110.52404849   303.50391638
 H      2   1   3     1.090319310789   109.68485216   238.97237052
 H      2   1   3     1.091518502026   109.14931733   120.48788843
 H      3   2   1     1.104461552613   108.90338360    52.91907378
 H      3   2   1     1.094011663443   108.97511322   170.10337812
 H      4   3   2     1.013509552964   109.70980023   181.59537350
 H      4   3   2     1.014372233222   109.60261617    64.01087823

---------------------------
INTERNAL COORDINATES (A.U.)
---------------------------
 C      0   0   0     0.000000000000     0.00000000     0.00000000
 C      1   0   0     2.882013614829     0.00000000     0.00000000
 C      2   1   0     2.890466558107   113.00818693     0.00000000
 N      3   2   1     2.755249898440   111.14994104   287.85035752
 H      1   2   3     2.054222900988   110.96302147    64.14384910
 H      1   2   3     2.053984424721   110.16255939   183.73900472
 H      1   2   3     2.056818093975   110.52404849   303.50391638
 H      2   1   3     2.060404895917   109.68485216   238.97237052
 H      2   1   3     2.062671038937   109.14931733   120.48788843
 H      3   2   1     2.087129859884   108.90338360    52.91907378
 H      3   2   1     2.067382431224   108.97511322   170.10337812
 H      4   3   2     1.915255489214   109.70980023   181.59537350
 H      4   3   2     1.916885718644   109.60261617    64.01087823

---------------------
BASIS SET INFORMATION
---------------------
There are 3 groups of distinct atoms

 Group   1 Type C   : 7s4p1d contracted to 3s2p1d pattern {511/31/1}
 Group   2 Type N   : 7s4p1d contracted to 3s2p1d pattern {511/31/1}
 Group   3 Type H   : 4s contracted to 2s pattern {31}

Atom   0C    basis set group =>   1
Atom   1C    basis set group =>   1
Atom   2C    basis set group =>   1
Atom   3N    basis set group =>   2
Atom   4H    basis set group =>   3
Atom   5H    basis set group =>   3
Atom   6H    basis set group =>   3
Atom   7H    basis set group =>   3
Atom   8H    basis set group =>   3
Atom   9H    basis set group =>   3
Atom  10H    basis set group =>   3
Atom  11H    basis set group =>   3
Atom  12H    basis set group =>   3
---------------------------------
AUXILIARY/J BASIS SET INFORMATION
---------------------------------
There are 3 groups of distinct atoms

 Group   1 Type C   : 12s5p4d2f1g contracted to 6s4p3d1f1g pattern {711111/2111/211/2/1}
 Group   2 Type N   : 12s5p4d2f1g contracted to 6s4p3d1f1g pattern {711111/2111/211/2/1}
 Group   3 Type H   : 5s2p1d contracted to 3s1p1d pattern {311/2/1}

Atom   0C    basis set group =>   1
Atom   1C    basis set group =>   1
Atom   2C    basis set group =>   1
Atom   3N    basis set group =>   2
Atom   4H    basis set group =>   3
Atom   5H    basis set group =>   3
Atom   6H    basis set group =>   3
Atom   7H    basis set group =>   3
Atom   8H    basis set group =>   3
Atom   9H    basis set group =>   3
Atom  10H    basis set group =>   3
Atom  11H    basis set group =>   3
Atom  12H    basis set group =>   3
------------------------------------------------------------------------------
                             ORCA STARTUP CALCULATIONS
                           -- RI-GTO INTEGRALS CHOSEN --
------------------------------------------------------------------------------
------------------------------------------------------------------------------
                   ___                                                        
                  /   \      - P O W E R E D   B Y -                         
                 /     \                                                     
                 |  |  |   _    _      __       _____    __    __             
                 |  |  |  | |  | |    /  \     |  _  \  |  |  /  |          
                  \  \/   | |  | |   /    \    | | | |  |  | /  /          
                 / \  \   | |__| |  /  /\  \   | |_| |  |  |/  /          
                |  |  |   |  __  | /  /__\  \  |    /   |      \           
                |  |  |   | |  | | |   __   |  |    \   |  |\   \          
                \     /   | |  | | |  |  |  |  | |\  \  |  | \   \       
                 \___/    |_|  |_| |__|  |__|  |_| \__\ |__|  \__/        
                                                                              
                      - O R C A' S   B I G   F R I E N D -                    
                                      &                                       
                       - I N T E G R A L  F E E D E R -                       
                                                                              
 v1 FN, 2020, v2 2021, v3 2022-2024                                           
------------------------------------------------------------------------------


----------------------
SHARK INTEGRAL PACKAGE
----------------------

Number of atoms                             ...     13
Number of basis functions                   ...     74
Number of shells                            ...     42
Maximum angular momentum                    ...      2
Integral batch strategy                     ... SHARK/LIBINT Hybrid
RI-J (if used) integral strategy            ... SPLIT-RIJ (Revised 2003 algorithm where possible)
Printlevel                                  ...      1
Contraction scheme used                     ... SEGMENTED contraction
Prescreening option                         ... SCHWARTZ
   Thresh                                   ... 1.000e-09
   Tcut                                     ... 1.000e-10
   Tpresel                                  ... 1.000e-10 
Coulomb Range Separation                    ... NOT USED
Exchange Range Separation                   ... NOT USED
Multipole approximations                    ... NOT USED
Finite Nucleus Model                        ... NOT USED
CABS basis                                  ... NOT available
Auxiliary Coulomb fitting basis             ... AVAILABLE
   # of basis functions in Aux-J            ...    295
   # of shells in Aux-J                     ...    105
   Maximum angular momentum in Aux-J        ...      4
Auxiliary J/K fitting basis                 ... NOT available
Auxiliary Correlation fitting basis         ... NOT available
Auxiliary 'external' fitting basis          ... NOT available

Checking pre-screening integrals            ... done (  0.0 sec) Dimension = 42
Check shell pair data                       ... done (  0.0 sec)
Shell pair information
Shell pair cut-off parameter TPreSel        ...   1.0e-10
Total number of shell pairs                 ...       903
Shell pairs after pre-screening             ...       897
Total number of primitive shell pairs       ...      3649
Primitive shell pairs kept                  ...      2852
          la=0 lb=0:    460 shell pairs
          la=1 lb=0:    240 shell pairs
          la=1 lb=1:     36 shell pairs
          la=2 lb=0:    119 shell pairs
          la=2 lb=1:     32 shell pairs
          la=2 lb=2:     10 shell pairs

Calculating one electron integrals          ... done (  0.0 sec)
Calculating RI/J V-Matrix + Cholesky decomp.... done (  0.0 sec)
Calculating Nuclear repulsion               ... done (  0.0 sec) ENN=    133.593291645046 Eh

Diagonalization of the overlap matrix:
Smallest eigenvalue                        ... 2.769e-03
Time for diagonalization                   ...    0.001 sec
Threshold for overlap eigenvalues          ... 1.000e-07
Number of eigenvalues below threshold      ... 0
Time for construction of square roots      ...    0.016 sec
Total time needed                          ...    0.025 sec

-------------------
DFT GRID GENERATION
-------------------

General Integration Accuracy     IntAcc      ... 4.159
Radial Grid Type                 RadialGrid  ... OptM3 with GC (2021)
Angular Grid (max. ang.)         AngularGrid ... 3 (Lebedev-194)
Angular grid pruning method      GridPruning ... 4 (adaptive)
Weight generation scheme         WeightScheme... mBecke (2022)
Basis function cutoff            BFCut       ... 1.0000e-10
Integration weight cutoff        WCut        ... 1.0000e-14
Partially contracted basis set               ... off
Rotationally invariant grid construction     ... off
Angular grids for H and He will be reduced by one unit

Total number of grid points                  ...    25866
Total number of batches                      ...      411
Average number of points per batch           ...       62
Average number of grid points per atom       ...     1990
Initializing property integral containers    ... done (  0.0 sec)

SHARK setup successfully completed in   0.4 seconds

Maximum memory used throughout the entire STARTUP-calculation: 12.5 MB
-------------------------------------------------------------------------------
                                 ORCA GUESS
                   Start orbitals & Density for SCF / CASSCF
-------------------------------------------------------------------------------

------------
SCF SETTINGS
------------
Hamiltonian:
 Density Functional     Method          .... DFT(GTOs)
 Exchange Functional    Exchange        .... PBE
   PBE kappa parameter   XKappa         ....  0.804000
   PBE mue parameter    XMuePBE         ....  0.219520
 Correlation Functional Correlation     .... PBE
   PBE beta parameter  CBetaPBE         ....  0.066725
 LDA part of GGA corr.  LDAOpt          .... PW91-LDA
 Gradients option       PostSCFGGA      .... off
   NL short-range parameter             ....  6.400000
 RI-approximation to the Coulomb term is turned on
   Number of AuxJ basis functions       .... 295


General Settings:
 Integral files         IntName         .... sp
 Hartree-Fock type      HFTyp           .... RHF
 Total Charge           Charge          ....    0
 Multiplicity           Mult            ....    1
 Number of Electrons    NEL             ....   34
 Basis Dimension        Dim             ....   74
 Nuclear Repulsion      ENuc            ....    133.5932916450 Eh

Convergence Acceleration:
 AO-DIIS                CNVDIIS         .... on
   Start iteration      DIISMaxIt       ....    12
   Startup error        DIISStart       ....  0.200000
   # of expansion vecs  DIISMaxEq       ....     5
   Bias factor          DIISBfac        ....   1.050
   Max. coefficient     DIISMaxC        ....  10.000
 MO-DIIS                CNVKDIIS        .... off
 Trust-Rad. Augm. Hess. CNVTRAH         .... auto
   Auto Start mean grad. ratio tolernc. ....  1.125000
   Auto Start start iteration           ....    50
   Auto Start num. interpolation iter.  ....    10
   Max. Number of Micro iterations      ....    24
   Max. Number of Macro iterations      .... Maxiter - #DIIS iter
   Number of Davidson start vectors     ....     2
   Converg. threshold    (grad. norm)   ....   1.000e-04
   Grad. Scal. Fac. for Micro threshold ....   0.100
   Minimum threshold for Micro iter.    ....   1.000e-02
   NR start threshold (gradient norm)   ....   1.000e-04
   Initial trust radius                 ....   0.400
   Minimum AH scaling param. (alpha)    ....   1.000
   Maximum AH scaling param. (alpha)    .... 1000.000
   Quad. conv. algorithm                .... NR
   White noise on init. David. guess    .... on
   Maximum white noise                  ....   0.010
   Pseudo random numbers                .... off
   Inactive MOs                         .... canonical
   Orbital update algorithm             .... Taylor
   Preconditioner                       .... Diag
   Full preconditioner red. dimension   ....   250
 SOSCF                  CNVSOSCF        .... on
   Start iteration      SOSCFMaxIt      ....   150
   Startup grad/error   SOSCFStart      ....  0.003300
   Hessian update       SOSCFHessUp     .... L-BFGS
 Level Shifting         CNVShift        .... on
   Level shift para.    LevelShift      ....    0.2500
   Turn off err/grad.   ShiftErr        ....    0.0010
 Zerner damping         CNVZerner       .... off
 Static damping         CNVDamp         .... on
   Fraction old density DampFac         ....    0.7000
   Max. Damping (<1)    DampMax         ....    0.9800
   Min. Damping (>=0)   DampMin         ....    0.0000
   Turn off err/grad.   DampErr         ....    0.1000

SCF Procedure:
 Maximum # iterations   MaxIter         ....   125
 SCF integral mode      SCFMode         .... Direct
   Integral package                     .... SHARK and LIBINT hybrid scheme
 Reset frequency        DirectResetFreq ....    20
 Integral Threshold     Thresh          ....  1.000e-09 Eh
 Primitive CutOff       TCut            ....  1.000e-10 Eh

Convergence Tolerance:
 Convergence Check Mode ConvCheckMode   .... Total+1el-Energy
 Convergence forced     ConvForced      .... 0
 Energy Change          TolE            ....  1.000e-05 Eh
 1-El. energy change                    ....  1.000e-02 Eh
 Orbital Gradient       TolG            ....  1.000e-04
 Orbital Rotation angle TolX            ....  1.000e-04
 DIIS Error             TolErr          ....  5.000e-04

------------------------------
INITIAL GUESS: MODEL POTENTIAL
------------------------------
Loading Hartree-Fock densities                     ... done
Calculating cut-offs                               ... done
Initializing the effective Hamiltonian             ... done
Setting up the integral package (SHARK)            ... done
Starting the Coulomb interaction                   ... done (   0.0 sec)
Making the grid                                    ... done (   0.1 sec)
Mapping shells                                     ... done
Starting the XC term evaluation                    ... done (   0.1 sec)
  promolecular density results
     # of electrons  =     33.999342943
     EX              =    -24.534355908
     EC              =     -1.092958151
     EX+EC           =    -25.627314059
Transforming the Hamiltonian                       ... done (   0.0 sec)
Diagonalizing the Hamiltonian                      ... done (   0.0 sec)
Back transforming the eigenvectors                 ... done (   0.0 sec)
Now organizing SCF variables                       ... done
                      ------------------
                      INITIAL GUESS DONE (   0.2 sec)
                      ------------------
             **** ENERGY FILE WAS UPDATED (sp.en.tmp) ****
Finished Guess after   0.4 sec
Maximum memory used throughout the entire GUESS-calculation: 9.6 MB

-------------------------------------------------------------------------------------------
                                      ORCA LEAN-SCF
                              memory conserving SCF solver
-------------------------------------------------------------------------------------------

----------------------------------------D-I-I-S--------------------------------------------
Iteration    Energy (Eh)           Delta-E    RMSDP     MaxDP     DIISErr   Damp  Time(sec)
-------------------------------------------------------------------------------------------
               ***  Starting incremental Fock matrix formation  ***
    1    -173.9106773910479262     0.00e+00  6.99e-03  9.27e-02  2.41e-01  0.700   0.3
    2    -173.9971469614598334    -8.65e-02  4.84e-03  5.32e-02  9.55e-02  0.700   0.5
                               ***Turning on AO-DIIS***
    3    -174.0251039442146350    -2.80e-02  1.89e-03  1.53e-02  1.97e-02  0.700   0.4
    4    -174.0419112289649490    -1.68e-02  2.60e-03  2.48e-02  8.96e-03  0.000   0.4
    5    -174.0812092115279768    -3.93e-02  8.62e-04  7.85e-03  1.10e-02  0.000   0.4
                              *** Initializing SOSCF ***
---------------------------------------S-O-S-C-F--------------------------------------
Iteration    Energy (Eh)           Delta-E    RMSDP     MaxDP     MaxGrad    Time(sec)
--------------------------------------------------------------------------------------
    6    -174.0816992986418938    -4.90e-04  3.27e-04  3.11e-03  2.20e-03     0.4
               *** Restarting incremental Fock matrix formation ***
    7    -174.0817391212696919    -3.98e-05  2.67e-04  2.57e-03  2.78e-04     0.4
    8    -174.0817375291053111     1.59e-06  7.59e-05  1.32e-03  5.21e-04     0.4
                 **** Energy Check signals convergence ****

               *****************************************************
               *                     SUCCESS                       *
               *           SCF CONVERGED AFTER   8 CYCLES          *
               *****************************************************

             **** ENERGY FILE WAS UPDATED (sp.en.tmp) ****

----------------
TOTAL SCF ENERGY
----------------

Total Energy       :       -174.08173752910531 Eh           -4737.00490 eV

Components:
Nuclear Repulsion  :        133.59329164504626 Eh            3635.25828 eV
Electronic Energy  :       -307.67502917415158 Eh           -8372.26318 eV
One Electron Energy:       -498.18319870171757 Eh          -13556.25402 eV
Two Electron Energy:        190.50816952756600 Eh            5183.99084 eV

Virial components:
Potential Energy   :       -346.63095742073835 Eh           -9432.30788 eV
Kinetic Energy     :        172.54921989163307 Eh            4695.30298 eV
Virial Ratio       :          2.00888162599886

DFT components:
N(Alpha)           :       17.000014317391 electrons
N(Beta)            :       17.000014317391 electrons
N(Total)           :       34.000028634783 electrons
E(X)               :      -25.206297644707 Eh       
E(C)               :       -1.106889573446 Eh       
E(XC)              :      -26.313187218153 Eh       

---------------
SCF CONVERGENCE
---------------

  Last Energy change         ...   -1.5922e-06  Tolerance :   1.0000e-05
  Last MAX-Density change    ...    1.3165e-03  Tolerance :   1.0000e-03
  Last RMS-Density change    ...    7.5937e-05  Tolerance :   1.0000e-04
  Last DIIS Error            ...    2.1977e-03  Tolerance :   5.0000e-04
  Last Orbital Gradient      ...    5.2135e-04  Tolerance :   1.0000e-04
  Last Orbital Rotation      ...    3.4979e-04  Tolerance :   1.0000e-04


----------------
ORBITAL ENERGIES
----------------

  NO   OCC          E(Eh)            E(eV) 
   0   2.0000     -13.953768      -379.7013 
   1   2.0000      -9.902468      -269.4598 
   2   2.0000      -9.877986      -268.7937 
   3   2.0000      -9.873406      -268.6690 
   4   2.0000      -0.790322       -21.5058 
   5   2.0000      -0.684268       -18.6199 
   6   2.0000      -0.591851       -16.1051 
   7   2.0000      -0.507886       -13.8203 
   8   2.0000      -0.441717       -12.0197 
   9   2.0000      -0.418539       -11.3890 
  10   2.0000      -0.365361        -9.9420 
  11   2.0000      -0.362652        -9.8683 
  12   2.0000      -0.357042        -9.7156 
  13   2.0000      -0.295487        -8.0406 
  14   2.0000      -0.292721        -7.9653 
  15   2.0000      -0.286979        -7.8091 
  16   2.0000      -0.179119        -4.8741 
  17   0.0000       0.031223         0.8496 
  18   0.0000       0.066746         1.8163 
  19   0.0000       0.073545         2.0012 
  20   0.0000       0.087012         2.3677 
  21   0.0000       0.112961         3.0738 
  22   0.0000       0.125796         3.4231 
  23   0.0000       0.129252         3.5171 
  24   0.0000       0.136452         3.7130 
  25   0.0000       0.157437         4.2841 
  26   0.0000       0.190814         5.1923 
  27   0.0000       0.215097         5.8531 
*Only the first 10 virtual orbitals were printed.

                    ********************************
                    * MULLIKEN POPULATION ANALYSIS *
                    ********************************

-----------------------
MULLIKEN ATOMIC CHARGES
-----------------------
   0 C :   -0.297953
   1 C :   -0.179890
   2 C :   -0.076850
   3 N :   -0.466922
   4 H :    0.101083
   5 H :    0.107107
   6 H :    0.095589
   7 H :    0.092676
   8 H :    0.083782
   9 H :    0.059535
  10 H :    0.080064
  11 H :    0.202368
  12 H :    0.199411
Sum of atomic charges:   -0.0000000

--------------------------------
MULLIKEN REDUCED ORBITAL CHARGES
--------------------------------
  0 C s       :     3.101948  s :     3.101948
      pz      :     1.051724  p :     3.166554
      px      :     1.058969
      py      :     1.055861
      dz2     :     0.009939  d :     0.029451
      dxz     :     0.004784
      dyz     :     0.002190
      dx2y2   :     0.006770
      dxy     :     0.005767

  1 C s       :     3.062589  s :     3.062589
      pz      :     1.023487  p :     3.081366
      px      :     1.005187
      py      :     1.052692
      dz2     :     0.008777  d :     0.035935
      dxz     :     0.008679
      dyz     :     0.003017
      dx2y2   :     0.009266
      dxy     :     0.006196

  2 C s       :     3.035004  s :     3.035004
      pz      :     0.964699  p :     2.990288
      px      :     0.998724
      py      :     1.026865
      dz2     :     0.009976  d :     0.051557
      dxz     :     0.014119
      dyz     :     0.008438
      dx2y2   :     0.010462
      dxy     :     0.008562

  3 N s       :     3.528107  s :     3.528107
      pz      :     1.102349  p :     3.915480
      px      :     1.112674
      py      :     1.700457
      dz2     :     0.004744  d :     0.023336
      dxz     :     0.004269
      dyz     :     0.005391
      dx2y2   :     0.001513
      dxy     :     0.007419

  4 H s       :     0.898917  s :     0.898917

  5 H s       :     0.892893  s :     0.892893

  6 H s       :     0.904411  s :     0.904411

  7 H s       :     0.907324  s :     0.907324

  8 H s       :     0.916218  s :     0.916218

  9 H s       :     0.940465  s :     0.940465

 10 H s       :     0.919936  s :     0.919936

 11 H s       :     0.797632  s :     0.797632

 12 H s       :     0.800589  s :     0.800589


------------------------
MULLIKEN OVERLAP CHARGES
------------------------
B(  0-C ,  1-C ) :   0.9111 B(  0-C ,  2-C ) :  -0.1151 B(  0-C ,  4-H ) :   0.7356 
B(  0-C ,  5-H ) :   0.7395 B(  0-C ,  6-H ) :   0.7416 B(  0-C ,  7-H ) :  -0.0757 
B(  0-C ,  8-H ) :  -0.0578 B(  1-C ,  2-C ) :   0.8877 B(  1-C ,  3-N ) :  -0.1294 
B(  1-C ,  4-H ) :  -0.0513 B(  1-C ,  6-H ) :  -0.0531 B(  1-C ,  7-H ) :   0.6946 
B(  1-C ,  8-H ) :   0.6852 B(  1-C ,  9-H ) :  -0.0743 B(  2-C ,  3-N ) :   0.7926 
B(  2-C ,  9-H ) :   0.7013 B(  2-C , 10-H ) :   0.6990 B(  2-C , 12-H ) :  -0.0802 
B(  3-N ,  9-H ) :  -0.0705 B(  3-N , 10-H ) :  -0.0579 B(  3-N , 11-H ) :   0.6228 
B(  3-N , 12-H ) :   0.6405 B(  4-H ,  6-H ) :  -0.0546 B(  9-H , 10-H ) :  -0.0889 
B( 11-H , 12-H ) :  -0.0607 


                     *******************************
                     * LOEWDIN POPULATION ANALYSIS *
                     *******************************

----------------------
LOEWDIN ATOMIC CHARGES
----------------------
   0 C :   -0.345647
   1 C :   -0.243452
   2 C :   -0.176128
   3 N :   -0.420135
   4 H :    0.114359
   5 H :    0.121415
   6 H :    0.115322
   7 H :    0.120161
   8 H :    0.116241
   9 H :    0.085644
  10 H :    0.110180
  11 H :    0.203650
  12 H :    0.198392

-------------------------------
LOEWDIN REDUCED ORBITAL CHARGES
-------------------------------
  0 C s       :     2.945969  s :     2.945969
      pz      :     1.107085  p :     3.328682
      px      :     1.103848
      py      :     1.117748
      dz2     :     0.022436  d :     0.070996
      dxz     :     0.013151
      dyz     :     0.005597
      dx2y2   :     0.016052
      dxy     :     0.013760

  1 C s       :     2.912903  s :     2.912903
      pz      :     1.084425  p :     3.243091
      px      :     1.059570
      py      :     1.099097
      dz2     :     0.020856  d :     0.087458
      dxz     :     0.021784
      dyz     :     0.007519
      dx2y2   :     0.020670
      dxy     :     0.016629

  2 C s       :     2.909963  s :     2.909963
      pz      :     1.013200  p :     3.148141
      px      :     1.042064
      py      :     1.092877
      dz2     :     0.022615  d :     0.118024
      dxz     :     0.032423
      dyz     :     0.018301
      dx2y2   :     0.023449
      dxy     :     0.021236

  3 N s       :     3.261287  s :     3.261287
      pz      :     1.187082  p :     4.112046
      px      :     1.193724
      py      :     1.731241
      dz2     :     0.010944  d :     0.046802
      dxz     :     0.011948
      dyz     :     0.008546
      dx2y2   :     0.003066
      dxy     :     0.012298

  4 H s       :     0.885641  s :     0.885641

  5 H s       :     0.878585  s :     0.878585

  6 H s       :     0.884678  s :     0.884678

  7 H s       :     0.879839  s :     0.879839

  8 H s       :     0.883759  s :     0.883759

  9 H s       :     0.914356  s :     0.914356

 10 H s       :     0.889820  s :     0.889820

 11 H s       :     0.796350  s :     0.796350

 12 H s       :     0.801608  s :     0.801608


---------------------------------
LOEWDIN BOND ORDERS (THRESH 0.050000)
---------------------------------
B(  0-C ,  1-C ) :   1.1326 B(  0-C ,  2-C ) :   0.0526 B(  0-C ,  4-H ) :   0.9389 
B(  0-C ,  5-H ) :   0.9391 B(  0-C ,  6-H ) :   0.9403 B(  1-C ,  2-C ) :   1.1037 
B(  1-C ,  3-N ) :   0.0607 B(  1-C ,  7-H ) :   0.9044 B(  1-C ,  8-H ) :   0.9051 
B(  2-C ,  3-N ) :   1.1987 B(  2-C ,  9-H ) :   0.9071 B(  2-C , 10-H ) :   0.9134 
B(  3-N , 11-H ) :   0.9203 B(  3-N , 12-H ) :   0.9213 

------------------------------------------
LOEWDIN REDUCED ORBITAL POPULATIONS PER MO
-------------------------------------------
THRESHOLD FOR PRINTING IS 0.1%%
                      0         1         2         3         4         5   
                 -13.95377  -9.90247  -9.87799  -9.87341  -0.79032  -0.68427
                   2.00000   2.00000   2.00000   2.00000   2.00000   2.00000
                  --------  --------  --------  --------  --------  --------
 0 C  s               0.0       0.0       0.0      99.7       0.7      22.2
 0 C  pz              0.0       0.0       0.0       0.0       0.1       1.2
 0 C  px              0.0       0.0       0.0       0.0       0.3       1.0
 0 C  py              0.0       0.0       0.0       0.0       0.0       0.3
 1 C  s               0.0       0.0      99.6       0.0       3.5      25.8
 1 C  pz              0.0       0.0       0.0       0.0       0.1       0.6
 1 C  px              0.0       0.1       0.0       0.0       1.3       0.6
 1 C  py              0.0       0.0       0.0       0.0       0.5       0.6
 2 C  s               0.0      99.6       0.0       0.0      16.5       3.1
 2 C  pz              0.0       0.0       0.0       0.0       4.4       0.7
 2 C  px              0.0       0.0       0.1       0.0       1.2       6.7
 2 C  py              0.0       0.0       0.0       0.0       0.1       0.6
 2 C  dxz             0.0       0.0       0.0       0.0       0.2       0.1
 3 N  s              99.8       0.0       0.0       0.0      42.9       6.4
 3 N  pz              0.0       0.1       0.0       0.0       0.5       0.4
 3 N  px              0.0       0.0       0.0       0.0       0.5       0.6
 3 N  py              0.0       0.0       0.0       0.0       1.9       0.5
 4 H  s               0.0       0.0       0.0       0.1       0.2       4.3
 5 H  s               0.0       0.0       0.0       0.1       0.1       4.4
 6 H  s               0.0       0.0       0.0       0.1       0.1       4.5
 7 H  s               0.0       0.0       0.1       0.0       0.6       4.7
 8 H  s               0.0       0.0       0.1       0.0       0.5       5.3
 9 H  s               0.0       0.1       0.0       0.0       2.4       0.7
10 H  s               0.0       0.1       0.0       0.0       2.4       0.6
11 H  s               0.0       0.0       0.0       0.0       9.2       2.4
12 H  s               0.0       0.0       0.0       0.0       9.5       1.6

                      6         7         8         9        10        11   
                  -0.59185  -0.50789  -0.44172  -0.41854  -0.36536  -0.36265
                   2.00000   2.00000   2.00000   2.00000   2.00000   2.00000
                  --------  --------  --------  --------  --------  --------
 0 C  s              18.5       5.1       0.1       0.1       0.0       0.0
 0 C  pz              0.9       3.9       1.2       5.5       0.0      21.2
 0 C  px              0.9       1.9       3.9       0.0      26.0       2.5
 0 C  py              0.1       3.2       0.5       5.2       0.5       2.8
 0 C  dz2             0.0       0.0       0.0       0.0       0.1       0.1
 0 C  dxz             0.0       0.1       0.0       0.0       0.0       0.1
 0 C  dxy             0.0       0.0       0.0       0.0       0.2       0.0
 1 C  s               2.0      13.1       0.3       0.0       0.8       0.0
 1 C  pz              4.2       1.2       4.1       6.5      11.0       0.1
 1 C  px              8.9       0.6       3.9       2.4       0.1       4.0
 1 C  py              0.0       6.2       1.4      12.2       2.1       2.1
 1 C  dxz             0.1       0.1       0.0       0.0       0.0       0.1
 1 C  dx2y2           0.0       0.0       0.0       0.0       0.1       0.1
 1 C  dxy             0.2       0.0       0.1       0.0       0.0       0.0
 2 C  s              16.4       8.3       0.1       0.0       0.2       0.2
 2 C  pz              2.9       1.1       7.8       2.5       4.4      15.4
 2 C  px              0.6       3.4       5.9       7.8       1.5       1.5
 2 C  py              0.1       4.2       0.1      14.1       2.2       0.4
 2 C  dz2             0.0       0.0       0.1       0.1       0.2       0.0
 2 C  dxz             0.0       0.0       0.0       0.0       0.0       0.3
 2 C  dx2y2           0.0       0.0       0.0       0.0       0.0       0.1
 2 C  dxy             0.0       0.2       0.0       0.0       0.0       0.0
 3 N  s               3.4       1.2       0.1       0.1       0.2       0.6
 3 N  pz              5.1       7.6       6.6      11.5       6.6      13.5
 3 N  px              1.6       0.5      32.2       1.5       9.1       5.2
 3 N  py              0.5       0.0       0.4       3.7       0.8       0.7
 3 N  dz2             0.0       0.0       0.1       0.0       0.2       0.0
 3 N  dxz             0.1       0.1       0.0       0.1       0.0       0.1
 3 N  dxy             0.0       0.0       0.3       0.0       0.1       0.0
 4 H  s               6.0       3.0       0.9       2.2       1.0      12.8
 5 H  s               6.0       2.1       1.7       0.7      11.8       0.1
 6 H  s               5.1       4.1       0.0       2.1       0.1       3.6
 7 H  s               0.5       8.1       0.2       5.7       0.0       1.4
 8 H  s               0.8       6.9       3.1       3.5       2.8       0.6
 9 H  s               4.1       5.8       0.1       7.9       0.5       1.6
10 H  s               6.0       4.6       3.2       0.6       4.9       3.9
11 H  s               2.1       0.6      13.7       0.7       5.5       1.5
12 H  s               2.8       2.5       7.9       2.8       6.5       3.0

                     12        13        14        15        16        17   
                  -0.35704  -0.29549  -0.29272  -0.28698  -0.17912   0.03122
                   2.00000   2.00000   2.00000   2.00000   2.00000   0.00000
                  --------  --------  --------  --------  --------  --------
 0 C  s               0.0       0.4       0.0       0.2       0.1       7.3
 0 C  pz              0.8      10.0       4.2       6.2       0.1       1.5
 0 C  px              0.6       0.3       7.5      10.2       0.0       0.3
 0 C  py             27.8       9.8       3.9       1.8       0.0       0.2
 0 C  dz2             0.0       0.0       0.8       0.0       0.0       0.0
 0 C  dxz             0.0       0.2       0.0       0.0       0.0       0.1
 0 C  dx2y2           0.2       0.3       0.1       0.2       0.0       0.0
 0 C  dxy             0.1       0.0       0.0       0.3       0.0       0.1
 1 C  s               0.0       0.1       0.0       0.1       0.4       2.4
 1 C  pz              3.2      10.1       8.2       4.9       0.1       0.4
 1 C  px              7.1       0.1       9.8      13.1       1.0       0.2
 1 C  py              1.6      16.3       8.1       3.6       0.2       0.4
 1 C  dz2             0.0       0.0       0.8       0.0       0.0       0.0
 1 C  dxz             0.0       0.6       0.1       0.1       0.0       0.3
 1 C  dx2y2           0.0       0.4       0.3       0.1       0.0       0.0
 1 C  dxy             0.0       0.0       0.0       0.4       0.0       0.0
 2 C  s               0.2       0.2       0.1       0.4       0.2       3.2
 2 C  pz              1.2       3.5       0.2       6.1       0.2       2.4
 2 C  px              0.5       1.5       2.5      18.7       0.2       0.2
 2 C  py             21.1       7.8       0.6       0.7       2.7       1.6
 2 C  dz2             0.0       0.0       0.1       0.3       0.1       0.1
 2 C  dxz             0.0       0.4       0.1       0.3       0.0       0.3
 2 C  dyz             0.0       0.0       0.0       0.0       0.7       0.0
 2 C  dx2y2           0.2       0.2       0.2       0.0       0.3       0.0
 2 C  dxy             0.0       0.0       0.0       0.2       0.5       0.1
 3 N  s               0.4       0.1       0.3       0.1       7.5      10.4
 3 N  pz              0.3       3.0       2.0       1.3       0.7       1.6
 3 N  px              1.4       1.5       1.6       1.8       2.2       0.2
 3 N  py              3.2       2.7       0.3       0.0      71.8       1.2
 3 N  dz2             0.0       0.0       0.0       0.2       0.0       0.0
 4 H  s               0.5       3.6       9.3       0.3       0.1       7.4
 5 H  s               5.4       2.0       1.4       8.2       0.1       5.0
 6 H  s              11.6       3.8       7.0       2.1       0.0       4.8
 7 H  s               0.5       6.7      13.3       1.7       0.5       1.5
 8 H  s               0.1       6.8      13.3       0.2       0.2       4.0
 9 H  s               9.7       3.0       2.5       0.1       7.3       7.1
10 H  s               1.5       3.9       0.2      11.4       1.2       3.9
11 H  s               0.3       0.2       0.8       2.0       0.8      15.3
12 H  s               0.0       0.2       0.0       2.4       0.9      16.3

                     18        19        20        21        22        23   
                   0.06675   0.07354   0.08701   0.11296   0.12580   0.12925
                   0.00000   0.00000   0.00000   0.00000   0.00000   0.00000
                  --------  --------  --------  --------  --------  --------
 0 C  s               0.0      12.0       0.1       4.0       4.5       1.1
 0 C  pz              2.3       1.1       0.6       3.1       1.2       0.1
 0 C  px              2.6       1.4       0.0       4.5       0.2       5.2
 0 C  py              0.3       0.3       9.8       0.9       0.1       5.8
 0 C  dz2             0.3       0.0       0.0       0.4       0.2       0.2
 0 C  dxz             0.0       0.0       0.0       0.1       0.5       0.0
 0 C  dyz             0.1       0.0       0.0       0.4       0.1       0.1
 0 C  dx2y2           0.0       0.0       0.4       0.0       0.0       0.4
 0 C  dxy             0.0       0.0       0.2       0.0       0.0       0.9
 1 C  s               6.3       1.3       1.8       3.2       6.4       1.0
 1 C  pz              3.2       0.1       0.0       3.1       4.6       1.4
 1 C  px              0.8       0.2       0.1       0.3       4.0       0.9
 1 C  py              0.3       1.0       3.4       3.8       0.5       1.2
 1 C  dz2             0.3       0.1       0.1       0.2       0.2       0.0
 1 C  dxz             0.0       0.0       0.2       0.5       0.0       0.0
 1 C  dyz             0.0       0.2       0.1       0.1       0.0       1.1
 1 C  dx2y2           0.1       0.0       0.6       0.0       0.3       0.0
 1 C  dxy             0.0       0.0       0.0       0.7       0.1       0.3
 2 C  s               4.4       1.6       1.2       4.3       2.5       3.2
 2 C  pz              1.7       2.6       0.7       0.6       1.8       2.5
 2 C  px              1.6       0.6       0.7       0.5       1.7       0.7
 2 C  py              0.0       0.0       9.2       1.2       0.6       0.8
 2 C  dz2             0.5       0.0       0.0       0.0       0.0       0.6
 2 C  dxz             0.0       0.2       0.2       0.8       0.0       0.0
 2 C  dyz             0.0       0.0       0.0       0.0       0.1       0.2
 2 C  dx2y2           0.0       0.2       0.2       0.0       0.2       0.0
 2 C  dxy             0.1       0.1       0.0       0.1       0.0       0.0
 3 N  s               3.7       3.3       0.7       0.6       0.9       0.1
 3 N  pz              1.3       0.9       0.0       2.3       0.5       1.0
 3 N  px              0.5       4.1       0.0       0.3       1.0       7.1
 3 N  py              1.4       1.9       0.3       1.2       0.0       0.0
 3 N  dz2             0.3       0.0       0.0       0.0       0.1       0.1
 3 N  dyz             0.0       0.0       0.1       0.1       0.0       0.1
 3 N  dxy             0.0       0.0       0.0       0.0       0.0       0.1
 4 H  s               7.8       8.9       0.7       2.9       1.8       2.7
 5 H  s               2.0      10.8       4.3      20.8       2.9      13.4
 6 H  s               1.3       8.3      20.3       1.9       4.0      10.7
 7 H  s               2.5       4.2      14.2      19.7       0.2       4.0
 8 H  s              19.4       0.7       0.4       2.1      34.0       1.5
 9 H  s               1.8       1.5      24.4       6.6       0.2       8.0
10 H  s              14.9       6.3       3.3       2.6      17.5       2.5
11 H  s               1.7      25.2       1.2       5.0       0.2      14.8
12 H  s              16.5       0.3       0.3       1.0       6.4       6.5

                     24        25        26        27        28        29   
                   0.13645   0.15744   0.19081   0.21510   0.22558   0.39717
                   0.00000   0.00000   0.00000   0.00000   0.00000   0.00000
                  --------  --------  --------  --------  --------  --------
 0 C  s               0.4       1.0       0.4       0.3       0.7       0.2
 0 C  pz              1.1       4.4       8.6       0.3      10.3       0.3
 0 C  px              6.7       3.3       3.2       2.8       5.4       0.1
 0 C  py              0.7       6.7       0.1       0.7       5.4      24.2
 0 C  dz2             0.0       0.5       0.0       0.4       0.1       0.6
 0 C  dxz             0.0       0.0       2.6       0.2       2.0       0.2
 0 C  dyz             0.1       0.0       0.0       0.1       2.2       0.9
 0 C  dx2y2           0.1       0.5       0.6       0.1       0.0       4.4
 0 C  dxy             0.7       0.2       0.5       0.0       0.5       1.5
 1 C  s               1.4       1.9       7.8       0.0       0.1       0.1
 1 C  pz              4.8       2.1       3.6       0.6       7.2       7.6
 1 C  px              0.5       1.2       4.0       2.0      22.9       1.3
 1 C  py              2.6       1.2      16.4       1.7       0.0       0.6
 1 C  dz2             0.0       0.0       1.2       0.5       1.1       0.4
 1 C  dxz             0.3       0.3       1.0       1.3       0.8       0.2
 1 C  dyz             0.0       0.1       1.0       0.1       1.0       0.4
 1 C  dx2y2           0.0       0.0       1.1       0.5       0.0       1.4
 1 C  dxy             0.1       0.9       1.0       0.0       2.8       1.7
 2 C  s               0.2       2.8       3.4       4.7       0.3       3.1
 2 C  pz              3.4       3.6       1.3      21.8       1.3       7.7
 2 C  px              1.6       2.2      11.8       7.0      11.2       4.2
 2 C  py              4.2       1.6       4.3       3.6       4.4       2.2
 2 C  dz2             0.0       0.0       0.8       1.8       0.9       0.0
 2 C  dxz             0.3       0.0       0.0       4.5       0.1       0.0
 2 C  dyz             0.0       0.8       0.5       0.9       0.1       0.5
 2 C  dx2y2           0.0       0.0       2.1       0.5       0.0       0.0
 2 C  dxy             0.1       0.6       1.6       0.0       2.3       0.7
 3 N  s               0.1       1.6       0.2       2.8       0.1       0.4
 3 N  pz              0.2       1.0       0.5      15.9       3.5       0.7
 3 N  px              3.6       3.6       0.4       6.1       0.0       1.4
 3 N  py              0.0       0.5       0.1       0.2       0.1       0.3
 3 N  dz2             0.0       0.0       0.3       0.4       0.1       0.1
 3 N  dxz             0.0       0.1       0.2       1.9       0.0       0.1
 3 N  dyz             0.0       0.0       0.1       0.0       0.4       0.1
 3 N  dx2y2           0.0       0.0       0.1       0.0       0.0       0.0
 3 N  dxy             0.1       0.3       0.0       0.0       0.0       0.1
 4 H  s               9.1      17.0       5.9       0.5       2.2       0.4
 5 H  s               7.9       2.0       0.3       1.3       0.9       4.2
 6 H  s               0.1      12.8       1.5       0.6       2.9      17.7
 7 H  s              15.2       2.4       3.4       3.3       0.4       4.5
 8 H  s               4.8       1.3       2.0       1.0       0.3       2.4
 9 H  s               5.6       7.4       1.1       2.6       2.2       0.4
10 H  s              15.6       1.9       0.4       2.0       0.9       1.5
11 H  s               6.7       1.0       1.4       1.4       0.2       0.6
12 H  s               1.8      11.1       3.2       3.2       2.6       0.6

                     30        31        32        33        34        35   
                   0.39983   0.41236   0.44859   0.47383   0.52628   0.57998
                   0.00000   0.00000   0.00000   0.00000   0.00000   0.00000
                  --------  --------  --------  --------  --------  --------
 0 C  s               2.6       1.5       0.7       0.0       0.9       3.3
 0 C  pz              0.5      30.8       0.4       6.9       1.3       9.9
 0 C  px             21.2       0.6       3.8       3.4       1.9       6.2
 0 C  py              0.6       0.7       0.0       0.2      11.4       2.3
 0 C  dz2             3.1       2.2       0.0       0.3       0.2       0.2
 0 C  dxz             0.0       3.3       0.0       0.4       0.5       0.0
 0 C  dyz             0.1       0.5       0.1       0.2       0.8       0.1
 0 C  dx2y2           0.0       0.2       0.2       0.2       0.8       0.0
 0 C  dxy             1.8       0.3       0.0       0.5       0.2       0.8
 1 C  s               1.3       0.3       1.3       1.1       1.4      12.0
 1 C  pz              4.9       3.4       0.2       3.7       2.9       3.4
 1 C  px              0.1       5.8      14.3       4.0       1.8       0.5
 1 C  py              1.2       7.6       5.4       3.7       9.6       9.1
 1 C  dz2             1.1       2.3       0.6       0.3       0.0       0.2
 1 C  dxz             2.6       0.7       0.0       1.3       0.0       0.0
 1 C  dyz             0.1       1.6       0.0       0.2       0.9       0.1
 1 C  dx2y2           0.5       1.0       0.1       0.9       0.8       0.2
 1 C  dxy             0.1       0.0       1.4       0.7       0.2       0.0
 2 C  s               2.5       0.6       4.5       4.2       0.0       2.2
 2 C  pz              2.8       1.6      18.7       4.6       0.5       0.9
 2 C  px              2.3       0.1      19.1       4.6       9.9       9.6
 2 C  py              1.5       0.9       2.7      10.7       8.3       5.1
 2 C  dz2             1.5       0.0       0.9       0.7       1.0       0.0
 2 C  dxz             1.8       0.1       0.1       0.1       0.3       0.0
 2 C  dyz             0.1       0.0       0.0       0.3       0.2       0.1
 2 C  dx2y2           0.3       1.2       0.7       3.1       0.0       0.1
 2 C  dxy             0.2       0.0       0.7       1.4       1.8       0.2
 3 N  s               0.2       0.0       0.7       1.6       0.1       0.9
 3 N  pz              0.1       0.1       7.5       2.3       1.7       1.7
 3 N  px              2.9       0.2       0.2       1.7       6.3       1.5
 3 N  py              0.2       0.1       0.7       2.1       0.4       0.3
 3 N  dz2             1.1       0.1       0.0       0.4       1.8       0.4
 3 N  dxz             0.1       0.1       3.8       1.4       0.1       0.4
 3 N  dyz             0.1       0.0       0.3       0.6       1.4       0.2
 3 N  dx2y2           0.2       0.0       0.3       0.1       0.0       0.1
 3 N  dxy             0.4       0.1       0.3       1.1       2.0       0.0
 4 H  s               4.1      14.8       0.0       1.4       0.9       3.2
 5 H  s               9.9       0.0       0.2       0.7       0.4       0.2
 6 H  s               0.7       1.1       0.3       0.1       1.8       1.7
 7 H  s               0.1       9.3       1.0       0.4       0.7       9.5
 8 H  s               7.0       1.8       1.0       4.6       0.1       3.2
 9 H  s               1.8       3.4       0.1      15.6       1.2       1.4
10 H  s               9.6       1.0       0.1       0.1       0.4       0.9
11 H  s               4.8       0.4       1.6       6.1       8.5       0.0
12 H  s               1.9       0.1       6.1       1.9      14.1       7.8

                     36        37        38        39        40        41   
                   0.59560   0.61789   0.62498   0.64014   0.66292   0.67645
                   0.00000   0.00000   0.00000   0.00000   0.00000   0.00000
                  --------  --------  --------  --------  --------  --------
 0 C  s               2.1       4.3       1.4      25.7       2.8       7.5
 0 C  pz              2.0       0.4       2.3       0.7       0.4       0.9
 0 C  px              3.9       0.9       2.8       5.4       1.7      15.5
 0 C  py              3.9       2.1       2.8       3.8       1.1      16.6
 0 C  dz2             0.1       0.1       1.0       0.0       0.2       0.0
 0 C  dxz             0.1       0.1       0.2       0.2       0.1       0.2
 0 C  dyz             0.5       0.1       0.5       0.2       0.0       0.4
 0 C  dx2y2           0.1       0.0       1.3       0.1       0.0       0.0
 0 C  dxy             0.5       0.1       1.2       0.2       0.1       0.0
 1 C  s               0.3       0.0       0.4       7.2      13.7       0.1
 1 C  pz              0.6       8.3       2.7       2.7      10.3       6.8
 1 C  px              0.8      43.4       0.8       0.0       1.8       0.6
 1 C  py              4.4       1.3       0.7       2.7      19.5       2.0
 1 C  dz2             0.1       0.1       0.2       0.1       0.1       0.4
 1 C  dxz             0.0       0.1       0.7       0.1       0.6       0.2
 1 C  dx2y2           0.0       0.0       0.5       0.1       0.1       0.3
 1 C  dxy             0.2       0.0       0.5       0.0       0.0       0.0
 2 C  s               0.7       3.1       5.8       7.6       9.2       2.8
 2 C  pz              6.6       3.0       5.2       1.6       1.5      10.7
 2 C  px             10.4       6.1       0.4       0.3       0.7       1.6
 2 C  py              7.4       0.2       1.0       5.2       2.2       1.9
 2 C  dz2             0.9       0.0       0.1       0.0       0.0       0.1
 2 C  dxz             0.0       0.0       0.8       0.0       0.0       0.0
 2 C  dyz             2.3       0.2       0.9       0.0       0.1       0.3
 2 C  dx2y2           0.2       0.0       0.0       0.1       0.0       0.1
 2 C  dxy             0.1       0.0       0.1       0.1       0.0       0.0
 3 N  s               3.0       0.4       2.0       0.9       1.1       0.6
 3 N  pz              1.4       0.5       0.5       0.7       0.0       0.4
 3 N  px              1.1       1.3       0.4       0.6       0.3       0.8
 3 N  py              0.8       1.4      15.3       0.6       1.8       6.3
 3 N  dz2             0.5       0.0       0.1       0.0       0.0       0.2
 3 N  dxz             0.4       0.1       0.4       0.2       0.0       0.0
 3 N  dyz             0.2       0.0       0.0       0.0       0.0       0.0
 3 N  dx2y2           0.7       0.0       0.3       0.2       0.1       0.1
 3 N  dxy             0.3       0.0       0.1       0.3       0.2       0.1
 4 H  s               0.2       2.1       0.7       3.0       1.2       1.4
 5 H  s               2.8       2.2      15.8       1.1       1.0       5.1
 6 H  s               0.2       1.8       0.9       9.8       0.5       1.2
 7 H  s               0.0       0.0       0.9       2.2       8.6       2.7
 8 H  s               2.3       0.8       4.0       2.6      15.0       4.9
 9 H  s               5.5       9.3       0.4       4.2       0.5       1.5
10 H  s              11.6       5.5       9.9       1.2       1.6       1.7
11 H  s               8.1       0.1       9.2       7.3       1.8       3.1
12 H  s              12.5       0.3       4.8       0.7       0.1       0.6

                     42        43        44        45        46        47   
                   0.67845   0.68642   0.69635   0.70097   0.71572   0.75006
                   0.00000   0.00000   0.00000   0.00000   0.00000   0.00000
                  --------  --------  --------  --------  --------  --------
 0 C  s              13.2       0.7       1.4       1.0       4.5       1.0
 0 C  pz             20.3       9.5       0.6       5.2       5.2       3.0
 0 C  px              0.8       6.5      11.1       1.2       0.2       1.8
 0 C  py              2.1      23.4       4.4       0.5       2.7       0.8
 0 C  dz2             0.9       1.1       0.1       0.1       0.0       0.0
 0 C  dxz             0.8       0.0       0.0       0.1       0.1       0.5
 0 C  dyz             0.0       0.0       0.4       0.2       0.1       0.1
 0 C  dx2y2           0.0       0.7       0.2       0.0       0.0       1.3
 0 C  dxy             0.0       0.2       0.9       0.2       0.0       0.7
 1 C  s               0.4       0.2       0.6       0.1      23.2       0.7
 1 C  pz              4.4       1.3       8.0      13.1       0.3       4.3
 1 C  px              3.7       0.5       4.2       3.3       0.1       3.7
 1 C  py              3.1       0.2       1.1      18.6       0.7       4.8
 1 C  dz2             0.2       0.0       0.0       0.3       0.0       1.7
 1 C  dxz             0.1       0.0       0.0       0.0       0.1       0.3
 1 C  dyz             0.0       0.0       0.4       0.1       0.0       0.7
 1 C  dx2y2           0.7       0.0       0.3       0.1       0.0       0.6
 1 C  dxy             0.0       0.0       0.2       0.0       0.0       0.0
 2 C  s               1.8       4.8       0.7       0.3      12.2       2.5
 2 C  pz              3.2       2.6      12.4       2.0       0.3       0.2
 2 C  px              3.3       0.7       2.5       4.0       1.4       4.0
 2 C  py              4.8       9.2       8.4      15.1       1.9       0.7
 2 C  dz2             0.0       0.0       0.0       0.0       0.0       1.0
 2 C  dxz             0.0       0.0       0.0       0.0       0.2       0.5
 2 C  dyz             0.2       0.1       0.1       0.0       0.1       0.1
 2 C  dx2y2           0.1       0.2       0.0       0.0       0.0       0.0
 2 C  dxy             0.2       0.0       0.2       0.0       0.1       0.0
 3 N  s               1.9       0.2       0.3       0.7       5.3       1.9
 3 N  pz              0.3       0.1       0.3       0.3       0.6       3.0
 3 N  px              0.4       0.1       0.7       0.1       1.0      23.3
 3 N  py              0.3       0.1       2.1       7.6       5.7       3.0
 3 N  dz2             0.0       0.0       0.0       0.1       0.1       0.2
 3 N  dxz             0.0       0.0       0.1       0.0       0.0       0.3
 3 N  dyz             0.0       0.0       0.0       0.2       0.1       0.4
 3 N  dx2y2           0.0       0.1       0.0       0.0       0.2       0.0
 3 N  dxy             0.1       0.0       0.2       0.0       0.0       0.8
 4 H  s              15.8       8.5       0.3       1.9       9.2       0.6
 5 H  s               0.6       0.1      16.4       3.0       4.0       0.5
 6 H  s               0.4      20.0       0.6       0.7       5.3       3.6
 7 H  s               5.4       0.6       6.2       9.4       1.6       1.6
 8 H  s               0.4       0.2       1.3       5.5       2.9       0.9
 9 H  s               5.6       6.9       3.4       1.2       4.1       0.4
10 H  s               3.7       0.1       3.4       2.6       4.7       2.7
11 H  s               0.5       0.7       4.1       0.8       1.3      10.0
12 H  s               0.2       0.3       2.4       0.4       0.7      11.9

                     48        49        50        51        52        53   
                   0.80955   0.88162   0.93608   0.95762   1.08645   1.21872
                   0.00000   0.00000   0.00000   0.00000   0.00000   0.00000
                  --------  --------  --------  --------  --------  --------
 0 C  s               0.2       3.4       4.7      25.8       2.7       4.1
 0 C  pz              0.5       1.0       0.2       0.7       0.1       0.2
 0 C  px              0.7       3.7       1.1       5.2       0.8       1.3
 0 C  py              0.1       0.2       0.6       0.8       0.9       0.3
 0 C  dz2             0.1       0.1       0.0       0.5       1.4       0.5
 0 C  dxz             0.0       0.7       0.0       0.3       0.4       0.0
 0 C  dyz             0.2       0.0       0.2       0.4       0.0       1.6
 0 C  dx2y2           0.1       0.2       0.0       0.1       1.6       1.2
 0 C  dxy             0.1       0.8       0.7       0.0       1.1       1.2
 1 C  s               0.1      11.7       1.0       5.8      25.6       1.3
 1 C  pz              1.9       3.3       0.5       1.7       3.5       1.2
 1 C  px              0.6       0.7       0.6       1.1       1.5       0.7
 1 C  py              0.7       2.2       1.0       0.2       0.8       0.3
 1 C  dz2             0.0       1.4       0.2       0.6       2.2       0.3
 1 C  dxz             0.0       0.2       0.0       0.0       0.0       0.1
 1 C  dyz             0.7       0.2       0.6       0.1       0.2       0.8
 1 C  dx2y2           0.2       0.3       0.4       0.1       0.2       0.8
 1 C  dxy             0.1       0.1       0.2       0.0       1.0       0.4
 2 C  s               1.4      13.5       3.9       0.9       8.1      17.6
 2 C  pz              3.5       0.4       0.9       3.6       0.2       0.7
 2 C  px              0.2       2.9       1.7       4.5       0.2       1.0
 2 C  py              7.8       0.5       3.5       0.7       0.1       0.8
 2 C  dz2             1.0       0.5       0.1       0.0       0.6       0.4
 2 C  dxz             0.2       0.1       1.3       0.4       0.0       0.1
 2 C  dyz             0.4       0.4       0.1       0.4       0.2       0.5
 2 C  dx2y2           0.7       0.0       1.0       0.0       1.2       1.1
 2 C  dxy             0.0       0.1       0.2       0.0       0.7       1.2
 3 N  s              17.6      14.9       2.8       2.7       2.1      35.4
 3 N  pz             25.5       6.6      39.4       2.0       3.1       2.9
 3 N  px              7.1       5.9       0.9      19.2      18.3       3.4
 3 N  py             16.0       6.1      22.1       1.4       6.6       1.2
 3 N  dz2             0.0       0.4       0.2       1.6       0.5       1.5
 3 N  dxz             0.0       0.0       2.5       0.6       0.0       1.0
 3 N  dyz             0.4       0.4       0.0       0.1       0.5       0.2
 3 N  dx2y2           0.0       0.6       0.4       0.1       0.1       5.8
 3 N  dxy             0.6       1.5       0.5       0.0       1.0       0.0
 4 H  s               0.2       1.2       0.3       4.5       0.2       1.3
 5 H  s               0.0       0.0       0.7       4.0       0.3       0.0
 6 H  s               0.0       0.1       0.3       5.7       0.1       0.5
 7 H  s               0.0       1.3       0.1       0.5       5.3       0.8
 8 H  s               0.3       5.5       0.2       2.3       2.9       0.1
 9 H  s               0.1       3.2       0.1       0.1       0.8       2.8
10 H  s               2.3       2.6       1.6       0.3       1.6       1.1
11 H  s               1.3       0.7       0.6       0.9       1.3       1.0
12 H  s               7.1       0.3       2.7       0.2       0.0       1.1

                     54        55        56        57        58        59   
                   1.40052   1.44726   1.63134   1.72079   1.79526   1.83525
                   0.00000   0.00000   0.00000   0.00000   0.00000   0.00000
                  --------  --------  --------  --------  --------  --------
 0 C  s               0.2       0.6       0.7       0.1       0.3       1.1
 0 C  pz              0.0       0.2       0.1       0.1       1.0       0.5
 0 C  px              0.0       0.1       1.2       0.2       0.1       0.4
 0 C  py              0.4       0.0       0.2       0.1       0.1       1.6
 0 C  dz2             2.8       3.5       0.1       4.7       5.7       0.4
 0 C  dxz             4.1       0.4       7.5       4.3       9.7       4.4
 0 C  dyz            11.2       2.9      16.3       2.7       3.0      28.4
 0 C  dx2y2           0.2       4.6      15.3       0.8       2.9       2.0
 0 C  dxy             3.7       2.4       2.7       6.9       0.2       2.8
 1 C  s               0.1       2.6       0.0       0.5       0.2       1.8
 1 C  pz              0.1       0.6       0.5       4.8       1.2       0.7
 1 C  px              0.0       0.4       4.1       1.6       1.8       0.3
 1 C  py              0.2       0.0       0.0       1.3       2.0       3.3
 1 C  dz2             4.8       1.7       2.2       8.0       2.3       0.0
 1 C  dxz            12.5       0.3       1.3       0.3       4.3       7.6
 1 C  dyz            19.6       3.4       2.0       2.0       0.3      28.4
 1 C  dx2y2           0.3      19.4       1.3       1.2       1.1       1.5
 1 C  dxy             1.6       9.6       2.8       0.2      18.0       0.0
 2 C  s               0.1       0.1       0.8       0.2       0.4       0.0
 2 C  pz              0.7       0.1       0.8       1.0       0.0       0.2
 2 C  px              0.1       0.6       1.2       1.7       0.8       0.1
 2 C  py              0.1       1.2       0.4       0.1       2.5       0.1
 2 C  dz2             1.7       5.7       2.6      17.3       0.0       0.4
 2 C  dxz             6.9       0.1       4.9       0.8       2.0       6.0
 2 C  dyz            18.1       0.4      12.1      14.7       0.1       0.2
 2 C  dx2y2           0.3       8.5      12.4       3.1       0.1       0.0
 2 C  dxy             0.1      10.9       1.7       0.0      29.9       0.3
 3 N  s               1.8       2.5       0.0       0.7       0.4       0.2
 3 N  pz              0.3       0.7       0.1       0.2       0.3       0.3
 3 N  px              0.9       5.2       0.2       0.6       0.2       0.1
 3 N  py              1.2       0.1       0.2       0.1       0.0       0.0
 3 N  dz2             0.3       1.3       0.6       4.0       1.1       0.3
 3 N  dxz             0.2       0.0       0.0       3.9       1.4       0.9
 3 N  dyz             3.2       0.0       1.4       5.9       2.6       0.0
 3 N  dx2y2           0.0       2.8       0.0       2.8       0.0       0.0
 3 N  dxy             0.0       4.7       1.4       0.2       0.6       0.0
 4 H  s               0.2       0.1       0.1       0.0       0.2       0.6
 5 H  s               0.3       0.4       0.0       0.0       0.3       0.0
 6 H  s               0.2       0.1       0.1       0.0       0.0       1.2
 7 H  s               0.1       0.1       0.0       0.5       1.4       2.8
 8 H  s               0.1       0.1       0.0       2.3       0.4       0.4
 9 H  s               0.0       0.2       0.0       0.0       1.4       0.0
10 H  s               0.2       0.2       0.2       0.0       0.0       0.4
11 H  s               0.8       0.1       0.1       0.2       0.0       0.0
12 H  s               0.2       0.9       0.2       0.1       0.1       0.0

                     60        61        62        63        64        65   
                   1.90097   1.95720   1.97391   2.06125   2.10975   2.19381
                   0.00000   0.00000   0.00000   0.00000   0.00000   0.00000
                  --------  --------  --------  --------  --------  --------
 0 C  pz              1.6       0.3       0.3       0.1       0.4       0.1
 0 C  px              0.6       0.5       0.4       1.6       0.1       0.0
 0 C  py              0.4       0.7       0.4       1.2       0.2       0.1
 0 C  dz2             0.1       0.0       5.4      11.9      10.6      28.2
 0 C  dxz            12.3      10.0       0.4       0.1       5.2       0.2
 0 C  dyz             0.1       6.5       1.0       4.3       0.4       0.0
 0 C  dx2y2           8.9       0.1       7.7       5.2      10.6       4.5
 0 C  dxy            10.7       9.3       1.9      22.5       0.3       5.8
 1 C  s               0.1       1.3       0.4       0.2       0.1       0.0
 1 C  pz              1.1       0.1       0.0       0.0       1.1       0.3
 1 C  px              0.4       0.1       0.0       0.3       0.6       0.1
 1 C  py              0.0       0.2       0.1       0.2       0.2       0.1
 1 C  dz2             1.7       0.1       1.0       0.1      16.9      31.3
 1 C  dxz             6.7       9.4       0.3       0.6      10.4       0.1
 1 C  dyz             0.1       2.1       1.2       0.5       1.6       0.0
 1 C  dx2y2           5.3       5.6       3.0       0.1       8.6       4.4
 1 C  dxy            11.8       1.5       1.6       0.2       0.7       7.4
 2 C  s               0.4       0.2       0.5       0.2       0.1       0.1
 2 C  pz              0.1       1.4       1.2       0.8       0.1       0.0
 2 C  px              0.7       1.4       0.2       0.2       0.4       0.0
 2 C  py              2.2       0.8       0.3       1.4       0.0       0.0
 2 C  dz2            10.3       8.1       5.1       0.9       0.5       0.1
 2 C  dxz             0.6       1.0      16.4      16.1       0.0       0.7
 2 C  dyz             0.0      15.6       4.1       1.8       0.1       0.3
 2 C  dx2y2           4.5       0.2      16.1       6.9       0.1       0.0
 2 C  dxy             4.3       6.9       0.5       0.5       0.4       0.0
 3 N  s               0.4       0.0       1.4       0.4       0.0       0.4
 3 N  pz              0.4       0.0       2.0       0.6       0.0       0.1
 3 N  px              0.4       0.0       0.6       0.0       0.0       0.1
 3 N  py              0.2       0.1       0.1       0.4       0.0       0.2
 3 N  dz2             0.6       0.1       9.0       0.6       6.6       0.0
 3 N  dxz             1.3       0.7       0.8       2.7       2.3       0.1
 3 N  dyz             0.1       3.3       7.8       0.5       8.8       2.3
 3 N  dx2y2           3.9       1.1       3.1       2.5       0.5       2.8
 3 N  dxy             1.1       3.0       0.1       0.9       1.0       1.3
 4 H  s               1.6       0.3       1.1       1.3       2.5       1.9
 5 H  s               0.2       1.3       0.1       6.0       0.0       0.0
 6 H  s               0.5       0.8       1.5       1.0       2.1       2.1
 7 H  s               0.0       0.4       0.1       0.0       2.2       2.3
 8 H  s               0.7       0.3       0.0       0.0       4.3       2.3
 9 H  s               3.3       0.8       1.7       1.4       0.0       0.0
10 H  s               0.1       4.3       1.0       3.3       0.0       0.0
11 H  s               0.0       0.0       0.0       0.2       0.0       0.0
12 H  s               0.1       0.0       0.0       0.4       0.0       0.0

                     66        67        68        69        70        71   
                   2.23658   2.28024   2.36076   2.41247   2.52830   2.58622
                   0.00000   0.00000   0.00000   0.00000   0.00000   0.00000
                  --------  --------  --------  --------  --------  --------
 0 C  s               0.1       0.1       0.1       0.2       1.3       0.3
 0 C  pz              0.1       0.2       0.0       0.3       1.2       0.3
 0 C  px              0.1       0.1       0.0       0.2       1.1       0.5
 0 C  py              0.2       0.1       0.0       0.1       0.4       0.0
 0 C  dz2             0.8       2.3       4.7       1.8       0.4       0.3
 0 C  dxz             4.0       5.6       0.6       2.5      10.0       3.3
 0 C  dyz             0.1       0.5       3.2       2.7       5.4       0.1
 0 C  dx2y2          12.6       4.9       1.6       0.1       0.1       2.0
 0 C  dxy             5.6       0.0       0.9       1.3       5.0       0.5
 1 C  s               0.5       0.6       0.5       0.7       0.8       0.2
 1 C  pz              0.4       0.3       0.4       0.2       1.1       0.4
 1 C  px              0.1       0.0       0.1       0.0       0.8       3.0
 1 C  py              1.0       1.1       0.1       0.2       0.2       0.2
 1 C  dz2             1.0       0.3       0.8       2.0       0.9       6.7
 1 C  dxz             0.8       0.3       0.0       6.7      20.7       0.1
 1 C  dyz            12.6       8.4       0.0       0.0       2.2       3.9
 1 C  dx2y2           0.0       0.0      27.1       2.8       2.6       1.8
 1 C  dxy             1.4       5.3       0.8       0.2       3.3      18.9
 2 C  s               0.3       0.5       0.5       0.3       0.2       1.6
 2 C  pz              0.1       0.1       0.6       0.0       0.1       0.1
 2 C  px              0.3       0.1       1.4       0.0       0.1       1.2
 2 C  py              0.2       0.4       0.4       0.4       0.1       0.3
 2 C  dz2             2.7       4.1       0.4      11.5       0.0       6.6
 2 C  dxz             5.7       5.4       0.4       2.3       0.8       1.6
 2 C  dyz             2.9       0.3       2.1       5.7       6.0       0.8
 2 C  dx2y2           0.2      14.6       6.3       0.0       0.5      10.1
 2 C  dxy             0.0       1.4       9.8       0.1       2.5      14.8
 3 N  s               1.3       1.4       0.2       0.9       0.3       0.0
 3 N  pz              0.4       0.0       0.3       0.3       0.1       0.2
 3 N  px              0.0       0.0       1.8       0.2       0.4       0.4
 3 N  py              0.7       0.3       0.0       0.0       0.1       0.1
 3 N  dz2             0.0       1.5       2.9      15.1       7.7       1.3
 3 N  dxz            16.1       2.3       2.1       0.2       0.1       0.1
 3 N  dyz             2.4       0.1      10.1       6.8      17.7      14.3
 3 N  dx2y2          18.9      30.8       3.9       0.8       2.9       2.3
 3 N  dxy             0.1       0.2      12.0      30.6       0.0       0.0
 4 H  s               0.4       0.5       0.3       0.0       0.2       0.0
 5 H  s               1.5       0.3       0.4       0.2       0.3       0.1
 6 H  s               1.1       0.3       0.0       0.0       0.1       0.1
 7 H  s               0.3       0.7       1.4       0.1       0.2       0.0
 8 H  s               0.1       0.0       0.1       0.5       0.4       0.2
 9 H  s               0.1       2.1       0.1       0.3       0.0       0.3
10 H  s               0.0       0.9       0.3       0.6       0.0       0.4
11 H  s               1.4       0.6       0.6       1.0       0.1       0.0
12 H  s               1.2       0.9       0.5       0.2       1.5       0.5

                     72        73   
                   2.62057   2.87585
                   0.00000   0.00000
                  --------  --------
 0 C  s               0.2       0.0
 0 C  pz              0.1       0.0
 0 C  px              0.2       0.0
 0 C  dxz             0.9       0.0
 0 C  dyz             0.3       0.0
 0 C  dxy             0.4       0.1
 1 C  s               0.1       0.1
 1 C  px              0.1       0.4
 1 C  dz2             0.0       0.5
 1 C  dxz             4.3       0.3
 1 C  dyz             0.0       0.2
 1 C  dx2y2           0.4       0.3
 1 C  dxy             0.1       0.6
 2 C  s               0.1       1.9
 2 C  pz              0.3       2.4
 2 C  px              0.0       2.2
 2 C  py              0.1       0.0
 2 C  dz2             1.6       5.3
 2 C  dxz             0.7      13.4
 2 C  dyz             3.0       0.5
 2 C  dx2y2           0.8       0.6
 2 C  dxy             0.3       1.3
 3 N  s               0.2       2.1
 3 N  pz              0.9       3.1
 3 N  px              1.3       2.0
 3 N  py              0.0       0.1
 3 N  dz2            23.5      12.2
 3 N  dxz             9.7      40.3
 3 N  dyz             3.3       3.0
 3 N  dx2y2           8.0       2.5
 3 N  dxy            29.0       2.7
11 H  s               5.3       0.8
12 H  s               4.6       0.5


                      *****************************
                      * MAYER POPULATION ANALYSIS *
                      *****************************

  NA   - Mulliken gross atomic population
  ZA   - Total nuclear charge
  QA   - Mulliken gross atomic charge
  VA   - Mayer's total valence
  BVA  - Mayer's bonded valence
  FA   - Mayer's free valence

  ATOM       NA         ZA         QA         VA         BVA        FA
  0 C      6.2980     6.0000    -0.2980     4.0229     4.0229     0.0000
  1 C      6.1799     6.0000    -0.1799     4.1417     4.1417     0.0000
  2 C      6.0768     6.0000    -0.0768     4.0987     4.0987     0.0000
  3 N      7.4669     7.0000    -0.4669     2.9609     2.9609    -0.0000
  4 H      0.8989     1.0000     0.1011     0.9567     0.9567    -0.0000
  5 H      0.8929     1.0000     0.1071     0.9502     0.9502    -0.0000
  6 H      0.9044     1.0000     0.0956     0.9575     0.9575    -0.0000
  7 H      0.9073     1.0000     0.0927     0.9618     0.9618    -0.0000
  8 H      0.9162     1.0000     0.0838     0.9449     0.9449     0.0000
  9 H      0.9405     1.0000     0.0595     0.9446     0.9446    -0.0000
 10 H      0.9199     1.0000     0.0801     0.9481     0.9481    -0.0000
 11 H      0.7976     1.0000     0.2024     0.9126     0.9126     0.0000
 12 H      0.8006     1.0000     0.1994     0.9212     0.9212     0.0000

  Mayer bond orders larger than 0.100000
B(  0-C ,  1-C ) :   1.1535 B(  0-C ,  4-H ) :   0.9509 B(  0-C ,  5-H ) :   0.9536 
B(  0-C ,  6-H ) :   0.9543 B(  1-C ,  2-C ) :   1.1224 B(  1-C ,  7-H ) :   0.9207 
B(  1-C ,  8-H ) :   0.9261 B(  2-C ,  3-N ) :   1.1059 B(  2-C ,  9-H ) :   0.9176 
B(  2-C , 10-H ) :   0.9307 B(  3-N , 11-H ) :   0.9043 B(  3-N , 12-H ) :   0.9014 


-------
TIMINGS
-------

Total SCF time: 0 days 0 hours 0 min 3 sec 

Total time                  ....       3.220 sec
Sum of individual times     ....       2.922 sec  ( 90.7%)

SCF preparation             ....       0.140 sec  (  4.3%)
Fock matrix formation       ....       2.251 sec  ( 69.9%)
  Startup                   ....       0.044 sec  (  2.0% of F)
  Split-RI-J                ....       0.465 sec  ( 20.7% of F)
  XC integration            ....       1.300 sec  ( 57.7% of F)
    XC Preparation          ....       0.000 sec  (  0.0% of XC)
    Basis function eval.    ....       0.357 sec  ( 27.4% of XC)
    Density eval.           ....       0.109 sec  (  8.4% of XC)
    XC-Functional eval.     ....       0.129 sec  (  9.9% of XC)
    XC-Potential eval.      ....       0.200 sec  ( 15.4% of XC)
Diagonalization             ....       0.000 sec  (  0.0%)
Density matrix formation    ....       0.126 sec  (  3.9%)
Total Energy calculation    ....       0.027 sec  (  0.8%)
Population analysis         ....       0.037 sec  (  1.2%)
Orbital Transformation      ....       0.033 sec  (  1.0%)
Orbital Orthonormalization  ....       0.000 sec  (  0.0%)
DIIS solution               ....       0.239 sec  (  7.4%)
  MO trafo                  ....       0.000 sec  (  0.0 % of DIIS)
  Orb grad                  ....       0.000 sec  (  0.0 % of DIIS)
  Energy W gradient         ....       0.000 sec  (  0.0 % of DIIS)
  DIIS error                ....       0.001 sec  (  0.3 % of DIIS)
  DIIS work                 ....       0.209 sec  ( 87.5 % of DIIS)
  Form Q                    ....       0.000 sec  (  0.0 % of DIIS)
  Form QpQm                 ....       0.000 sec  (  0.0 % of DIIS)
  Exp/Cayley                ....       0.000 sec  (  0.0 % of DIIS)
  Orb update                ....       0.000 sec  (  0.0 % of DIIS)
  Wake-sleep                ....       0.012 sec  (  5.0 % of DIIS)
SOSCF solution              ....       0.068 sec  (  2.1%)
  MO trafo                  ....       0.034 sec  ( 50.2 % of SOSCF)
  Orb grad                  ....       0.002 sec  (  2.3 % of SOSCF)
  Rot update                ....       0.018 sec  ( 26.6 % of SOSCF)
  Step                      ....       0.014 sec  ( 20.9 % of SOSCF)
Finished LeanSCF after   3.3 sec

Maximum memory used throughout the entire LEANSCF-calculation: 7.7 MB


-------------------------------------------------------------------------------
                          DFT DISPERSION CORRECTION                            
                                                                               
                                DFTD4 V3.4.0                                   
-------------------------------------------------------------------------------
The PBE functional is recognized
Active option DFTDOPT                   ...         5   

-------------------------   ----------------
Dispersion correction           -0.007370711
-------------------------   ----------------

------------------   -----------------
gCP correction             0.057305677
------------------   -----------------

-------------------------   --------------------
FINAL SINGLE POINT ENERGY      -174.031802562884
-------------------------   --------------------


------------------------------------------------------------------------------
                              ORCA PROPERTY CALCULATIONS
------------------------------------------------------------------------------

GBWName                                 ... sp.gbw
Number of atoms                         ...     13
Number of basis functions               ...     74
Max core memory                         ...   1024 MB

Electric properties:
Dipole moment                           ... YES
Quadrupole moment                       ...  NO
Static polarizability (Dipole/Dipole)   ...  NO
Static polarizability (Dipole/Quad.)    ...  NO
Static polarizability (Quad./Quad.)     ...  NO
Static polarizability (Velocity)        ...  NO

Atomic electric properties:
Dipole moment                           ...  NO
Quadrupole moment                       ...  NO
Static polarizability                   ...  NO

Choice of electric origin               ... Center of mass
Position of electric origin             ...    -0.000003    -0.000001    -0.000000

General magnetic properties:
Magnetizability                         ...  NO

EPR properties:
g-Tensor (aka g-matrix)                 ...  NO
Zero-Field splitting spin-orbit         ...  NO
Zero-field splitting spin-spin          ...  NO
Hyperfine couplings                     ...  NO (   0 nuclei)
Quadrupole couplings                    ...  NO (   0 nuclei)
Contact density                         ...  NO (   0 nuclei)

NMR properties:
Chemical shifts                         ...  NO (   0 nuclei)
Spin-rotation constants                 ...  NO (   0 nuclei)
Spin-spin couplings                     ...  NO (   0 nuclei,    0 pairs)

Choice of magnetic origin               ... GIAO
Position of magnetic origin             ...     0.000000     0.000000     0.000000

Properties with geometric perturbations:
SCF Hessian                             ...  NO
IR spectrum                             ...  NO
VCD spectrum                            ...  NO
X-ray spectroscopy properties:
SCF XES/XAS/RIXS spectra                ...  NO


-------------
DIPOLE MOMENT
-------------

Method             : SCF
Type of density    : Electron Density
Multiplicity       :   1
Irrep              :   0
Energy             :  -174.0817375291053111 Eh
Relativity type    : 
Basis              : AO
                                X                 Y                 Z
Electronic contribution:      1.850029383       0.354104117      -0.040178804
Nuclear contribution   :     -1.870734126      -0.851072615       0.050321776
                        -----------------------------------------
Total Dipole Moment    :     -0.020704743      -0.496968499       0.010142972
                        -----------------------------------------
Magnitude (a.u.)       :      0.497503020
Magnitude (Debye)      :      1.264552181



--------------------
Rotational spectrum 
--------------------
 
Rotational constants in cm-1:             0.482784             0.161844             0.139416 
Rotational constants in MHz :         14473.491029          4851.963253          4179.574546 

Dipole components along the rotational axes: 
x,y,z [a.u.] :     0.024829    -0.106700    -0.485292 
x,y,z [Debye]:     0.063111    -0.271209    -1.233513 

 

Dipole moment calculation done in   0.0 sec 

Maximum memory used throughout the entire PROP-calculation: 5.0 MB

--------------------------------
SUGGESTED CITATIONS FOR THIS RUN
--------------------------------

Below you find a list of papers that are relevant to this ORCA run
We neither can nor want to force you to cite these papers, but we appreciate if you do
You receive ORCA, which is the product of decades of hard work by many enthusiastic individuals, for free
The only thing we kindly ask in return is that you cite our papers,
We deeply appreciate it, if you show your appreciation for ORCA by not just citing the generic ORCA reference.

Please note that relegating all ORCA citations to the supporting information does *not* help us.
SI sections are not indexed - citations you put there will not count into any citation statistics
But we need these citations in order to attract the funding resources that allow us to do what we are doing

Therefore, if you are a happy ORCA user, please consider citing a few of the papers listed below in the main body of your paper

In addition to the list printed below, the program has created the file sp.bibtex that contains the list in bibtex format
You can import this file easily into all common literature databanks and citation aid programs


List of essential papers. We consider these as the minimum necessary citations

  1. Neese,F.
     Software update: the ORCA program system, version 5.0
     WIRES Comput. Molec. Sci., 2022 12(1)e1606
     doi.org/10.1002/wcms.1606

List of papers to cite with high priority. The work reported in these papers was absolutely
necessary for this run to complete.
Our perspective: the developers of density functionals and basis sets usually get cited in chemistry papers
Good! But without the algorithms to do something with them, the functionals or basis sets would not do anything.
Hence, in our opinion, the algorithm design and method developments papers are equally worthy of getting cited

  1. Neese,F.
     An improvement of the resolution of the identity approximation for the formation of the Coulomb matrix
     J. Comp. Chem., 2003 24(14)1740-1747
     doi.org/10.1002/jcc.10318
  2. Neese,F.
     The SHARK Integral Generation and Digestion System
     J. Comp. Chem., 2022  1-16
     doi.org/10.1002/jcc.26942
  3. Caldeweyher,E.; Bannwarth,C.; Grimme,S.
     Extension of the D3 dispersion coefficient model
     J. Chem. Phys., 2017 147 034112-XXXX
     doi.org/10.1063/1.4993215
  4. Caldeweyher,E.; Ehlert,S.; Hansen,A.; Neugebauer,H.; Spicher,S.; Bannwarth,C.; Grimme,S.
     A generally applicable atomic-charge dependent London dispersion correction
     J. Chem. Phys., 2019 150 154122-XXXX
     doi.org/10.1063/1.5090222
  5. Caldeweyher,E.; Mewes,J.; Ehlert,S.; Grimme,S.
     Extension and evaluation of the D4 London-dispersion model for periodic systems
     Phys. Chem. Chem. Phys., 2020 22(16)8499-8512
     doi.org/10.1039/D0CP00502A

List of suggested additional citations. These are papers that are important in the 'surrounding' of 
of this run, or papers that preceded the highly important papers. If you like your results we are grateful for a citation.

  1. Neese,F.
     The ORCA program system
     WIRES Comput. Molec. Sci., 2012 2(1)73-78
     doi.org/10.1002/wcms.81
  2. Neese,F.
     Software update: the ORCA program system, version 4.0
     WIRES Comput. Molec. Sci., 2018 8(1)1-6
     doi.org/10.1002/wcms.1327
  3. Neese,F.; Wennmohs,F.; Becker,U.; Riplinger,C.
     The ORCA quantum chemistry program package
     J. Chem. Phys., 2020 152 Art. No. L224108
     doi.org/10.1063/5.0004608

List of optional additional citations

  1. Neese,F.
     Approximate second-order SCF convergence for spin unrestricted wavefunctions
     Chem. Phys. Lett., 2000 325(1-3)93-98
     doi.org/10.1016/s0009-2614(00)00662-x

Timings for individual modules:

Sum of individual times          ...        4.251 sec (=   0.071 min)
Startup calculation              ...        0.456 sec (=   0.008 min)  10.7 %
SCF iterations                   ...        3.707 sec (=   0.062 min)  87.2 %
Property calculations            ...        0.088 sec (=   0.001 min)   2.1 %
                             ****ORCA TERMINATED NORMALLY****
TOTAL RUN TIME: 0 days 0 hours 0 minutes 4 seconds 990 msec
