
                                 *****************
                                 * O   R   C   A *
                                 *****************

                                            #,                                       
                                            ###                                      
                                            ####                                     
                                            #####                                    
                                            ######                                   
                                           ########,                                 
                                     ,,################,,,,,                         
                               ,,#################################,,                 
                          ,,##########################################,,             
                       ,#########################################, ''#####,          
                    ,#############################################,,   '####,        
                  ,##################################################,,,,####,       
                ,###########''''           ''''###############################       
              ,#####''   ,,,,##########,,,,          '''####'''          '####       
            ,##' ,,,,###########################,,,                        '##       
           ' ,,###''''                  '''############,,,                           
         ,,##''                                '''############,,,,        ,,,,,,###''
      ,#''                                            '''#######################'''  
     '                                                          ''''####''''         
             ,#######,   #######,   ,#######,      ##                                
            ,#'     '#,  ##    ##  ,#'     '#,    #''#        ,####,   ,####,        
            ##       ##  ##   ,#'  ##            #'  '#       #'       #'  '#        
            ##       ##  #######   ##           ,######,      #####,   #    #        
            '#,     ,#'  ##    ##  '#,     ,#' ,#      #,     #,   #   #,  ,#        
             '#######'   ##     ##  '#######'  #'      '#     '####' # '####'        



                #########################################################
                #                        -***-                          #
                #          Department of theory and spectroscopy        #
                #                                                       #
                #                      Frank Neese                      #
                #                                                       #
                #     Directorship, Architecture, Infrastructure        #
                #                    SHARK, DRIVERS                     #
                #        Core code/Algorithms in most modules           #
                #                                                       #
                #        Max Planck Institute fuer Kohlenforschung      #
                #                Kaiser Wilhelm Platz 1                 #
                #                 D-45470 Muelheim/Ruhr                 #
                #                      Germany                          #
                #                                                       #
                #                  All rights reserved                  #
                #                        -***-                          #
                #########################################################


                         Program Version 6.0.0  -   RELEASE  -


 With contributions from (in alphabetic order):
   Daniel Aravena         : Magnetic Suceptibility
   Michael Atanasov       : Ab Initio Ligand Field Theory (pilot matlab implementation)
   Alexander A. Auer      : GIAO ZORA, VPT2 properties, NMR spectrum
   Ute Becker             : All parallelization in ORCA, NUMFREQ, NUMCALC
   Giovanni Bistoni       : ED, misc. LED, open-shell LED, HFLD
   Martin Brehm           : Molecular dynamics
   Dmytro Bykov           : pre 5.0 version of the SCF Hessian
   Marcos Casanova-Páez   : Triplet and SCS-CIS(D). UHF-(DLPNO)-IP/EA/STEOM-CCSD. UHF-CVS-IP/STEOM-CCSD
   Vijay G. Chilkuri      : MRCI spin determinant printing, contributions to CSF-ICE
   Pauline Colinet        : FMM embedding
   Dipayan Datta          : RHF DLPNO-CCSD density
   Achintya Kumar Dutta   : EOM-CC, STEOM-CC
   Nicolas Foglia         : Exact transition moments, OPA infrastructure, MCD improvements
   Dmitry Ganyushin       : Spin-Orbit,Spin-Spin,Magnetic field MRCI
   Miquel Garcia          : C-PCM and meta-GGA Hessian, CCSD/C-PCM, Gaussian charge scheme
   Tiago L. C. Gouveia    : GS-ROHF, GS-ROCIS
   Yang Guo               : DLPNO-NEVPT2, F12-NEVPT2, CIM, IAO-localization
   Andreas Hansen         : Spin unrestricted coupled pair/coupled cluster methods
   Ingolf Harden          : AUTO-CI MPn and infrastructure 
   Benjamin Helmich-Paris : MC-RPA, TRAH-(SCF,CASSCF), AVAS, COSX integrals, SCF dyn. polar.
   Lee Huntington         : MR-EOM, pCC
   Robert Izsak           : Overlap fitted RIJCOSX, COSX-SCS-MP3, EOM
   Riya Kayal             : Wick's Theorem for AUTO-CI, AUTO-CI UHF-CCSDT
   Emily Kempfer          : AUTO-CI, RHF CISDT and CCSDT
   Christian Kollmar      : KDIIS, OOCD, Brueckner-CCSD(T), CCSD density, CASPT2, CASPT2-K, improved NEVPT2
   Axel Koslowski         : Symmetry handling
   Simone Kossmann        : Meta GGA functionals, TD-DFT gradient, OOMP2, (MP2 Hessian; deprecated post 5.0)
   Lucas Lang             : DCDCAS
   Marvin Lechner         : AUTO-CI (C++ implementation), FIC-MRCC
   Spencer Leger          : CASSCF response
   Dagmar Lenk            : GEPOL surface, SMD, ORCA-2-JSON
   Dimitrios Liakos       : Extrapolation schemes; Compound Job, initial MDCI parallelization
   Dimitrios Manganas     : Further ROCIS development; embedding schemes. LFT, Crystal Embedding
   Dimitrios Pantazis     : SARC Basis sets
   Anastasios Papadopoulos: AUTO-CI, single reference methods and gradients
   Taras Petrenko         : pre 6.0 DFT Hessian and TD-DFT gradient, (ASA, deprecated), ECA, 1-Electron XAS/XES, NRVS
   Peter Pinski           : DLPNO-MP2, DLPNO-MP2 Gradient
   Christoph Reimann      : Effective Core Potentials
   Marius Retegan         : Local ZFS, SOC
   Christoph Riplinger    : Optimizer, TS searches, QM/MM, DLPNO-CCSD(T), (RO)-DLPNO pert. Triples
   Michael Roemelt        : Original ROCIS implementation
   Masaaki Saitow         : Open-shell DLPNO-CCSD energy and density
   Barbara Sandhoefer     : DKH picture change effects
   Kantharuban Sivalingam : CASSCF convergence/infrastructure, NEVPT2 and variants, FIC-MRCI
   Bernardo de Souza      : ESD, SOC TD-DFT
   Georgi Stoychev        : AutoAux, RI-MP2 NMR, DLPNO-MP2 response, X2C
   Van Anh Tran           : RI-MP2 g-tensors
   Willem Van den Heuvel  : Paramagnetic NMR
   Zikuan Wang            : NOTCH, Electric field optimization 
   Frank Wennmohs         : Technical directorship and infrastructure
   Hang Xu                : AUTO-CI-Response properties 


 We gratefully acknowledge several colleagues who have allowed us to
 interface, adapt or use parts of their codes:
   Stefan Grimme, W. Hujo, H. Kruse, P. Pracht,  : VdW corrections, initial TS optimization,
                  C. Bannwarth, S. Ehlert,         DFT functionals, gCP, sTDA/sTD-DF
                  L. Wittmann, M. Mueller
   Ed Valeev, F. Pavosevic, A. Kumar             : LibInt (2-el integral package), F12 methods
   Garnet Chan, S. Sharma, J. Yang, R. Olivares  : DMRG
   Ulf Ekstrom                                   : XCFun DFT Library
   Mihaly Kallay                                 : mrcc  (arbitrary order and MRCC methods)
   Frank Weinhold                                : gennbo (NPA and NBO analysis)
   Simon Mueller                                 : openCOSMO-RS
   Christopher J. Cramer and Donald G. Truhlar   : smd solvation model
   Lars Goerigk                                  : TD-DFT with DH, B97 family of functionals
   V. Asgeirsson, H. Jonsson                     : NEB implementation
   FAccTs GmbH                                   : IRC, NEB, NEB-TS, DLPNO-Multilevel, CI-OPT
                                                   MM, QMMM, 2- and 3-layer-ONIOM, Crystal-QMMM,
                                                   LR-CPCM, SF, NACMEs, symmetry and pop. for TD-DFT,
                                                   nearIR, NL-DFT gradient (VV10), updates on ESD,
                                                   ML-optimized integration grids, MBIS, APM,
                                                   GOAT, DOCKER, SOLVATOR, interface openCOSMO-RS
   S Lehtola, MJT Oliveira, MAL Marques          : LibXC Library
   Liviu Ungur et al                             : ANISO software


 Your calculation uses the libint2 library for the computation of 2-el integrals
 For citations please refer to: http://libint.valeyev.net

 Your ORCA version has been built with support for libXC version: 6.2.2
 For citations please refer to: https://libxc.gitlab.io

 This ORCA versions uses:
   CBLAS   interface :  Fast vector & matrix operations
   LAPACKE interface :  Fast linear algebra routines
   SCALAPACK package :  Parallel linear algebra routines
   Shared memory     :  Shared parallel matrices
   BLAS/LAPACK       :  OpenBLAS 0.3.27  USE64BITINT DYNAMIC_ARCH NO_AFFINITY SkylakeX SINGLE_THREADED
        Core in use  :  SkylakeX
   Copyright (c) 2011-2014, The OpenBLAS Project


Your calculation utilizes the geometrical counterpoise correction gCP
Please cite in your paper:
H.Kruse, S. Grimme J.Chem.Phys., 136, (2012), 154101 
   

Your calculation utilizes the atom-pairwise dispersion correction
based on EEQ partial charges (D4)


================================================================================

----- Orbital basis set information -----
Your calculation utilizes the basis: def2-SV(P)
   F. Weigend and R. Ahlrichs, Phys. Chem. Chem. Phys. 7, 3297 (2005).

----- AuxJ basis set information -----
Your calculation utilizes the auxiliary basis: def2/J
   F. Weigend, Phys. Chem. Chem. Phys. 8, 1057 (2006).

================================================================================
                                        WARNINGS
                       Please study these warnings very carefully!
================================================================================


================================================================================
                                       INPUT FILE
================================================================================
NAME = sp.inp
|  1> ! pbe def2-sv(p) def2/J RI DEFGRID1 loosescf d4 GCP(DFT/SV(P)) printgap
|  2> %output
|  3>     printlevel normal
|  4> end
|  5> * xyz 0 1
|  6> C -1.8158084144 -0.020315866 -0.9904731348
|  7> C -0.9781180269 0.338633917 0.2317893214
|  8> H -1.0656404317 1.4114956363 0.4562227447
|  9> C 0.5085053637 0.0942913704 -0.0762627998
| 10> F 1.2917898033 0.355893733 0.9915281292
| 11> F 0.7815472051 -1.1670404497 -0.4366275899
| 12> F 0.9610402439 0.8825648943 -1.0679170541
| 13> O -1.3752821726 -0.454173049 1.3128994624
| 14> H -1.7060793863 -1.0797044372 -1.2063486188
| 15> H -1.4986955658 0.5644798734 -1.8481686815
| 16> H -2.8579249713 0.1855870541 -0.7707515974
| 17> H -1.0021346124 -0.1354489323 2.1479502919
| 18> *
| 19> 
| 20>                          ****END OF INPUT****
================================================================================

                       ****************************
                       * Single Point Calculation *
                       ****************************

---------------------------------
CARTESIAN COORDINATES (ANGSTROEM)
---------------------------------
  C     -1.815808   -0.020316   -0.990473
  C     -0.978118    0.338634    0.231789
  H     -1.065640    1.411496    0.456223
  C      0.508505    0.094291   -0.076263
  F      1.291790    0.355894    0.991528
  F      0.781547   -1.167040   -0.436628
  F      0.961040    0.882565   -1.067917
  O     -1.375282   -0.454173    1.312899
  H     -1.706079   -1.079704   -1.206349
  H     -1.498696    0.564480   -1.848169
  H     -2.857925    0.185587   -0.770752
  H     -1.002135   -0.135449    2.147950

----------------------------
CARTESIAN COORDINATES (A.U.)
----------------------------
  NO LB      ZA    FRAG     MASS         X           Y           Z
   0 C     6.0000    0    12.011   -3.431381   -0.038391   -1.871723
   1 C     6.0000    0    12.011   -1.848375    0.639925    0.438018
   2 H     1.0000    0     1.008   -2.013769    2.667340    0.862136
   3 C     6.0000    0    12.011    0.960936    0.178185   -0.144116
   4 F     9.0000    0    18.998    2.441129    0.672542    1.873717
   5 F     9.0000    0    18.998    1.476910   -2.205387   -0.825107
   6 F     9.0000    0    18.998    1.816103    1.667806   -2.018071
   7 O     8.0000    0    15.999   -2.598907   -0.858263    2.481020
   8 H     1.0000    0     1.008   -3.224023   -2.040346   -2.279669
   9 H     1.0000    0     1.008   -2.832124    1.066712   -3.492533
  10 H     1.0000    0     1.008   -5.400696    0.350709   -1.456509
  11 H     1.0000    0     1.008   -1.893760   -0.255961    4.059038

--------------------------------
INTERNAL COORDINATES (ANGSTROEM)
--------------------------------
 C      0   0   0     0.000000000000     0.00000000     0.00000000
 C      1   0   0     1.524629674335     0.00000000     0.00000000
 H      2   1   0     1.099573918195   110.46353964     0.00000000
 C      2   1   3     1.537741361521   109.46104716   243.84751123
 F      4   2   1     1.349869540916   111.82159200   182.03133803
 F      4   2   1     1.339915142647   113.60674353   302.06722527
 F      4   2   1     1.345191854848   112.32079673    63.09290540
 O      2   1   3     1.398242246873   109.28663746   123.51492670
 H      1   2   3     1.086713775099   109.46851210   179.16879180
 H      1   2   3     1.085443810797   110.24945801    58.28042778
 H      1   2   3     1.084749042253   108.70958485   297.89470978
 H      8   2   1     0.968573204305   111.75220735   191.87571119

---------------------------
INTERNAL COORDINATES (A.U.)
---------------------------
 C      0   0   0     0.000000000000     0.00000000     0.00000000
 C      1   0   0     2.881132540142     0.00000000     0.00000000
 H      2   1   0     2.077893569392   110.46353964     0.00000000
 C      2   1   3     2.905910038079   109.46104716   243.84751123
 F      4   2   1     2.550883748853   111.82159200   182.03133803
 F      4   2   1     2.532072662298   113.60674353   302.06722527
 F      4   2   1     2.542044203245   112.32079673    63.09290540
 O      2   1   3     2.642294915469   109.28663746   123.51492670
 H      1   2   3     2.053591420896   109.46851210   179.16879180
 H      1   2   3     2.051191536165   110.24945801    58.28042778
 H      1   2   3     2.049878613891   108.70958485   297.89470978
 H      8   2   1     1.830338096791   111.75220735   191.87571119

---------------------
BASIS SET INFORMATION
---------------------
There are 4 groups of distinct atoms

 Group   1 Type C   : 7s4p1d contracted to 3s2p1d pattern {511/31/1}
 Group   2 Type H   : 4s contracted to 2s pattern {31}
 Group   3 Type F   : 7s4p1d contracted to 3s2p1d pattern {511/31/1}
 Group   4 Type O   : 7s4p1d contracted to 3s2p1d pattern {511/31/1}

Atom   0C    basis set group =>   1
Atom   1C    basis set group =>   1
Atom   2H    basis set group =>   2
Atom   3C    basis set group =>   1
Atom   4F    basis set group =>   3
Atom   5F    basis set group =>   3
Atom   6F    basis set group =>   3
Atom   7O    basis set group =>   4
Atom   8H    basis set group =>   2
Atom   9H    basis set group =>   2
Atom  10H    basis set group =>   2
Atom  11H    basis set group =>   2
---------------------------------
AUXILIARY/J BASIS SET INFORMATION
---------------------------------
There are 4 groups of distinct atoms

 Group   1 Type C   : 12s5p4d2f1g contracted to 6s4p3d1f1g pattern {711111/2111/211/2/1}
 Group   2 Type H   : 5s2p1d contracted to 3s1p1d pattern {311/2/1}
 Group   3 Type F   : 12s5p4d2f1g contracted to 6s4p3d1f1g pattern {711111/2111/211/2/1}
 Group   4 Type O   : 12s5p4d2f1g contracted to 6s4p3d1f1g pattern {711111/2111/211/2/1}

Atom   0C    basis set group =>   1
Atom   1C    basis set group =>   1
Atom   2H    basis set group =>   2
Atom   3C    basis set group =>   1
Atom   4F    basis set group =>   3
Atom   5F    basis set group =>   3
Atom   6F    basis set group =>   3
Atom   7O    basis set group =>   4
Atom   8H    basis set group =>   2
Atom   9H    basis set group =>   2
Atom  10H    basis set group =>   2
Atom  11H    basis set group =>   2
------------------------------------------------------------------------------
                             ORCA STARTUP CALCULATIONS
                           -- RI-GTO INTEGRALS CHOSEN --
------------------------------------------------------------------------------
------------------------------------------------------------------------------
                   ___                                                        
                  /   \      - P O W E R E D   B Y -                         
                 /     \                                                     
                 |  |  |   _    _      __       _____    __    __             
                 |  |  |  | |  | |    /  \     |  _  \  |  |  /  |          
                  \  \/   | |  | |   /    \    | | | |  |  | /  /          
                 / \  \   | |__| |  /  /\  \   | |_| |  |  |/  /          
                |  |  |   |  __  | /  /__\  \  |    /   |      \           
                |  |  |   | |  | | |   __   |  |    \   |  |\   \          
                \     /   | |  | | |  |  |  |  | |\  \  |  | \   \       
                 \___/    |_|  |_| |__|  |__|  |_| \__\ |__|  \__/        
                                                                              
                      - O R C A' S   B I G   F R I E N D -                    
                                      &                                       
                       - I N T E G R A L  F E E D E R -                       
                                                                              
 v1 FN, 2020, v2 2021, v3 2022-2024                                           
------------------------------------------------------------------------------


----------------------
SHARK INTEGRAL PACKAGE
----------------------

Number of atoms                             ...     12
Number of basis functions                   ...    108
Number of shells                            ...     52
Maximum angular momentum                    ...      2
Integral batch strategy                     ... SHARK/LIBINT Hybrid
RI-J (if used) integral strategy            ... SPLIT-RIJ (Revised 2003 algorithm where possible)
Printlevel                                  ...      1
Contraction scheme used                     ... SEGMENTED contraction
Prescreening option                         ... SCHWARTZ
   Thresh                                   ... 1.000e-09
   Tcut                                     ... 1.000e-10
   Tpresel                                  ... 1.000e-10 
Coulomb Range Separation                    ... NOT USED
Exchange Range Separation                   ... NOT USED
Multipole approximations                    ... NOT USED
Finite Nucleus Model                        ... NOT USED
CABS basis                                  ... NOT available
Auxiliary Coulomb fitting basis             ... AVAILABLE
   # of basis functions in Aux-J            ...    398
   # of shells in Aux-J                     ...    130
   Maximum angular momentum in Aux-J        ...      4
Auxiliary J/K fitting basis                 ... NOT available
Auxiliary Correlation fitting basis         ... NOT available
Auxiliary 'external' fitting basis          ... NOT available

Checking pre-screening integrals            ... done (  0.0 sec) Dimension = 52
Check shell pair data                       ... done (  0.0 sec)
Shell pair information
Shell pair cut-off parameter TPreSel        ...   1.0e-10
Total number of shell pairs                 ...      1378
Shell pairs after pre-screening             ...      1323
Total number of primitive shell pairs       ...      5566
Primitive shell pairs kept                  ...      3867
          la=0 lb=0:    467 shell pairs
          la=1 lb=0:    422 shell pairs
          la=1 lb=1:    104 shell pairs
          la=2 lb=0:    207 shell pairs
          la=2 lb=1:     96 shell pairs
          la=2 lb=2:     27 shell pairs

Calculating one electron integrals          ... done (  0.0 sec)
Calculating RI/J V-Matrix + Cholesky decomp.... done (  0.1 sec)
Calculating Nuclear repulsion               ... done (  0.0 sec) ENN=    357.148830546493 Eh

Diagonalization of the overlap matrix:
Smallest eigenvalue                        ... 2.301e-03
Time for diagonalization                   ...    0.001 sec
Threshold for overlap eigenvalues          ... 1.000e-07
Number of eigenvalues below threshold      ... 0
Time for construction of square roots      ...    0.014 sec
Total time needed                          ...    0.023 sec

-------------------
DFT GRID GENERATION
-------------------

General Integration Accuracy     IntAcc      ... 4.159
Radial Grid Type                 RadialGrid  ... OptM3 with GC (2021)
Angular Grid (max. ang.)         AngularGrid ... 3 (Lebedev-194)
Angular grid pruning method      GridPruning ... 4 (adaptive)
Weight generation scheme         WeightScheme... mBecke (2022)
Basis function cutoff            BFCut       ... 1.0000e-10
Integration weight cutoff        WCut        ... 1.0000e-14
Partially contracted basis set               ... off
Rotationally invariant grid construction     ... off
Angular grids for H and He will be reduced by one unit

Total number of grid points                  ...    30239
Total number of batches                      ...      479
Average number of points per batch           ...       63
Average number of grid points per atom       ...     2520
Initializing property integral containers    ... done (  0.0 sec)

SHARK setup successfully completed in   0.5 seconds

Maximum memory used throughout the entire STARTUP-calculation: 15.3 MB
-------------------------------------------------------------------------------
                                 ORCA GUESS
                   Start orbitals & Density for SCF / CASSCF
-------------------------------------------------------------------------------

------------
SCF SETTINGS
------------
Hamiltonian:
 Density Functional     Method          .... DFT(GTOs)
 Exchange Functional    Exchange        .... PBE
   PBE kappa parameter   XKappa         ....  0.804000
   PBE mue parameter    XMuePBE         ....  0.219520
 Correlation Functional Correlation     .... PBE
   PBE beta parameter  CBetaPBE         ....  0.066725
 LDA part of GGA corr.  LDAOpt          .... PW91-LDA
 Gradients option       PostSCFGGA      .... off
   NL short-range parameter             ....  6.400000
 RI-approximation to the Coulomb term is turned on
   Number of AuxJ basis functions       .... 398


General Settings:
 Integral files         IntName         .... sp
 Hartree-Fock type      HFTyp           .... RHF
 Total Charge           Charge          ....    0
 Multiplicity           Mult            ....    1
 Number of Electrons    NEL             ....   58
 Basis Dimension        Dim             ....  108
 Nuclear Repulsion      ENuc            ....    357.1488305465 Eh

Convergence Acceleration:
 AO-DIIS                CNVDIIS         .... on
   Start iteration      DIISMaxIt       ....    12
   Startup error        DIISStart       ....  0.200000
   # of expansion vecs  DIISMaxEq       ....     5
   Bias factor          DIISBfac        ....   1.050
   Max. coefficient     DIISMaxC        ....  10.000
 MO-DIIS                CNVKDIIS        .... off
 Trust-Rad. Augm. Hess. CNVTRAH         .... auto
   Auto Start mean grad. ratio tolernc. ....  1.125000
   Auto Start start iteration           ....    50
   Auto Start num. interpolation iter.  ....    10
   Max. Number of Micro iterations      ....    24
   Max. Number of Macro iterations      .... Maxiter - #DIIS iter
   Number of Davidson start vectors     ....     2
   Converg. threshold    (grad. norm)   ....   1.000e-04
   Grad. Scal. Fac. for Micro threshold ....   0.100
   Minimum threshold for Micro iter.    ....   1.000e-02
   NR start threshold (gradient norm)   ....   1.000e-04
   Initial trust radius                 ....   0.400
   Minimum AH scaling param. (alpha)    ....   1.000
   Maximum AH scaling param. (alpha)    .... 1000.000
   Quad. conv. algorithm                .... NR
   White noise on init. David. guess    .... on
   Maximum white noise                  ....   0.010
   Pseudo random numbers                .... off
   Inactive MOs                         .... canonical
   Orbital update algorithm             .... Taylor
   Preconditioner                       .... Diag
   Full preconditioner red. dimension   ....   250
 SOSCF                  CNVSOSCF        .... on
   Start iteration      SOSCFMaxIt      ....   150
   Startup grad/error   SOSCFStart      ....  0.003300
   Hessian update       SOSCFHessUp     .... L-BFGS
 Level Shifting         CNVShift        .... on
   Level shift para.    LevelShift      ....    0.2500
   Turn off err/grad.   ShiftErr        ....    0.0010
 Zerner damping         CNVZerner       .... off
 Static damping         CNVDamp         .... on
   Fraction old density DampFac         ....    0.7000
   Max. Damping (<1)    DampMax         ....    0.9800
   Min. Damping (>=0)   DampMin         ....    0.0000
   Turn off err/grad.   DampErr         ....    0.1000

SCF Procedure:
 Maximum # iterations   MaxIter         ....   125
 SCF integral mode      SCFMode         .... Direct
   Integral package                     .... SHARK and LIBINT hybrid scheme
 Reset frequency        DirectResetFreq ....    20
 Integral Threshold     Thresh          ....  1.000e-09 Eh
 Primitive CutOff       TCut            ....  1.000e-10 Eh

Convergence Tolerance:
 Convergence Check Mode ConvCheckMode   .... Total+1el-Energy
 Convergence forced     ConvForced      .... 0
 Energy Change          TolE            ....  1.000e-05 Eh
 1-El. energy change                    ....  1.000e-02 Eh
 Orbital Gradient       TolG            ....  1.000e-04
 Orbital Rotation angle TolX            ....  1.000e-04
 DIIS Error             TolErr          ....  5.000e-04

------------------------------
INITIAL GUESS: MODEL POTENTIAL
------------------------------
Loading Hartree-Fock densities                     ... done
Calculating cut-offs                               ... done
Initializing the effective Hamiltonian             ... done
Setting up the integral package (SHARK)            ... done
Starting the Coulomb interaction                   ... done (   0.1 sec)
Making the grid                                    ... done (   0.1 sec)
Mapping shells                                     ... done
Starting the XC term evaluation                    ... done (   0.1 sec)
  promolecular density results
     # of electrons  =     57.997462568
     EX              =    -54.991738607
     EC              =     -1.984658173
     EX+EC           =    -56.976396780
Transforming the Hamiltonian                       ... done (   0.0 sec)
Diagonalizing the Hamiltonian                      ... done (   0.0 sec)
Back transforming the eigenvectors                 ... done (   0.0 sec)
Now organizing SCF variables                       ... done
                      ------------------
                      INITIAL GUESS DONE (   0.3 sec)
                      ------------------
             **** ENERGY FILE WAS UPDATED (sp.en.tmp) ****
Finished Guess after   0.5 sec
Maximum memory used throughout the entire GUESS-calculation: 12.0 MB

-------------------------------------------------------------------------------------------
                                      ORCA LEAN-SCF
                              memory conserving SCF solver
-------------------------------------------------------------------------------------------

----------------------------------------D-I-I-S--------------------------------------------
Iteration    Energy (Eh)           Delta-E    RMSDP     MaxDP     DIISErr   Damp  Time(sec)
-------------------------------------------------------------------------------------------
               ***  Starting incremental Fock matrix formation  ***
    1    -491.0186496408621224     0.00e+00  5.11e-03  1.05e-01  2.19e-01  0.700   0.5
    2    -491.1040963441417944    -8.54e-02  2.97e-03  4.91e-02  8.05e-02  0.700   0.5
                               ***Turning on AO-DIIS***
    3    -491.1294751166469723    -2.54e-02  9.63e-04  1.33e-02  1.97e-02  0.700   0.5
    4    -491.1466210406787241    -1.71e-02  1.29e-03  1.97e-02  7.72e-03  0.000   0.5
    5    -491.1872229364751092    -4.06e-02  3.94e-04  5.05e-03  4.95e-03  0.000   0.4
                              *** Initializing SOSCF ***
---------------------------------------S-O-S-C-F--------------------------------------
Iteration    Energy (Eh)           Delta-E    RMSDP     MaxDP     MaxGrad    Time(sec)
--------------------------------------------------------------------------------------
    6    -491.1873961267790492    -1.73e-04  1.32e-04  1.62e-03  9.47e-04     0.5
               *** Restarting incremental Fock matrix formation ***
    7    -491.1874051245432611    -9.00e-06  8.27e-05  1.10e-03  2.60e-04     0.5
    8    -491.1874033685220411     1.76e-06  4.51e-05  7.17e-04  4.08e-04     0.4
                 **** Energy Check signals convergence ****

               *****************************************************
               *                     SUCCESS                       *
               *           SCF CONVERGED AFTER   8 CYCLES          *
               *****************************************************

             **** ENERGY FILE WAS UPDATED (sp.en.tmp) ****

----------------
TOTAL SCF ENERGY
----------------

Total Energy       :       -491.18740336852204 Eh          -13365.88875 eV

Components:
Nuclear Repulsion  :        357.14883054649317 Eh            9718.51376 eV
Electronic Energy  :       -848.33623391501521 Eh          -23084.40251 eV
One Electron Energy:      -1388.16453895450854 Eh          -37773.87749 eV
Two Electron Energy:        539.82830503949333 Eh           14689.47498 eV

Virial components:
Potential Energy   :       -979.41077946252335 Eh          -26651.12223 eV
Kinetic Energy     :        488.22337609400125 Eh           13285.23347 eV
Virial Ratio       :          2.00607104743373

DFT components:
N(Alpha)           :       29.000190382135 electrons
N(Beta)            :       29.000190382135 electrons
N(Total)           :       58.000380764271 electrons
E(X)               :      -55.617606512330 Eh       
E(C)               :       -1.993689505792 Eh       
E(XC)              :      -57.611296018122 Eh       

---------------
SCF CONVERGENCE
---------------

  Last Energy change         ...   -1.7560e-06  Tolerance :   1.0000e-05
  Last MAX-Density change    ...    7.1678e-04  Tolerance :   1.0000e-03
  Last RMS-Density change    ...    4.5051e-05  Tolerance :   1.0000e-04
  Last DIIS Error            ...    9.4744e-04  Tolerance :   5.0000e-04
  Last Orbital Gradient      ...    4.0811e-04  Tolerance :   1.0000e-04
  Last Orbital Rotation      ...    2.1915e-04  Tolerance :   1.0000e-04


----------------
ORBITAL ENERGIES
----------------

  NO   OCC          E(Eh)            E(eV) 
   0   2.0000     -24.285377      -660.8387 
   1   2.0000     -24.284074      -660.8033 
   2   2.0000     -24.283351      -660.7836 
   3   2.0000     -18.772108      -510.8150 
   4   2.0000     -10.116036      -275.2713 
   5   2.0000      -9.969737      -271.2903 
   6   2.0000      -9.892464      -269.1876 
   7   2.0000      -1.187979       -32.3265 
   8   2.0000      -1.095178       -29.8013 
   9   2.0000      -1.094025       -29.7699 
  10   2.0000      -0.950474       -25.8637 
  11   2.0000      -0.714648       -19.4466 
  12   2.0000      -0.627653       -17.0793 
  13   2.0000      -0.569142       -15.4871 
  14   2.0000      -0.528756       -14.3882 
  15   2.0000      -0.522178       -14.2092 
  16   2.0000      -0.513484       -13.9726 
  17   2.0000      -0.470340       -12.7986 
  18   2.0000      -0.399219       -10.8633 
  19   2.0000      -0.396486       -10.7889 
  20   2.0000      -0.386872       -10.5273 
  21   2.0000      -0.372107       -10.1255 
  22   2.0000      -0.363831        -9.9003 
  23   2.0000      -0.350823        -9.5464 
  24   2.0000      -0.350154        -9.5282 
  25   2.0000      -0.334349        -9.0981 
  26   2.0000      -0.330727        -8.9995 
  27   2.0000      -0.297970        -8.1082 
  28   2.0000      -0.244097        -6.6422 
  29   0.0000       0.016099         0.4381 
  30   0.0000       0.054779         1.4906 
  31   0.0000       0.083161         2.2629 
  32   0.0000       0.095458         2.5975 
  33   0.0000       0.101412         2.7595 
  34   0.0000       0.120257         3.2724 
  35   0.0000       0.125567         3.4169 
  36   0.0000       0.179981         4.8975 
  37   0.0000       0.193685         5.2704 
  38   0.0000       0.200945         5.4680 
  39   0.0000       0.235465         6.4073 
*Only the first 10 virtual orbitals were printed.

                    ********************************
                    * MULLIKEN POPULATION ANALYSIS *
                    ********************************

-----------------------
MULLIKEN ATOMIC CHARGES
-----------------------
   0 C :   -0.257074
   1 C :   -0.037745
   2 H :    0.086852
   3 C :    0.385332
   4 F :   -0.152805
   5 F :   -0.136430
   6 F :   -0.143895
   7 O :   -0.412183
   8 H :    0.121497
   9 H :    0.117131
  10 H :    0.120658
  11 H :    0.308661
Sum of atomic charges:   -0.0000000

--------------------------------
MULLIKEN REDUCED ORBITAL CHARGES
--------------------------------
  0 C s       :     3.092157  s :     3.092157
      pz      :     0.999908  p :     3.137896
      px      :     1.056316
      py      :     1.081672
      dz2     :     0.005246  d :     0.027021
      dxz     :     0.004863
      dyz     :     0.005888
      dx2y2   :     0.008945
      dxy     :     0.002080

  1 C s       :     3.093955  s :     3.093955
      pz      :     0.917680  p :     2.872582
      px      :     0.984697
      py      :     0.970205
      dz2     :     0.016492  d :     0.071208
      dxz     :     0.014741
      dyz     :     0.015396
      dx2y2   :     0.018872
      dxy     :     0.005707

  2 H s       :     0.913148  s :     0.913148

  3 C s       :     2.997174  s :     2.997174
      pz      :     0.735946  p :     2.443998
      px      :     0.962514
      py      :     0.745539
      dz2     :     0.034696  d :     0.173496
      dxz     :     0.034007
      dyz     :     0.041048
      dx2y2   :     0.036119
      dxy     :     0.027626

  4 F s       :     3.893302  s :     3.893302
      pz      :     1.633850  p :     5.251859
      px      :     1.744351
      py      :     1.873657
      dz2     :     0.001956  d :     0.007644
      dxz     :     0.002851
      dyz     :     0.001218
      dx2y2   :     0.000897
      dxy     :     0.000723

  5 F s       :     3.892214  s :     3.892214
      pz      :     1.852564  p :     5.236218
      px      :     1.872781
      py      :     1.510873
      dz2     :     0.001030  d :     0.007998
      dxz     :     0.000288
      dyz     :     0.002038
      dx2y2   :     0.002708
      dxy     :     0.001933

  6 F s       :     3.892384  s :     3.892384
      pz      :     1.655317  p :     5.243703
      px      :     1.841611
      py      :     1.746775
      dz2     :     0.001661  d :     0.007807
      dxz     :     0.001587
      dyz     :     0.002575
      dx2y2   :     0.000949
      dxy     :     0.001034

  7 O s       :     3.787781  s :     3.787781
      pz      :     1.181086  p :     4.608982
      px      :     1.770015
      py      :     1.657880
      dz2     :     0.002259  d :     0.015420
      dxz     :     0.003915
      dyz     :     0.004649
      dx2y2   :     0.002026
      dxy     :     0.002571

  8 H s       :     0.878503  s :     0.878503

  9 H s       :     0.882869  s :     0.882869

 10 H s       :     0.879342  s :     0.879342

 11 H s       :     0.691339  s :     0.691339


------------------------
MULLIKEN OVERLAP CHARGES
------------------------
B(  0-C ,  1-C ) :   0.5317 B(  0-C ,  2-H ) :  -0.0605 B(  0-C ,  3-C ) :  -0.0507 
B(  0-C ,  7-O ) :  -0.1287 B(  0-C ,  8-H ) :   0.7132 B(  0-C ,  9-H ) :   0.6962 
B(  0-C , 10-H ) :   0.6952 B(  1-C ,  2-H ) :   0.6113 B(  1-C ,  3-C ) :   0.5355 
B(  1-C ,  4-F ) :  -0.1429 B(  1-C ,  5-F ) :  -0.1224 B(  1-C ,  6-F ) :  -0.1366 
B(  1-C ,  7-O ) :   0.5635 B(  1-C , 11-H ) :  -0.0813 B(  2-H ,  7-O ) :  -0.0547 
B(  3-C ,  4-F ) :   0.7374 B(  3-C ,  5-F ) :   0.7292 B(  3-C ,  6-F ) :   0.7049 
B(  4-F ,  5-F ) :  -0.0983 B(  4-F ,  6-F ) :  -0.0955 B(  5-F ,  6-F ) :  -0.0951 
B(  7-O , 11-H ) :   0.5269 


                     *******************************
                     * LOEWDIN POPULATION ANALYSIS *
                     *******************************

----------------------
LOEWDIN ATOMIC CHARGES
----------------------
   0 C :   -0.340244
   1 C :   -0.097141
   2 H :    0.114740
   3 C :    0.095817
   4 F :   -0.059628
   5 F :   -0.040787
   6 F :   -0.051355
   7 O :   -0.309810
   8 H :    0.132333
   9 H :    0.131422
  10 H :    0.132421
  11 H :    0.292230

-------------------------------
LOEWDIN REDUCED ORBITAL CHARGES
-------------------------------
  0 C s       :     2.951274  s :     2.951274
      pz      :     1.078764  p :     3.321304
      px      :     1.104864
      py      :     1.137677
      dz2     :     0.013484  d :     0.067665
      dxz     :     0.013645
      dyz     :     0.013926
      dx2y2   :     0.021828
      dxy     :     0.004783

  1 C s       :     2.895898  s :     2.895898
      pz      :     0.966495  p :     3.036813
      px      :     1.034136
      py      :     1.036182
      dz2     :     0.035542  d :     0.164430
      dxz     :     0.035922
      dyz     :     0.034503
      dx2y2   :     0.047344
      dxy     :     0.011119

  2 H s       :     0.885260  s :     0.885260

  3 C s       :     2.881582  s :     2.881582
      pz      :     0.815711  p :     2.650129
      px      :     1.018210
      py      :     0.816207
      dz2     :     0.074255  d :     0.372472
      dxz     :     0.072490
      dyz     :     0.088234
      dx2y2   :     0.085692
      dxy     :     0.051800

  4 F s       :     3.736612  s :     3.736612
      pz      :     1.669862  p :     5.310408
      px      :     1.762207
      py      :     1.878339
      dz2     :     0.003075  d :     0.012608
      dxz     :     0.005411
      dyz     :     0.001771
      dx2y2   :     0.001383
      dxy     :     0.000968

  5 F s       :     3.732185  s :     3.732185
      pz      :     1.857278  p :     5.295373
      px      :     1.873123
      py      :     1.564972
      dz2     :     0.001740  d :     0.013229
      dxz     :     0.000407
      dyz     :     0.003115
      dx2y2   :     0.004976
      dxy     :     0.002991

  6 F s       :     3.735049  s :     3.735049
      pz      :     1.689433  p :     5.303396
      px      :     1.845735
      py      :     1.768228
      dz2     :     0.002356  d :     0.012910
      dxz     :     0.002682
      dyz     :     0.004818
      dx2y2   :     0.001349
      dxy     :     0.001705

  7 O s       :     3.533172  s :     3.533172
      pz      :     1.259003  p :     4.749496
      px      :     1.777734
      py      :     1.712759
      dz2     :     0.005099  d :     0.027142
      dxz     :     0.007215
      dyz     :     0.008990
      dx2y2   :     0.002507
      dxy     :     0.003332

  8 H s       :     0.867667  s :     0.867667

  9 H s       :     0.868578  s :     0.868578

 10 H s       :     0.867579  s :     0.867579

 11 H s       :     0.707770  s :     0.707770


---------------------------------
LOEWDIN BOND ORDERS (THRESH 0.050000)
---------------------------------
B(  0-C ,  1-C ) :   1.0993 B(  0-C ,  3-C ) :   0.0651 B(  0-C ,  7-O ) :   0.0615 
B(  0-C ,  8-H ) :   0.9309 B(  0-C ,  9-H ) :   0.9290 B(  0-C , 10-H ) :   0.9293 
B(  1-C ,  2-H ) :   0.8683 B(  1-C ,  3-C ) :   1.0061 B(  1-C ,  4-F ) :   0.0641 
B(  1-C ,  5-F ) :   0.0603 B(  1-C ,  6-F ) :   0.0669 B(  1-C ,  7-O ) :   1.2378 
B(  3-C ,  4-F ) :   1.3088 B(  3-C ,  5-F ) :   1.3333 B(  3-C ,  6-F ) :   1.3149 
B(  3-C ,  7-O ) :   0.0965 B(  4-F ,  5-F ) :   0.0778 B(  4-F ,  6-F ) :   0.0767 
B(  5-F ,  6-F ) :   0.0782 B(  7-O , 11-H ) :   0.8793 

------------------------------------------
LOEWDIN REDUCED ORBITAL POPULATIONS PER MO
-------------------------------------------
THRESHOLD FOR PRINTING IS 0.1%%
                      0         1         2         3         4         5   
                 -24.28538 -24.28407 -24.28335 -18.77211 -10.11604  -9.96974
                   2.00000   2.00000   2.00000   2.00000   2.00000   2.00000
                  --------  --------  --------  --------  --------  --------
 1 C  s               0.0       0.0       0.0       0.0       0.0      99.6
 1 C  px              0.0       0.0       0.0       0.0       0.1       0.0
 3 C  s               0.0       0.0       0.0       0.0      99.5       0.0
 3 C  px              0.0       0.0       0.0       0.0       0.0       0.1
 4 F  s               0.0      99.8       0.1       0.0       0.0       0.0
 5 F  s               0.0       0.1      99.8       0.0       0.0       0.0
 6 F  s              99.9       0.0       0.0       0.0       0.0       0.0
 7 O  s               0.0       0.0       0.0      99.9       0.0       0.0

                      6         7         8         9        10        11   
                  -9.89246  -1.18798  -1.09518  -1.09403  -0.95047  -0.71465
                   2.00000   2.00000   2.00000   2.00000   2.00000   2.00000
                  --------  --------  --------  --------  --------  --------
 0 C  s              99.7       0.0       0.0       0.0       0.8      19.0
 0 C  pz              0.0       0.0       0.0       0.0       1.1       1.1
 0 C  px              0.0       0.1       0.0       0.0       0.2       1.2
 0 C  py              0.0       0.0       0.0       0.0       0.0       0.2
 1 C  s               0.0       0.9       0.0       0.0      11.0      19.7
 1 C  pz              0.1       0.1       0.1       0.1       5.7       7.1
 1 C  px              0.0       1.9       0.0       0.0       0.6       0.2
 1 C  py              0.0       0.1       0.1       0.0       2.7       0.1
 1 C  dz2             0.0       0.0       0.0       0.0       0.2       0.0
 1 C  dxz             0.0       0.0       0.0       0.0       0.1       0.1
 1 C  dyz             0.0       0.0       0.0       0.0       0.5       0.1
 2 H  s               0.0       0.2       0.0       0.0       1.2       3.9
 3 C  s               0.0      20.9       0.0       0.0       0.3       4.8
 3 C  pz              0.0       0.2       5.8      11.1       0.2       0.1
 3 C  px              0.0       3.8       0.0       1.0       1.9       8.8
 3 C  py              0.0       0.1      11.9       5.5       0.0       0.3
 3 C  dz2             0.0       0.0       0.2       0.5       0.0       0.0
 3 C  dxz             0.0       0.0       0.4       1.0       0.0       0.0
 3 C  dyz             0.0       0.0       1.4       0.0       0.0       0.0
 3 C  dx2y2           0.0       0.2       0.1       0.8       0.0       0.1
 3 C  dxy             0.0       0.0       0.3       0.2       0.0       0.0
 4 F  s               0.0      21.3       5.3      47.4       0.3       0.6
 4 F  pz              0.0       1.4       0.0       0.5       0.0       0.2
 4 F  px              0.0       0.5       0.1       0.4       0.0       0.7
 4 F  py              0.0       0.1       0.1       0.0       0.0       0.0
 5 F  s               0.0      21.7      22.9      28.7       0.2       1.1
 5 F  pz              0.0       0.1       0.2       0.0       0.0       0.1
 5 F  px              0.0       0.0       0.0       0.1       0.0       0.6
 5 F  py              0.0       1.9       0.3       0.5       0.0       0.7
 6 F  s               0.0      22.0      49.7       2.0       0.0       1.5
 6 F  pz              0.0       1.1       0.6       0.0       0.0       0.5
 6 F  px              0.0       0.1       0.2       0.0       0.0       0.9
 6 F  py              0.0       0.8       0.2       0.1       0.0       0.2
 7 O  s               0.0       0.0       0.0       0.0      57.6       5.4
 7 O  pz              0.0       0.0       0.0       0.0       0.0       5.9
 7 O  px              0.0       0.0       0.0       0.0       1.2       0.1
 7 O  py              0.0       0.0       0.0       0.0       2.2       0.2
 8 H  s               0.1       0.0       0.0       0.0       0.1       3.5
 9 H  s               0.1       0.0       0.0       0.0       0.1       3.8
10 H  s               0.1       0.0       0.0       0.0       0.1       3.4
11 H  s               0.0       0.0       0.0       0.0      11.3       3.4

                     12        13        14        15        16        17   
                  -0.62765  -0.56914  -0.52876  -0.52218  -0.51348  -0.47034
                   2.00000   2.00000   2.00000   2.00000   2.00000   2.00000
                  --------  --------  --------  --------  --------  --------
 0 C  s              16.3       8.8       0.2       0.3       1.1       0.1
 0 C  pz              0.1       2.1       0.9       0.1       3.7       0.5
 0 C  px              0.4       1.2       0.1       1.6       0.0       0.1
 0 C  py              0.0       0.3       0.6       0.0       0.0       8.4
 1 C  s               0.3       6.2       0.1       0.1       1.1       2.8
 1 C  pz              1.5       1.7       1.1       1.4       1.6       0.2
 1 C  px             11.1       1.7       1.4       1.5       8.0       2.6
 1 C  py              0.2       1.3       6.8       0.6       0.3      25.5
 1 C  dz2             0.1       0.1       0.0       0.0       0.0       0.0
 1 C  dxz             0.1       0.0       0.0       0.1       0.1       0.0
 1 C  dyz             0.0       0.0       0.1       0.0       0.1       0.1
 1 C  dx2y2           0.1       0.0       0.0       0.0       0.1       0.1
 1 C  dxy             0.1       0.0       0.0       0.1       0.2       0.1
 2 H  s               0.1       3.6       1.3       0.5       0.2      16.2
 3 C  s              12.1       1.9       0.0       0.1       0.4       0.3
 3 C  pz              0.4       1.4       1.5       9.9       6.3       0.1
 3 C  px              1.5       9.0       0.5       6.1       5.4       2.1
 3 C  py              0.2       0.8      12.3       3.0       1.1       2.2
 3 C  dxz             0.0       0.0       0.0       0.1       0.1       0.0
 3 C  dxy             0.0       0.0       0.0       0.0       0.0       0.5
 4 F  s               5.0       1.0       0.1       5.4       0.5       0.0
 4 F  pz              6.1       7.0       0.1      25.9       0.1       0.0
 4 F  px              5.1       0.0       0.0       9.6       8.3       2.0
 4 F  py              0.3       1.0       6.2       0.4       1.6       1.9
 5 F  s               3.1       3.1       3.4       1.9       0.1       0.3
 5 F  pz              0.9       0.3       6.3       0.8       3.6       0.5
 5 F  px              0.5       0.3       0.6       6.0       2.7       3.6
 5 F  py              6.9      13.0      13.5      10.7       0.1       7.9
 6 F  s               3.4       2.2       3.1       0.2       2.3       0.1
 6 F  pz              5.4       4.6      12.2       1.2       9.9       2.4
 6 F  px              1.3       0.0       5.8       4.6       0.0       1.9
 6 F  py              2.4       7.1       1.4       4.4      10.4       0.1
 7 O  s               0.2       1.2       0.0       0.0       0.1       1.0
 7 O  pz              0.0       6.2      15.0       1.3      18.6       6.1
 7 O  px              0.6       0.2       0.0       0.1       2.1       0.1
 7 O  py              0.0       0.9       0.0       0.3       0.6       4.5
 7 O  dyz             0.0       0.1       0.1       0.0       0.1       0.0
 8 H  s               4.4       3.1       0.0       0.0       0.7       3.5
 9 H  s               4.3       3.1       0.6       0.0       2.1       0.1
10 H  s               5.0       3.4       0.0       0.7       0.1       0.1
11 H  s               0.0       2.0       4.4       0.5       5.8       1.7

                     18        19        20        21        22        23   
                  -0.39922  -0.39649  -0.38687  -0.37211  -0.36383  -0.35082
                   2.00000   2.00000   2.00000   2.00000   2.00000   2.00000
                  --------  --------  --------  --------  --------  --------
 0 C  s               0.2       0.0       0.1       0.2       0.0       0.0
 0 C  pz              2.2       0.3       0.6      14.8      16.4       0.7
 0 C  px              2.6       0.0      25.5       2.8       0.8       0.0
 0 C  py              0.7       0.5       0.0       3.1      11.2      22.7
 0 C  dz2             0.0       0.0       0.1       0.0       0.1       0.1
 0 C  dxz             0.1       0.0       0.2       0.0       0.1       0.0
 0 C  dyz             0.0       0.0       0.0       0.0       0.3       0.1
 0 C  dx2y2           0.0       0.0       0.0       0.2       0.0       0.1
 1 C  s               0.1       0.0       1.0       0.3       0.7       0.0
 1 C  pz              6.5       0.0       9.4       4.4       2.5       0.2
 1 C  px              0.4       0.0       0.0       6.2       0.1       0.1
 1 C  py              0.2       0.1       0.7       0.1       0.2       0.2
 1 C  dz2             0.0       0.0       0.1       0.1       0.1       0.0
 1 C  dxz             0.0       0.0       0.0       0.0       0.2       0.0
 1 C  dyz             0.0       0.1       0.0       0.0       0.4       0.1
 1 C  dx2y2           0.0       0.0       0.0       0.1       0.0       0.0
 2 H  s               0.1       0.4       0.2       0.1       0.2       0.5
 3 C  s               0.0       0.0       0.1       0.1       0.0       0.0
 3 C  pz              0.3       0.0       1.9       0.4       0.2       0.1
 3 C  px              0.0       0.0       0.0       0.3       0.1       0.0
 3 C  py              0.0       1.5       0.1       0.1       0.6       0.6
 3 C  dz2             1.2       0.9       0.0       0.3       0.0       0.1
 3 C  dxz             0.2       0.0       0.3       0.6       0.1       0.1
 3 C  dyz             0.9       1.2       0.3       0.1       0.2       0.1
 3 C  dx2y2           0.1       0.1       1.2       0.3       0.2       0.0
 3 C  dxy             0.0       0.5       0.0       0.0       0.0       0.6
 4 F  pz              1.4       2.8      11.3       0.4       3.7       0.7
 4 F  px             20.5       1.7       1.0      10.2       0.5       0.7
 4 F  py              2.8      34.0       0.3       0.8       6.7       0.3
 5 F  pz             25.3       1.3      11.5       2.3       0.6       3.2
 5 F  px              0.2      16.6       1.4       4.4       0.3      15.7
 5 F  py              1.3       4.2       0.4       0.4       3.3       7.3
 6 F  pz              9.7       2.7       9.2       3.1       1.2       0.5
 6 F  px              2.4      20.4       3.7      11.6      12.7      13.1
 6 F  py             13.0       8.2       2.1       0.5       6.8      13.8
 7 O  s               0.7       0.1       0.4       1.6       1.1       0.2
 7 O  pz              0.5       0.7       1.0       0.5       4.5       0.3
 7 O  px              1.2       0.0       0.3      13.2       0.2       0.1
 7 O  py              3.3       0.0       2.9       4.7       0.1       0.9
 8 H  s               0.7       0.3       0.0       4.2       3.4      10.5
 9 H  s               0.2       0.7       0.2       3.6      17.3       5.6
10 H  s               1.0       0.0      12.1       3.4       0.7       0.2
11 H  s               0.0       0.2       0.1       0.1       1.8       0.1

                     24        25        26        27        28        29   
                  -0.35015  -0.33435  -0.33073  -0.29797  -0.24410   0.01610
                   2.00000   2.00000   2.00000   2.00000   2.00000   0.00000
                  --------  --------  --------  --------  --------  --------
 0 C  s               0.1       0.0       0.0       0.6       0.0       1.2
 0 C  pz              0.6       0.4       2.2       5.6       0.4       0.3
 0 C  px              1.5       0.9      12.4       3.5       0.3       0.1
 0 C  py              1.8       0.5       5.1       1.6       0.0       0.1
 0 C  dz2             0.0       0.0       0.1       0.1       0.0       0.1
 0 C  dyz             0.0       0.0       0.0       0.0       0.0       0.4
 0 C  dx2y2           0.0       0.0       0.6       0.0       0.1       0.0
 1 C  s               0.1       0.0       0.3       0.3       0.0       1.1
 1 C  pz              3.4       0.0       0.4       0.9       0.0       2.1
 1 C  px              0.1       0.4       6.3       5.9       3.0       0.1
 1 C  py              1.1       0.0       2.9       6.7       1.6       6.9
 1 C  dz2             0.0       0.0       0.0       1.0       0.0       0.6
 1 C  dxz             0.1       0.0       0.1       0.2       0.7       0.0
 1 C  dyz             0.0       0.0       0.1       0.0       0.1       0.6
 1 C  dx2y2           0.0       0.0       0.2       0.2       1.4       0.0
 2 H  s               1.1       0.0       2.7       6.7       5.0      13.2
 3 C  s               0.0       0.0       0.8       0.4       2.1       0.2
 3 C  pz              0.4       0.0       0.1       0.1       0.4       0.5
 3 C  px              0.2       0.2       3.0       1.1       5.6       0.2
 3 C  py              0.3       0.0       0.1       0.2       0.2       1.3
 3 C  dz2             0.1       0.0       0.2       0.0       0.1       0.0
 3 C  dxz             0.5       0.0       0.0       0.1       0.0       0.1
 3 C  dyz             0.0       0.0       0.0       0.0       0.0       0.1
 3 C  dx2y2           0.0       0.0       0.8       0.0       0.2       0.0
 3 C  dxy             0.2       0.0       0.0       0.1       0.0       0.3
 4 F  s               0.0       0.0       0.0       0.0       0.0       0.4
 4 F  pz             15.0       4.3       2.5       0.0       0.0       0.1
 4 F  px             10.1       2.1      11.4       1.9       1.0       0.5
 4 F  py              8.4      27.3       0.9       0.8       0.1       0.1
 5 F  s               0.0       0.0       0.0       0.0       0.0       0.3
 5 F  pz              1.8      25.1       8.9       0.1       0.0       0.4
 5 F  px             31.4       2.6       5.0       0.1       1.5       0.3
 5 F  py              3.7       1.7       0.1       0.0       0.3       0.2
 6 F  pz              3.0      16.3       0.3       0.4       0.1       0.2
 6 F  px              5.8       1.7       0.7       2.5       2.7       0.2
 6 F  py              1.0      14.3       1.1       0.5       0.0       0.0
 7 O  s               0.5       0.0       0.2       6.5       0.0       9.8
 7 O  pz              0.0       0.1       0.0       0.6       1.4       2.7
 7 O  px              0.1       0.4      11.2      12.2      45.6       2.5
 7 O  py              5.5       0.0       1.4      33.0      24.9       1.6
 7 O  dz2             0.0       0.0       0.0       0.1       0.0       0.2
 8 H  s               1.4       0.1       5.5       1.5       0.4       0.4
 9 H  s               0.2       0.7       0.7       0.1       0.1       3.4
10 H  s               0.4       0.5      11.4       0.5       0.5       1.3
11 H  s               0.1       0.0       0.2       3.6       0.0      45.4

                     30        31        32        33        34        35   
                   0.05478   0.08316   0.09546   0.10141   0.12026   0.12557
                   0.00000   0.00000   0.00000   0.00000   0.00000   0.00000
                  --------  --------  --------  --------  --------  --------
 0 C  s              14.1      12.0       0.0       0.1       0.2       0.4
 0 C  pz              0.2       3.0       2.5      11.5       0.0       2.4
 0 C  px              1.7       0.3       0.1       2.0       5.8      15.7
 0 C  py              0.2       2.3       0.8       3.5      14.6       3.4
 0 C  dz2             0.3       0.0       0.1       0.0       0.3       0.9
 0 C  dxz             0.0       0.0       0.1       0.2       0.2       0.8
 0 C  dyz             0.0       0.1       0.1       0.9       0.1       0.0
 0 C  dx2y2           0.2       0.4       0.4       0.1       1.0       0.0
 0 C  dxy             0.1       0.1       0.2       0.2       0.0       0.3
 1 C  s               3.1       3.2       0.1       2.0       3.2       2.5
 1 C  pz              3.0       0.3       4.8       0.1       3.7       1.2
 1 C  px              0.2       0.9       1.2       2.1       0.1       4.2
 1 C  py              1.8       5.3       2.7       0.9       1.2       0.2
 1 C  dz2             0.1       0.1       0.4       0.0       0.0       0.9
 1 C  dxz             1.0       0.0       1.2       0.3       0.1       1.3
 1 C  dyz             0.2       0.2       0.9       0.0       1.4       0.0
 1 C  dx2y2           0.4       0.4       0.2       0.0       0.0       0.0
 1 C  dxy             0.1       0.0       1.3       1.8       0.0       0.5
 2 H  s              12.9      24.1       3.0       4.1       8.3       1.9
 3 C  s               0.1       0.4       0.4       0.0       0.5       0.5
 3 C  pz              7.0       0.9      13.3       0.6       0.2       9.9
 3 C  px              0.1       0.1       0.2       1.9       0.5       3.9
 3 C  py              0.7       0.8      11.1      15.2       0.1       6.2
 3 C  dz2             0.0       0.1       0.3       0.5       0.0       0.3
 3 C  dxz             1.0       0.2       1.8       0.2       0.1       1.3
 3 C  dyz             0.0       0.0       1.5       0.5       0.0       0.0
 3 C  dx2y2           0.3       0.1       0.0       0.6       0.0       0.7
 3 C  dxy             0.1       0.2       0.9       0.6       0.0       0.4
 4 F  s               0.5       0.2       0.4       0.6       0.1       2.0
 4 F  pz              0.1       0.3       0.4       1.3       0.0       1.9
 4 F  px              1.8       0.3       1.4       0.5       0.0       2.5
 4 F  py              0.0       0.1       1.5       1.1       0.0       0.1
 4 F  dxz             0.0       0.0       0.1       0.1       0.0       0.2
 5 F  s               0.4       0.0       0.7       1.1       0.2       0.6
 5 F  pz              0.4       0.0       2.5       0.2       0.0       0.0
 5 F  px              0.6       0.0       0.6       1.4       0.1       0.9
 5 F  py              0.6       0.3       0.4       1.3       0.0       2.3
 5 F  dyz             0.0       0.0       0.2       0.0       0.0       0.0
 5 F  dxy             0.0       0.0       0.0       0.1       0.0       0.2
 6 F  s               0.6       0.1       1.7       1.2       0.1       0.0
 6 F  pz              0.0       0.0       2.6       1.6       0.6       0.7
 6 F  px              1.0       0.0       2.0       0.5       0.1       0.6
 6 F  py              0.4       0.0       1.0       0.3       0.0       0.8
 6 F  dxz             0.0       0.0       0.1       0.0       0.0       0.0
 6 F  dyz             0.0       0.0       0.1       0.0       0.0       0.0
 7 O  s               1.6       0.8       0.1       0.5       0.6       0.2
 7 O  pz              0.1       0.1      11.6       0.2       1.7       0.1
 7 O  px              1.5       0.0       0.2       0.1       0.1       0.1
 7 O  py              2.1       0.1       0.1       0.4       1.6       0.0
 7 O  dz2             0.0       0.0       0.0       0.0       0.0       0.1
 7 O  dxz             0.0       0.0       0.1       0.0       0.0       0.0
 7 O  dyz             0.1       0.0       0.1       0.1       0.2       0.0
 8 H  s               4.8      26.2       1.5       2.6      25.9       1.9
 9 H  s               6.2      12.1       2.4      25.9       6.6       9.9
10 H  s              20.7       1.8       1.9       7.1      20.1      14.5
11 H  s               7.3       1.9      15.9       1.4       0.3       0.3

                     36        37        38        39        40        41   
                   0.17998   0.19369   0.20094   0.23546   0.32857   0.39862
                   0.00000   0.00000   0.00000   0.00000   0.00000   0.00000
                  --------  --------  --------  --------  --------  --------
 0 C  s               1.9       1.1       0.1       0.1       0.1       0.1
 0 C  pz              4.4      11.1       0.5       1.8       3.6       1.3
 0 C  px              7.5       4.5       0.1       0.8       4.2       4.8
 0 C  py              0.1       1.5       0.0       2.2       1.5      13.0
 0 C  dz2             0.2       1.1       0.8       1.0       0.1       0.1
 0 C  dxz             2.7       2.1       0.2       1.0       0.0       0.2
 0 C  dyz             0.0       0.8       0.2       0.3       0.5       0.1
 0 C  dx2y2           0.0       0.0       0.2       0.2       1.9       6.0
 0 C  dxy             0.3       0.2       0.1       0.2       0.0       0.0
 1 C  s               3.8       1.3       2.8      11.2       0.6       1.7
 1 C  pz              8.8       8.6       2.2       7.4       0.4       4.6
 1 C  px              0.7       7.3      25.4       0.0       1.2       0.2
 1 C  py              2.1       0.4       0.1      13.3       0.0       0.1
 1 C  dz2             0.1       0.6       1.0       0.1       0.0       0.0
 1 C  dxz             0.0       0.6       0.5       0.2       0.0       0.2
 1 C  dyz             0.5       0.7       0.1       3.2       0.0       0.5
 1 C  dx2y2           0.9       0.0       3.6       0.1       0.0       0.6
 1 C  dxy             0.0       0.2       0.5       0.0       0.0       0.1
 2 H  s               0.6       0.4       1.9       0.8       0.1       5.2
 3 C  s              22.0      14.3       1.9       0.8      51.3       2.3
 3 C  pz              7.6       5.1       0.2       7.1       1.7      15.0
 3 C  px              2.2       6.4      23.4       4.1      10.0      13.0
 3 C  py              0.6       0.3      10.7       6.8       0.8       0.6
 3 C  dz2             0.1       0.5       0.2       0.6       0.0       0.0
 3 C  dxz             0.2       0.3       0.5       0.0       0.0       0.1
 3 C  dyz             0.2       0.2       0.2       1.1       0.0       0.0
 3 C  dx2y2           0.2       0.0       3.2       0.5       0.3       0.2
 4 F  s               1.5       4.1       0.3       0.2       1.6       0.3
 4 F  pz              1.6       7.1       0.8       0.4       0.5       1.3
 4 F  px              0.1       1.5       0.7       0.6       0.9       2.1
 4 F  py              0.1       0.6       1.3       1.5       0.0       0.0
 4 F  dz2             0.1       0.2       0.1       0.1       0.2       0.1
 4 F  dxz             0.0       0.5       0.1       0.0       0.3       0.7
 4 F  dyz             0.0       0.0       0.2       0.0       0.1       0.0
 4 F  dxy             0.0       0.0       0.0       0.1       0.0       0.0
 5 F  s               4.5       0.6       1.5       0.3       1.0       0.0
 5 F  pz              0.1       1.8       0.4       1.4       0.3       0.5
 5 F  px              0.1       0.6       1.0       0.2       0.3       1.6
 5 F  py              6.9       1.7       3.0       0.1       2.5       0.1
 5 F  dz2             0.1       0.0       0.1       0.1       0.3       0.0
 5 F  dyz             0.0       0.2       0.1       0.1       0.2       0.0
 5 F  dx2y2           0.3       0.1       0.2       0.0       0.6       0.0
 5 F  dxy             0.0       0.0       0.1       0.1       0.1       0.0
 6 F  s               4.7       0.9       0.0       0.7       1.1       0.2
 6 F  pz              2.2       3.6       0.2       2.2       1.1       0.4
 6 F  px              0.5       0.2       1.8       0.6       0.7       0.5
 6 F  py              5.9       0.2       0.5       1.1       0.7       0.1
 6 F  dz2             0.0       0.1       0.0       0.1       0.0       0.0
 6 F  dxz             0.0       0.0       0.2       0.0       0.2       0.0
 6 F  dyz             0.3       0.1       0.0       0.2       0.7       0.0
 6 F  dxy             0.1       0.0       0.1       0.0       0.1       0.0
 7 O  s               0.0       0.2       0.3       2.9       0.1       0.2
 7 O  pz              0.1       0.0       0.3       8.7       0.4       1.1
 7 O  px              0.1       0.4       2.1       0.5       0.5       0.3
 7 O  py              0.5       0.3       0.9       2.6       0.0       0.2
 7 O  dz2             0.2       0.1       0.0       0.4       0.0       0.0
 7 O  dxz             0.0       0.0       0.1       0.4       0.0       0.2
 7 O  dyz             0.0       0.0       0.2       0.4       0.1       0.4
 7 O  dx2y2           0.0       0.0       0.0       0.1       0.0       0.0
 7 O  dxy             0.0       0.2       0.1       0.1       0.1       0.0
 8 H  s               0.2       1.6       0.3       5.0       2.1      10.4
 9 H  s               0.3       0.9       0.8       1.7       1.4       0.1
10 H  s               1.2       2.5       1.4       0.2       2.0       7.8
11 H  s               0.4       0.0       0.1       1.8       1.0       1.4

                     42        43        44        45        46        47   
                   0.41073   0.43826   0.45873   0.49036   0.51423   0.55032
                   0.00000   0.00000   0.00000   0.00000   0.00000   0.00000
                  --------  --------  --------  --------  --------  --------
 0 C  s               0.1       3.1       2.2       0.4       1.5       6.4
 0 C  pz              6.2      23.4       6.3       0.1       6.1       2.1
 0 C  px              5.4       3.2       2.5       0.7       6.4       2.5
 0 C  py             10.3       2.4       1.0       3.1       2.4       8.3
 0 C  dz2             1.7       0.1       0.3       0.0       1.0       0.4
 0 C  dxz             0.1       0.6       0.2       0.3       0.9       0.5
 0 C  dyz             3.4       1.0       0.0       0.1       0.0       0.6
 0 C  dx2y2           0.1       0.4       0.0       0.9       0.1       0.0
 0 C  dxy             1.5       0.0       0.0       0.2       0.3       1.8
 1 C  s               4.2       0.8       7.1       4.2       2.5       2.0
 1 C  pz              1.3       4.2      15.9      21.1       6.1      11.4
 1 C  px              7.0       5.0       4.6       8.2      18.1       9.8
 1 C  py              1.3       2.0       3.1       2.3       0.5       1.1
 1 C  dz2             0.6       2.2       0.3       0.0       0.0       0.1
 1 C  dxz             0.0       1.2       0.4       0.1       0.3       0.1
 1 C  dyz             0.2       0.2       0.3       0.1       0.3       0.2
 1 C  dx2y2           0.1       1.1       0.0       0.7       0.4       0.3
 1 C  dxy             0.8       0.6       0.1       0.1       0.0       0.0
 2 H  s               2.7       4.3       0.8       2.9       6.6       0.4
 3 C  s               0.3       0.4       0.0       0.8       3.9       0.9
 3 C  pz              1.6       0.9      13.6      17.4       6.2       9.7
 3 C  px             10.0       1.1       0.0       6.6      10.0       4.6
 3 C  py              7.6      23.9      20.9       0.9       9.8       0.5
 3 C  dz2             0.0       0.4       0.0       0.1       0.1       0.1
 3 C  dx2y2           0.2       0.2       0.0       0.9       0.1       0.3
 3 C  dxy             0.0       0.0       0.0       0.1       0.1       0.2
 4 F  s               0.2       0.0       0.0       0.3       0.4       0.6
 4 F  pz              0.2       0.4       0.8       1.4       0.6       0.6
 4 F  px              0.2       0.8       0.1       0.2       0.1       1.6
 4 F  py              0.3       1.2       0.8       0.5       0.6       0.5
 4 F  dz2             0.1       0.1       0.0       0.1       0.0       0.1
 4 F  dxz             0.2       0.0       0.1       0.0       0.0       0.0
 4 F  dx2y2           0.0       0.0       0.0       0.1       0.1       0.0
 5 F  s               0.2       0.2       0.2       0.0       0.3       0.1
 5 F  pz              0.2       0.1       0.6       1.8       0.3       0.3
 5 F  px              0.1       0.1       0.0       0.8       0.5       1.3
 5 F  py              0.5       2.2       0.9       0.3       0.2       0.0
 5 F  dx2y2           0.0       0.4       0.1       0.0       0.2       0.0
 5 F  dxy             0.0       0.2       0.0       0.1       0.0       0.0
 6 F  s               0.1       0.1       0.6       0.1       0.1       0.0
 6 F  pz              0.2       0.1       0.7       1.2       0.2       0.3
 6 F  px              0.6       0.1       0.1       3.0       0.2       0.3
 6 F  py              0.2       0.4       1.5       0.3       1.2       0.0
 6 F  dxz             0.0       0.0       0.1       0.2       0.0       0.0
 6 F  dyz             0.0       0.1       0.3       0.1       0.1       0.0
 7 O  s               0.1       1.0       0.1       0.5       0.1       0.7
 7 O  pz              2.3       0.5       0.3       3.6       0.8       1.3
 7 O  px              0.4       0.0       0.3       2.5       1.5       6.1
 7 O  py              0.3       1.0       2.0       2.7       0.2       0.9
 7 O  dz2             0.2       0.4       1.4       0.0       0.2       0.1
 7 O  dxz             0.7       0.1       0.0       0.4       0.0       0.3
 7 O  dyz             0.8       0.1       0.5       0.8       0.0       0.7
 7 O  dx2y2           0.0       0.1       0.1       0.1       0.1       0.1
 7 O  dxy             0.0       0.0       0.2       0.0       0.2       0.1
 8 H  s               3.5       0.7       1.3       1.2       0.1       3.7
 9 H  s              12.1       4.0       0.3       0.2       4.7       1.2
10 H  s               2.5       0.1       1.5       2.2       0.0       2.6
11 H  s               6.9       2.8       4.8       2.7       3.2      11.7

                     48        49        50        51        52        53   
                   0.60262   0.61409   0.62690   0.63552   0.64644   0.66357
                   0.00000   0.00000   0.00000   0.00000   0.00000   0.00000
                  --------  --------  --------  --------  --------  --------
 0 C  s               0.7       7.0       3.0       3.8      43.9       1.5
 0 C  pz              8.5       1.8       0.5      17.5       4.9      10.8
 0 C  px              0.9       0.6       1.1       1.9      11.7      26.5
 0 C  py              0.8      18.8       2.4       2.4       0.1       7.2
 0 C  dz2             0.0       0.1       0.2       0.2       0.0       0.9
 0 C  dxz             0.4       0.5       0.0       0.9       0.0       0.1
 0 C  dyz             0.2       1.0       0.1       0.2       0.6       0.7
 0 C  dx2y2           0.0       0.6       0.1       0.6       0.2       1.1
 0 C  dxy             1.0       1.2       0.2       0.7       0.3       0.2
 1 C  s              10.6       2.3       5.0      11.8       6.0       0.4
 1 C  pz              5.6       1.1       5.4       0.3       3.9       0.5
 1 C  px             23.4       0.7       2.5       1.0       0.2       2.9
 1 C  py              3.3      28.2       7.7       6.0       1.5       0.1
 1 C  dz2             1.1       0.0       0.0       0.2       0.1       0.0
 1 C  dxz             0.0       0.2       0.2       0.1       0.0       0.2
 1 C  dyz             0.0       0.2       0.1       0.0       0.1       0.0
 1 C  dx2y2           0.7       0.7       1.0       0.1       0.0       0.2
 1 C  dxy             0.2       0.0       0.2       0.0       0.0       0.3
 2 H  s              13.2       1.2      13.4       1.5       3.4       0.3
 3 C  s               2.5       0.2       1.1       1.5       2.6       0.5
 3 C  pz              1.4       0.4       0.3       1.8       2.9       0.7
 3 C  px              0.1       0.2       1.6       5.7       5.9       1.8
 3 C  py              7.5       1.6       3.1       0.2       0.1       0.2
 3 C  dz2             0.2       0.1       0.1       0.2       0.1       0.1
 3 C  dxz             0.0       0.0       0.1       0.0       0.1       0.1
 3 C  dx2y2           0.0       0.1       0.0       0.2       0.0       0.0
 3 C  dxy             0.1       0.4       0.1       0.0       0.0       0.0
 4 F  s               0.1       0.1       0.2       0.2       0.1       0.0
 4 F  pz              0.2       0.3       0.0       0.0       0.0       0.0
 4 F  px              1.1       0.0       0.0       2.0       0.6       0.3
 4 F  py              0.7       1.5       0.5       0.0       0.0       0.0
 4 F  dyz             0.1       0.0       0.0       0.0       0.0       0.0
 5 F  s               0.4       0.0       0.7       0.1       0.2       0.2
 5 F  pz              0.6       0.0       0.0       0.2       0.1       0.4
 5 F  px              0.4       3.9       0.0       0.1       0.3       0.5
 5 F  py              0.2       0.0       0.5       0.0       0.1       0.0
 5 F  dz2             0.0       0.1       0.1       0.0       0.0       0.0
 6 F  s               0.5       0.3       0.0       0.8       0.1       0.0
 6 F  pz              0.9       0.3       0.1       1.2       0.0       0.0
 6 F  px              0.0       0.3       0.4       2.2       0.3       0.4
 6 F  py              1.7       1.1       0.0       0.0       0.1       0.2
 7 O  s               0.7       0.3       1.0       2.0       1.1       0.2
 7 O  pz              1.6       0.2       2.3       1.5       1.4       0.1
 7 O  px              0.2       0.7       3.1       0.7       0.3       1.0
 7 O  py              0.0       4.9       1.3       0.1       0.3       0.0
 7 O  dz2             0.3       0.1       0.6       0.2       0.1       0.0
 7 O  dxz             0.1       0.3       0.8       0.0       0.0       0.0
 7 O  dyz             0.2       0.0       0.4       0.0       0.0       0.0
 7 O  dxy             0.1       0.2       0.1       0.0       0.0       0.0
 8 H  s               0.2      10.7       5.0       0.4       0.5       1.3
 9 H  s               1.6       0.6       4.8      15.6       3.7      10.4
10 H  s               0.2       1.1       3.1      12.0       1.1      27.2
11 H  s               5.5       3.0      25.2       1.8       0.8       0.1

                     54        55        56        57        58        59   
                   0.67919   0.77692   0.85500   0.93710   0.98330   1.04427
                   0.00000   0.00000   0.00000   0.00000   0.00000   0.00000
                  --------  --------  --------  --------  --------  --------
 0 C  s               0.7       0.5      26.2       0.4       0.1       0.1
 0 C  pz              1.4       0.6       1.2       0.4       0.1       0.2
 0 C  px              5.4      11.8       4.3       0.3       0.6       0.0
 0 C  py             28.6       2.2       0.1       0.2       0.7       0.5
 0 C  dz2             0.3       0.1       0.1       0.0       0.3       0.1
 0 C  dxz             0.1       0.4       0.0       0.0       0.9       0.1
 0 C  dyz             0.0       0.1       0.3       0.4       0.8       0.3
 0 C  dx2y2           1.1       1.2       0.1       0.0       0.0       0.0
 0 C  dxy             0.8       0.2       0.7       0.0       0.5       0.4
 1 C  s               0.0      27.4       4.4       1.1       0.9       0.4
 1 C  pz              1.2       2.9       0.3       2.5       0.0       0.2
 1 C  px              0.4       1.1       0.3       0.1       1.0       0.0
 1 C  py             21.9       2.5       0.3       0.4       0.9       0.6
 1 C  dz2             0.1       1.2       0.2       0.2       0.0       0.0
 1 C  dxz             0.0       0.4       0.1       0.0       0.3       0.0
 1 C  dyz             0.0       0.3       0.1       0.6       0.7       0.3
 1 C  dx2y2           0.8       0.3       0.0       0.1       0.7       0.0
 1 C  dxy             0.1       0.0       0.0       0.7       0.6       0.3
 2 H  s               0.8       9.8       1.1       0.1       0.4       0.1
 3 C  s               0.2       7.7       3.2       0.1       1.3       0.1
 3 C  pz              0.3       1.8       3.2       0.2       0.4       0.1
 3 C  px              0.0       1.7       3.8       0.1       0.6       0.0
 3 C  py              0.4       0.3       0.2       0.2       0.7       1.1
 3 C  dz2             0.1       0.6       0.0       0.1       0.1       0.8
 3 C  dxz             0.1       0.1       0.0       0.0       1.2       0.2
 3 C  dyz             0.0       0.2       0.1       0.0       0.0       2.5
 3 C  dx2y2           0.0       0.3       0.3       0.1       0.7       0.0
 3 C  dxy             0.8       0.5       0.0       0.9       0.0       0.7
 4 F  s               0.0       0.0       3.7       0.1       1.3       0.2
 4 F  pz              0.3       0.5       1.7       0.4       0.8       3.1
 4 F  px              0.6       1.2       1.7       0.1       1.7       0.2
 4 F  py              0.6       1.6       0.5       0.0       0.0      18.5
 4 F  dxz             0.0       0.1       0.0       0.0       0.1       0.0
 4 F  dyz             0.0       0.1       0.0       0.0       0.0       0.1
 5 F  s               0.2       0.3       1.5       0.3       4.6       5.7
 5 F  pz              0.4       3.4       0.1       0.1       0.4      10.3
 5 F  px              2.0       0.3       0.0       1.8       0.0       0.6
 5 F  py              0.5       0.1       1.0       0.3       8.0      11.2
 5 F  dz2             0.0       0.1       0.0       0.0       0.0       0.1
 5 F  dyz             0.0       0.2       0.0       0.0       0.0       0.0
 5 F  dx2y2           0.1       0.1       0.0       0.1       0.0       0.1
 5 F  dxy             0.0       0.1       0.0       0.0       0.1       0.1
 6 F  s               0.1       1.8       3.2       0.5       1.0       6.3
 6 F  pz              0.1       2.7       0.5       0.0       1.2      23.7
 6 F  px              0.3       1.7       0.3       0.3       1.9       0.3
 6 F  py              0.4       0.1       1.2       0.9       0.5       4.8
 6 F  dxz             0.0       0.0       0.1       0.0       0.0       0.2
 6 F  dyz             0.0       0.1       0.0       0.0       0.0       0.2
 6 F  dx2y2           0.0       0.2       0.0       0.0       0.0       0.0
 6 F  dxy             0.0       0.2       0.0       0.0       0.0       0.1
 7 O  s               0.1       2.9       2.0      17.2       0.0       0.7
 7 O  pz              0.0       0.1       3.4      16.9       2.3       0.1
 7 O  px              0.2       1.0       3.6       8.7      41.1       2.9
 7 O  py              2.8       2.5       1.7      39.1      19.1       0.1
 7 O  dxz             0.1       0.0       0.2       0.1       0.3       0.0
 7 O  dyz             0.0       0.0       0.0       0.6       0.0       0.1
 7 O  dx2y2           0.0       0.2       0.0       0.1       0.3       0.0
[...]
 3 C  px              0.0       0.0       0.0       0.1       0.0       0.0
 3 C  py              0.1       0.0       0.0       0.0       1.3       0.1
 3 C  dz2             0.1       0.0       0.0       0.2       0.1       0.0
 3 C  dxz             0.0       0.2       0.0       2.2       0.1       0.0
 3 C  dyz             0.1       0.1       0.0       0.0       0.4       0.6
 3 C  dx2y2           0.0       0.0       0.0       0.2       0.6       0.0
 3 C  dxy             0.0       0.0       0.0       0.1       1.7       0.2
 4 F  s               0.0       0.1       0.0       0.5       0.2       0.2
 4 F  pz              0.0       0.3       0.0       0.1       0.0       0.0
 4 F  px              0.0       0.0       0.1       0.2       0.1       0.0
 4 F  py              0.0       0.0       0.0       0.0       0.3       0.1
 4 F  dz2             4.8       1.8       0.1      15.0       1.4       1.5
 4 F  dxz             3.3       0.2       2.1       3.6       5.7       0.0
 4 F  dyz            18.9       1.4       1.4       0.4       4.6       2.3
 4 F  dx2y2           7.0       9.2      17.9       9.7       2.1       0.4
 4 F  dxy            23.9       2.7       2.1       3.5      11.5       2.4
 5 F  s               0.1       0.0       0.0       0.0       0.8       0.1
 5 F  pz              0.0       0.0       0.0       0.4       0.0       0.1
 5 F  px              0.1       0.0       0.0       0.0       0.4       0.0
 5 F  py              0.3       0.0       0.0       0.0       0.0       0.0
 5 F  dz2             0.5       0.7      21.8       5.2       0.4       0.3
 5 F  dxz             1.4      43.4      10.5       5.3       5.1       1.1
 5 F  dyz             1.2       8.0       0.4       6.1       0.5       4.5
 5 F  dx2y2           2.6       3.0      11.5       0.0       3.6       0.2
 5 F  dxy             4.0       1.0       1.8       2.2      26.6       0.4
 6 F  s               0.1       0.0       0.0       0.6       0.2       0.3
 6 F  pz              0.1       0.1       0.0       0.0       0.2       0.0
 6 F  px              0.0       0.0       0.0       0.4       0.0       0.0
 6 F  py              0.1       0.1       0.0       0.0       0.2       0.0
 6 F  dz2             0.4       1.6       4.3       4.3       6.9       0.0
 6 F  dxz             4.1      13.9       3.9       8.3      13.2       0.1
 6 F  dyz             0.9       1.5       2.4       0.3       2.4       0.0
 6 F  dx2y2          18.0       4.9       8.7       6.5       2.4       0.0
 6 F  dxy             6.5       4.3       5.8      12.9       0.7       0.0
 7 O  s               0.0       0.0       0.1       0.0       0.1       4.4
 7 O  pz              0.0       0.0       0.0       0.2       0.0       3.7
 7 O  px              0.0       0.0       0.0       0.0       0.0       0.2
 7 O  py              0.0       0.0       0.0       0.0       0.0       0.6
 7 O  dz2             0.6       0.1       0.0       0.0       1.1       6.8
 7 O  dxz             0.1       0.1       0.2       4.5       1.3      12.4
 7 O  dyz             0.1       0.1       1.7       2.0       0.9      34.3
 7 O  dx2y2           0.0       0.0       0.2       0.0       0.1       1.5
 7 O  dxy             0.3       0.0       0.0       0.6       0.2       4.2
11 H  s               0.2       0.0       0.0       0.2       0.2       0.5

                    102       103       104       105       106       107   
                   3.34114   3.44030   3.45857   3.55163   3.74936   3.75674
                   0.00000   0.00000   0.00000   0.00000   0.00000   0.00000
                  --------  --------  --------  --------  --------  --------
 1 C  s               0.0       0.0       0.1       0.0       0.0       0.0
 1 C  pz              0.0       0.0       0.2       0.0       0.0       0.1
 1 C  px              0.1       0.1       0.0       0.1       0.0       0.0
 1 C  py              0.0       0.1       0.1       0.0       0.2       0.0
 1 C  dz2             0.1       0.0       0.2       0.1       0.0       0.1
 1 C  dxz             0.1       0.1       1.4       0.0       0.0       0.1
 1 C  dyz             0.0       0.1       0.7       0.0       0.0       0.1
 1 C  dx2y2           0.3       0.3       0.0       0.3       0.0       0.0
 1 C  dxy             0.1       0.3       0.5       0.1       0.2       0.0
 3 C  s               2.0       0.0       0.0       5.4       0.0       0.0
 3 C  pz              0.1       0.4       0.4       0.0       0.0       4.2
 3 C  px              2.1       0.1       0.0       1.5       0.1       0.1
 3 C  py              0.0       0.5       0.3       0.0       4.3       0.0
 3 C  dz2             1.2       7.3       0.7       1.4       3.1       0.5
 3 C  dxz             0.6       0.9       3.0       0.9       0.0       5.5
 3 C  dyz             0.0       0.3       6.1       0.1       3.8       3.2
 3 C  dx2y2           3.9       0.2       0.1       3.5       2.5       1.6
 3 C  dxy             0.4       5.9       4.6       0.3       1.2       0.0
 4 F  s               0.5       0.3       0.1       1.1       0.3       3.9
 4 F  pz              0.4       0.1       0.0       0.2       0.1       1.6
 4 F  px              0.2       0.0       0.0       0.8       0.1       0.7
 4 F  py              0.0       0.1       0.3       0.0       0.1       0.1
 4 F  dz2            21.4      14.9       0.1       0.3       0.3       9.5
 4 F  dxz             0.0       0.1       0.5      22.4       1.7      25.7
 4 F  dyz             6.3       3.0      13.9       0.5       1.9       2.5
 4 F  dx2y2           0.7       2.0       5.0       4.0       0.1       2.8
 4 F  dxy             0.0       2.3       6.6       1.6       1.5       1.0
 5 F  s               0.3       0.4       0.0       0.9       4.1       0.2
 5 F  pz              0.0       0.1       0.3       0.1       0.2       0.1
 5 F  px              0.5       0.0       0.1       0.4       0.1       0.0
 5 F  py              0.2       0.1       0.0       0.4       2.4       0.1
 5 F  dz2             4.6       0.8       6.9       1.5       8.7       0.0
 5 F  dxz             0.7       2.1       0.0       0.9       0.4       0.3
 5 F  dyz             1.6       4.6      19.8       4.0       8.2       2.5
 5 F  dx2y2          10.0       9.9       0.0       5.9      25.7       0.8
 5 F  dxy            13.8       3.9       4.6      11.3       5.3       0.1
 6 F  s               0.5       0.0       0.3       0.9       1.5       2.7
 6 F  pz              0.1       0.2       0.0       0.4       0.4       1.1
 6 F  px              0.3       0.1       0.1       0.5       0.1       0.1
 6 F  py              0.2       0.2       0.1       0.1       0.6       0.4
 6 F  dz2             0.7      29.3       0.4       1.7       0.3       5.3
 6 F  dxz             3.2       0.0       4.3      11.6       2.4       5.6
 6 F  dyz            15.4       0.2       2.8       6.9      12.8      14.9
 6 F  dx2y2           4.3       3.1       9.2       0.0       1.6       0.7
 6 F  dxy             3.1       4.9       0.2       7.5       3.4       1.8
 7 O  s               0.0       0.0       0.4       0.0       0.0       0.0
 7 O  pz              0.0       0.0       0.3       0.0       0.0       0.0
 7 O  dz2             0.0       0.1       0.6       0.0       0.0       0.0
 7 O  dxz             0.0       0.0       0.1       0.0       0.2       0.1
 7 O  dyz             0.0       0.2       3.1       0.0       0.0       0.0
 7 O  dx2y2           0.1       0.0       0.9       0.0       0.0       0.1



                      *****************************
                      * MAYER POPULATION ANALYSIS *
                      *****************************

  NA   - Mulliken gross atomic population
  ZA   - Total nuclear charge
  QA   - Mulliken gross atomic charge
  VA   - Mayer's total valence
  BVA  - Mayer's bonded valence
  FA   - Mayer's free valence

  ATOM       NA         ZA         QA         VA         BVA        FA
  0 C      6.2571     6.0000    -0.2571     3.9273     3.9273    -0.0000
  1 C      6.0377     6.0000    -0.0377     4.0464     4.0464    -0.0000
  2 H      0.9131     1.0000     0.0869     0.9538     0.9538    -0.0000
  3 C      5.6147     6.0000     0.3853     4.5108     4.5108    -0.0000
  4 F      9.1528     9.0000    -0.1528     1.2124     1.2124     0.0000
  5 F      9.1364     9.0000    -0.1364     1.2276     1.2276     0.0000
  6 F      9.1439     9.0000    -0.1439     1.2151     1.2151     0.0000
  7 O      8.4122     8.0000    -0.4122     1.9951     1.9951    -0.0000
  8 H      0.8785     1.0000     0.1215     0.9763     0.9763     0.0000
  9 H      0.8829     1.0000     0.1171     0.9672     0.9672    -0.0000
 10 H      0.8793     1.0000     0.1207     0.9599     0.9599    -0.0000
 11 H      0.6913     1.0000     0.3087     0.8845     0.8845     0.0000

  Mayer bond orders larger than 0.100000
B(  0-C ,  1-C ) :   1.0960 B(  0-C ,  8-H ) :   0.9404 B(  0-C ,  9-H ) :   0.9415 
B(  0-C , 10-H ) :   0.9416 B(  1-C ,  2-H ) :   0.8885 B(  1-C ,  3-C ) :   0.9494 
B(  1-C ,  7-O ) :   1.0638 B(  3-C ,  4-F ) :   1.1547 B(  3-C ,  5-F ) :   1.1651 
B(  3-C ,  6-F ) :   1.1456 B(  7-O , 11-H ) :   0.8418 

-------
TIMINGS
-------

Total SCF time: 0 days 0 hours 0 min 3 sec 

Total time                  ....       3.998 sec
Sum of individual times     ....       3.616 sec  ( 90.5%)

SCF preparation             ....       0.148 sec  (  3.7%)
Fock matrix formation       ....       2.945 sec  ( 73.7%)
  Startup                   ....       0.042 sec  (  1.4% of F)
  Split-RI-J                ....       0.870 sec  ( 29.6% of F)
  XC integration            ....       1.655 sec  ( 56.2% of F)
    Basis function eval.    ....       0.523 sec  ( 31.6% of XC)
    Density eval.           ....       0.217 sec  ( 13.1% of XC)
    XC-Functional eval.     ....       0.163 sec  (  9.8% of XC)
    XC-Potential eval.      ....       0.340 sec  ( 20.5% of XC)
Diagonalization             ....       0.000 sec  (  0.0%)
Density matrix formation    ....       0.132 sec  (  3.3%)
Total Energy calculation    ....       0.026 sec  (  0.6%)
Population analysis         ....       0.055 sec  (  1.4%)
Orbital Transformation      ....       0.040 sec  (  1.0%)
Orbital Orthonormalization  ....       0.000 sec  (  0.0%)
DIIS solution               ....       0.198 sec  (  5.0%)
  MO trafo                  ....       0.000 sec  (  0.0 % of DIIS)
  Orb grad                  ....       0.000 sec  (  0.0 % of DIIS)
  Energy W gradient         ....       0.000 sec  (  0.0 % of DIIS)
  DIIS error                ....       0.002 sec  (  0.9 % of DIIS)
  DIIS work                 ....       0.161 sec  ( 81.4 % of DIIS)
  Form Q                    ....       0.000 sec  (  0.0 % of DIIS)
  Form QpQm                 ....       0.000 sec  (  0.0 % of DIIS)
  Exp/Cayley                ....       0.000 sec  (  0.0 % of DIIS)
  Orb update                ....       0.000 sec  (  0.0 % of DIIS)
  Wake-sleep                ....       0.012 sec  (  6.1 % of DIIS)
SOSCF solution              ....       0.073 sec  (  1.8%)
  MO trafo                  ....       0.042 sec  ( 58.5 % of SOSCF)
  Orb grad                  ....       0.001 sec  (  1.5 % of SOSCF)
  Rot update                ....       0.013 sec  ( 18.5 % of SOSCF)
  Step                      ....       0.015 sec  ( 21.3 % of SOSCF)
Finished LeanSCF after   4.1 sec

Maximum memory used throughout the entire LEANSCF-calculation: 9.7 MB


-------------------------------------------------------------------------------
                          DFT DISPERSION CORRECTION                            
                                                                               
                                DFTD4 V3.4.0                                   
-------------------------------------------------------------------------------
The PBE functional is recognized
Active option DFTDOPT                   ...         5   

-------------------------   ----------------
Dispersion correction           -0.008160551
-------------------------   ----------------

------------------   -----------------
gCP correction             0.079274938
------------------   -----------------

-------------------------   --------------------
FINAL SINGLE POINT ENERGY      -491.116288981708
-------------------------   --------------------


------------------------------------------------------------------------------
                              ORCA PROPERTY CALCULATIONS
------------------------------------------------------------------------------

GBWName                                 ... sp.gbw
Number of atoms                         ...     12
Number of basis functions               ...    108
Max core memory                         ...   1024 MB

Electric properties:
Dipole moment                           ... YES
Quadrupole moment                       ...  NO
Static polarizability (Dipole/Dipole)   ...  NO
Static polarizability (Dipole/Quad.)    ...  NO
Static polarizability (Quad./Quad.)     ...  NO
Static polarizability (Velocity)        ...  NO

Atomic electric properties:
Dipole moment                           ...  NO
Quadrupole moment                       ...  NO
Static polarizability                   ...  NO

Choice of electric origin               ... Center of mass
Position of electric origin             ...    -0.000029     0.000005    -0.000010

General magnetic properties:
Magnetizability                         ...  NO

EPR properties:
g-Tensor (aka g-matrix)                 ...  NO
Zero-Field splitting spin-orbit         ...  NO
Zero-field splitting spin-spin          ...  NO
Hyperfine couplings                     ...  NO (   0 nuclei)
Quadrupole couplings                    ...  NO (   0 nuclei)
Contact density                         ...  NO (   0 nuclei)

NMR properties:
Chemical shifts                         ...  NO (   0 nuclei)
Spin-rotation constants                 ...  NO (   0 nuclei)
Spin-spin couplings                     ...  NO (   0 nuclei,    0 pairs)

Choice of magnetic origin               ... GIAO
Position of magnetic origin             ...     0.000000     0.000000     0.000000

Properties with geometric perturbations:
SCF Hessian                             ...  NO
IR spectrum                             ...  NO
VCD spectrum                            ...  NO
X-ray spectroscopy properties:
SCF XES/XAS/RIXS spectra                ...  NO


-------------
DIPOLE MOMENT
-------------

Method             : SCF
Type of density    : Electron Density
Multiplicity       :   1
Irrep              :   0
Energy             :  -491.1874033685220411 Eh
Relativity type    : 
Basis              : AO
                                X                 Y                 Z
Electronic contribution:      9.993429193      -0.310268664       0.926774388
Nuclear contribution   :    -10.459582764       0.815005126      -0.650848919
                        -----------------------------------------
Total Dipole Moment    :     -0.466153572       0.504736461       0.275925469
                        -----------------------------------------
Magnitude (a.u.)       :      0.740400508
Magnitude (Debye)      :      1.881948531



--------------------
Rotational spectrum 
--------------------
 
Rotational constants in cm-1:             0.117856             0.079564             0.065197 
Rotational constants in MHz :          3533.239751          2385.278017          1954.552902 

Dipole components along the rotational axes: 
x,y,z [a.u.] :    -0.427695     0.115964    -0.593146 
x,y,z [Debye]:    -1.087115     0.294757    -1.507657 

 

Dipole moment calculation done in   0.0 sec 

Maximum memory used throughout the entire PROP-calculation: 6.3 MB

--------------------------------
SUGGESTED CITATIONS FOR THIS RUN
--------------------------------

Below you find a list of papers that are relevant to this ORCA run
We neither can nor want to force you to cite these papers, but we appreciate if you do
You receive ORCA, which is the product of decades of hard work by many enthusiastic individuals, for free
The only thing we kindly ask in return is that you cite our papers,
We deeply appreciate it, if you show your appreciation for ORCA by not just citing the generic ORCA reference.

Please note that relegating all ORCA citations to the supporting information does *not* help us.
SI sections are not indexed - citations you put there will not count into any citation statistics
But we need these citations in order to attract the funding resources that allow us to do what we are doing

Therefore, if you are a happy ORCA user, please consider citing a few of the papers listed below in the main body of your paper

In addition to the list printed below, the program has created the file sp.bibtex that contains the list in bibtex format
You can import this file easily into all common literature databanks and citation aid programs


List of essential papers. We consider these as the minimum necessary citations

  1. Neese,F.
     Software update: the ORCA program system, version 5.0
     WIRES Comput. Molec. Sci., 2022 12(1)e1606
     doi.org/10.1002/wcms.1606

List of papers to cite with high priority. The work reported in these papers was absolutely
necessary for this run to complete.
Our perspective: the developers of density functionals and basis sets usually get cited in chemistry papers
Good! But without the algorithms to do something with them, the functionals or basis sets would not do anything.
Hence, in our opinion, the algorithm design and method developments papers are equally worthy of getting cited

  1. Neese,F.
     An improvement of the resolution of the identity approximation for the formation of the Coulomb matrix
     J. Comp. Chem., 2003 24(14)1740-1747
     doi.org/10.1002/jcc.10318
  2. Neese,F.
     The SHARK Integral Generation and Digestion System
     J. Comp. Chem., 2022  1-16
     doi.org/10.1002/jcc.26942
  3. Caldeweyher,E.; Bannwarth,C.; Grimme,S.
     Extension of the D3 dispersion coefficient model
     J. Chem. Phys., 2017 147 034112-XXXX
     doi.org/10.1063/1.4993215
  4. Caldeweyher,E.; Ehlert,S.; Hansen,A.; Neugebauer,H.; Spicher,S.; Bannwarth,C.; Grimme,S.
     A generally applicable atomic-charge dependent London dispersion correction
     J. Chem. Phys., 2019 150 154122-XXXX
     doi.org/10.1063/1.5090222
  5. Caldeweyher,E.; Mewes,J.; Ehlert,S.; Grimme,S.
     Extension and evaluation of the D4 London-dispersion model for periodic systems
     Phys. Chem. Chem. Phys., 2020 22(16)8499-8512
     doi.org/10.1039/D0CP00502A

List of suggested additional citations. These are papers that are important in the 'surrounding' of 
of this run, or papers that preceded the highly important papers. If you like your results we are grateful for a citation.

  1. Neese,F.
     The ORCA program system
     WIRES Comput. Molec. Sci., 2012 2(1)73-78
     doi.org/10.1002/wcms.81
  2. Neese,F.
     Software update: the ORCA program system, version 4.0
     WIRES Comput. Molec. Sci., 2018 8(1)1-6
     doi.org/10.1002/wcms.1327
  3. Neese,F.; Wennmohs,F.; Becker,U.; Riplinger,C.
     The ORCA quantum chemistry program package
     J. Chem. Phys., 2020 152 Art. No. L224108
     doi.org/10.1063/5.0004608

List of optional additional citations

  1. Neese,F.
     Approximate second-order SCF convergence for spin unrestricted wavefunctions
     Chem. Phys. Lett., 2000 325(1-3)93-98
     doi.org/10.1016/s0009-2614(00)00662-x

Timings for individual modules:

Sum of individual times          ...        5.222 sec (=   0.087 min)
Startup calculation              ...        0.542 sec (=   0.009 min)  10.4 %
SCF iterations                   ...        4.584 sec (=   0.076 min)  87.8 %
Property calculations            ...        0.096 sec (=   0.002 min)   1.8 %
                             ****ORCA TERMINATED NORMALLY****
TOTAL RUN TIME: 0 days 0 hours 0 minutes 5 seconds 821 msec
