      -----------------------------------------------------------      
     |                   =====================                   |     
     |                           x T B                           |     
     |                   =====================                   |     
     |                         S. Grimme                         |     
     |          Mulliken Center for Theoretical Chemistry        |     
     |                    University of Bonn                     |     
      -----------------------------------------------------------      

   * xtb version 6.7.1 (edcfbbe) compiled by 'albert@albert-system' on 2024-07-22

   xtb is free software: you can redistribute it and/or modify it under
   the terms of the GNU Lesser General Public License as published by
   the Free Software Foundation, either version 3 of the License, or
   (at your option) any later version.
   
   xtb is distributed in the hope that it will be useful,
   but WITHOUT ANY WARRANTY; without even the implied warranty of
   MERCHANTABILITY or FITNESS FOR A PARTICULAR PURPOSE.  See the
   GNU Lesser General Public License for more details.
   
   Cite this work as:
   * C. Bannwarth, E. Caldeweyher, S. Ehlert, A. Hansen, P. Pracht,
     J. Seibert, S. Spicher, S. Grimme, WIREs Comput. Mol. Sci., 2020, 11,
     e01493. DOI: 10.1002/wcms.1493
   
   for GFN2-xTB:
   * C. Bannwarth, S. Ehlert and S. Grimme., J. Chem. Theory Comput., 2019,
     15, 1652-1671. DOI: 10.1021/acs.jctc.8b01176
   for GFN1-xTB:
   * S. Grimme, C. Bannwarth, P. Shushkov, J. Chem. Theory Comput., 2017,
     13, 1989-2009. DOI: 10.1021/acs.jctc.7b00118
   for GFN0-xTB:
   * P. Pracht, E. Caldeweyher, S. Ehlert, S. Grimme, ChemRxiv, 2019, preprint.
     DOI: 10.26434/chemrxiv.8326202.v1
   for GFN-FF:
   * S. Spicher and S. Grimme, Angew. Chem. Int. Ed., 2020, 59, 15665-15673.
     DOI: 10.1002/anie.202004239
   
   for ALPB and GBSA implicit solvation:
   * S. Ehlert, M. Stahn, S. Spicher, S. Grimme, J. Chem. Theory Comput.,
     2021, 17, 4250-4261. DOI: 10.1021/acs.jctc.1c00471
   
   for ddCOSMO and CPCM-X implicit solvation:
   * M. Stahn, S. Ehlert, S. Grimme, J. Phys. Chem. A,
     2023, XX, XXXX-XXXX. DOI: 10.1021/acs.jpca.3c04382
   
   for DFT-D4:
   * E. Caldeweyher, C. Bannwarth and S. Grimme, J. Chem. Phys., 2017,
     147, 034112. DOI: 10.1063/1.4993215
   * E. Caldeweyher, S. Ehlert, A. Hansen, H. Neugebauer, S. Spicher,
     C. Bannwarth and S. Grimme, J. Chem. Phys., 2019, 150, 154122.
     DOI: 10.1063/1.5090222
   * E. Caldeweyher, J.-M. Mewes, S. Ehlert and S. Grimme, Phys. Chem. Chem. Phys.
     2020, 22, 8499-8512. DOI: 10.1039/D0CP00502A
   
   for sTDA-xTB:
   * S. Grimme and C. Bannwarth, J. Chem. Phys., 2016, 145, 054103.
     DOI: 10.1063/1.4959605
   
   in the mass-spec context:
   * V. Asgeirsson, C. Bauer and S. Grimme, Chem. Sci., 2017, 8, 4879.
     DOI: 10.1039/c7sc00601b
   * J. Koopman and S. Grimme, ACS Omega 2019, 4, 12, 15120-15133.
     DOI: 10.1021/acsomega.9b02011
   
   for metadynamics refer to:
   * S. Grimme, J. Chem. Theory Comput., 2019, 155, 2847-2862
     DOI: 10.1021/acs.jctc.9b00143
   
   for SPH calculations refer to:
   * S. Spicher and S. Grimme, J. Chem. Theory Comput., 2021, 17, 1701-1714
     DOI: 10.1021/acs.jctc.0c01306
   
   for ONIOM refer to:
   * C. Plett, A. Katbashev, S. Ehlert, S. Grimme, M. Bursch,
     Phys. Chem. Chem. Phys., 2023, 25, 17860-17868. DOI: 10.1039/D3CP02178E
   
   for DIPRO refer to:
   * J. Kohn, N. Gildemeister, S. Grimme, D. Fazzi, A. Hansen,
     J. Chem. Phys., 2023, just accepted.
   
   for PTB refer to:
   * S. Grimme, M. Mueller, A. Hansen, J. Chem. Phys., 2023, 158, 124111.
     DOI: 10.1063/5.0137838
   
   with help from (in alphabetical order)
   P. Atkinson, C. Bannwarth, F. Bohle, G. Brandenburg, E. Caldeweyher
   M. Checinski, S. Dohm, S. Ehlert, S. Ehrlich, I. Gerasimov, C. Hölzer
   A. Katbashev, J. Kohn, J. Koopman, C. Lavigne, S. Lehtola, F. März, M. Müller,
   F. Musil, H. Neugebauer, J. Pisarek, C. Plett, P. Pracht, F. Pultar,
   J. Seibert, P. Shushkov, S. Spicher, M. Stahn, M. Steiner, T. Strunk,
   J. Stückrath, T. Rose, and J. Unsleber
   
 * started run on 2025/04/04 at 21:07:00.782     
   ID    Z sym.   atoms
    1    6 C      1-5
    2    1 H      6-15

           -------------------------------------------------
          |                Calculation Setup                |
           -------------------------------------------------

          program call               : /srv/scratch/z5358697/.xtb/bin/xtb solv.coord --gfn2 --sp --chrg 0 --norestart --parallel 1 --alpb water reference -I xtb_sp-xcontrol-inp
          hostname                   : k159
          coordinate file            : solv.coord
          omp threads                :                     1


           -------------------------------------------------
          |                 G F N 2 - x T B                 |
           -------------------------------------------------

        Reference                      10.1021/acs.jctc.8b01176
      * Hamiltonian:
        H0-scaling (s, p, d)           1.850000    2.230000    2.230000
        zeta-weighting                 0.500000
      * Dispersion:
        s8                             2.700000
        a1                             0.520000
        a2                             5.000000
        s9                             5.000000
      * Repulsion:
        kExp                           1.500000    1.000000
        rExp                           1.000000
      * Coulomb:
        alpha                          2.000000
        third order                    shell-resolved
        anisotropic                    true
        a3                             3.000000
        a5                             4.000000
        cn-shift                       1.200000
        cn-exp                         4.000000
        max-rad                        5.000000

      * Solvation model:               ALPB
        Solvent                        water
        Parameter file                 internal GFN2-xTB/ALPB
        Dielectric constant                8.0200E+01
        Reference state                gsolv=reference [X=1]
        Free energy shift                  2.8945E-03 Eh       1.8164E+00 kcal/mol
        Temperature                        2.9815E+02 K
        Density                            1.0000E+00 kg/L
        Solvent mass                       1.8000E+01 g/mol
        Interaction kernel             P16
        Born radius scaling (c1)           1.4744E+00
        Born radii integrator          GBOBC
        Born offset                        0.0000E+00 a0       0.0000E+00 AA
        H-bond correction              true
        Ion screening                  false
        Surface tension                    1.0000E-05 Eh       1.5569E+01 dyn/cm
        Grid points                               974 per atom

          ...................................................
          :                      SETUP                      :
          :.................................................:
          :  # basis functions                  30          :
          :  # atomic orbitals                  30          :
          :  # shells                           20          :
          :  # electrons                        30          :
          :  max. iterations                   250          :
          :  Hamiltonian                  GFN2-xTB          :
          :  restarted?                      false          :
          :  GBSA solvation                   true          :
          :  PC potential                    false          :
          :  electronic temp.          300.0000000     K    :
          :  accuracy                    1.0000000          :
          :  -> integral cutoff          0.2500000E+02      :
          :  -> integral neglect         0.1000000E-07      :
          :  -> SCF convergence          0.1000000E-05 Eh   :
          :  -> wf. convergence          0.1000000E-03 e    :
          :  Broyden damping             0.4000000          :
          :  net charge                          0          :
          :  unpaired electrons                  0          :
          ...................................................

 iter      E             dE          RMSdq      gap      omega  full diag
   1    -16.0233184 -0.160233E+02  0.328E+00    5.25       0.0  T
   2    -16.0405072 -0.171888E-01  0.187E+00    5.21       1.0  T
   3    -16.0412883 -0.781094E-03  0.557E-01    5.15       1.0  T
   4    -16.0412661  0.221809E-04  0.201E-01    5.17       1.0  T
   5    -16.0416127 -0.346566E-03  0.659E-02    5.16       1.0  T
   6    -16.0416308 -0.181675E-04  0.289E-02    5.16       1.0  T
   7    -16.0416312 -0.388567E-06  0.438E-03    5.16       5.9  T
   8    -16.0416313 -0.308842E-07  0.124E-03    5.16      20.8  T
   9    -16.0416313 -0.151520E-08  0.561E-04    5.16      46.0  T
  10    -16.0416313 -0.478504E-09  0.136E-04    5.16     189.4  T

   *** convergence criteria satisfied after 10 iterations ***

         #    Occupation            Energy/Eh            Energy/eV
      -------------------------------------------------------------
         1        2.0000           -0.6191825             -16.8488
       ...           ...                  ...                  ...
         9        2.0000           -0.4751002             -12.9281
        10        2.0000           -0.4574589             -12.4481
        11        2.0000           -0.4509000             -12.2696
        12        2.0000           -0.4373661             -11.9013
        13        2.0000           -0.4327723             -11.7763
        14        2.0000           -0.4170790             -11.3493
        15        2.0000           -0.3798727             -10.3369 (HOMO)
        16                         -0.1900818              -5.1724 (LUMO)
        17                          0.0987928               2.6883
        18                          0.1226951               3.3387
        19                          0.1436826               3.9098
        20                          0.1524214               4.1476
       ...                                ...                  ...
        30                          0.6303636              17.1531
      -------------------------------------------------------------
                  HL-Gap            0.1897908 Eh            5.1645 eV
             Fermi-level           -0.2849772 Eh           -7.7546 eV

 SCC (total)                   0 d,  0 h,  0 min,  0.019 sec
 SCC setup                      ...        0 min,  0.001 sec (  3.944%)
 Dispersion                     ...        0 min,  0.000 sec (  0.308%)
 classical contributions        ...        0 min,  0.000 sec (  0.073%)
 integral evaluation            ...        0 min,  0.001 sec (  4.037%)
 iterations                     ...        0 min,  0.015 sec ( 79.604%)
 molecular gradient             ...        0 min,  0.002 sec ( 11.423%)
 printout                       ...        0 min,  0.000 sec (  0.538%)

         :::::::::::::::::::::::::::::::::::::::::::::::::::::
         ::                     SUMMARY                     ::
         :::::::::::::::::::::::::::::::::::::::::::::::::::::
         :: total energy             -15.772250493741 Eh    ::
         :: total w/o Gsasa/hb       -15.773663986579 Eh    ::
         :: gradient norm              0.000104426638 Eh/a0 ::
         :: HOMO-LUMO gap              5.164471113478 eV    ::
         ::.................................................::
         :: SCC energy               -16.041625297681 Eh    ::
         :: -> isotropic ES            0.003995557755 Eh    ::
         :: -> anisotropic ES          0.004954570024 Eh    ::
         :: -> anisotropic XC          0.011421570449 Eh    ::
         :: -> dispersion             -0.007483863916 Eh    ::
         :: -> Gsolv                   0.001105335470 Eh    ::
         ::    -> Gelec               -0.000308157367 Eh    ::
         ::    -> Gsasa               -0.000986767370 Eh    ::
         ::    -> Ghb                 -0.000494288952 Eh    ::
         ::    -> Gshift               0.002894549160 Eh    ::
         :: repulsion energy           0.269374803940 Eh    ::
         :: add. restraining           0.000000000000 Eh    ::
         :: total charge               0.000000000000 e     ::
         :::::::::::::::::::::::::::::::::::::::::::::::::::::

           -------------------------------------------------
          |                Property Printout                |
           -------------------------------------------------

    * Orbital Energies and Occupations

         #    Occupation            Energy/Eh            Energy/eV
      -------------------------------------------------------------
         1        2.0000           -0.6191825             -16.8488
       ...           ...                  ...                  ...
         3        2.0000           -0.5828830             -15.8611
         4        2.0000           -0.5632818             -15.3277
         5        2.0000           -0.5310168             -14.4497
         6        2.0000           -0.5039273             -13.7126
         7        2.0000           -0.5002396             -13.6122
         8        2.0000           -0.4866472             -13.2423
         9        2.0000           -0.4751002             -12.9281
        10        2.0000           -0.4574589             -12.4481
        11        2.0000           -0.4509000             -12.2696
        12        2.0000           -0.4373661             -11.9013
        13        2.0000           -0.4327723             -11.7763
        14        2.0000           -0.4170790             -11.3493
        15        2.0000           -0.3798727             -10.3369 (HOMO)
        16                         -0.1900818              -5.1724 (LUMO)
        17                          0.0987928               2.6883
        18                          0.1226951               3.3387
        19                          0.1436826               3.9098
        20                          0.1524214               4.1476
        21                          0.1642391               4.4692
        22                          0.1725368               4.6950
        23                          0.1924720               5.2374
        24                          0.2076239               5.6497
        25                          0.2291156               6.2346
        26                          0.2596467               7.0653
       ...                                ...                  ...
        30                          0.6303636              17.1531
      -------------------------------------------------------------
                  HL-Gap            0.1897908 Eh            5.1645 eV
             Fermi-level           -0.2849772 Eh           -7.7546 eV

     #   Z          covCN         q      C6AA      α(0)
     1   6 C        3.753    -0.109    22.645     6.786
     2   6 C        3.804    -0.057    21.590     6.615
     3   6 C        2.891    -0.053    29.319     8.877
     4   6 C        2.888    -0.051    29.258     8.868
     5   6 C        3.756    -0.112    22.702     6.794
     6   1 H        0.925     0.037     2.492     2.469
     7   1 H        0.925     0.035     2.512     2.479
     8   1 H        0.925     0.037     2.493     2.469
     9   1 H        0.924     0.043     2.413     2.429
    10   1 H        0.924     0.043     2.414     2.430
    11   1 H        0.926     0.027     2.623     2.533
    12   1 H        0.926     0.023     2.684     2.562
    13   1 H        0.925     0.048     2.347     2.396
    14   1 H        0.925     0.048     2.345     2.395
    15   1 H        0.925     0.041     2.432     2.439

 Mol. C6AA /au·bohr⁶  :       1653.575139
 Mol. C8AA /au·bohr⁸  :      35652.985948
 Mol. α(0) /au        :         62.539598


Wiberg/Mayer (AO) data.
largest (>0.10) Wiberg bond orders for each atom

 ---------------------------------------------------------------------------
     #   Z sym  total        # sym  WBO       # sym  WBO       # sym  WBO
 ---------------------------------------------------------------------------
     1   6 C    3.997 --     2 C    1.021     8 H    0.988     6 H    0.988
                             7 H    0.988
     2   6 C    3.998 --     3 C    1.025     1 C    1.021    10 H    0.961
                             9 H    0.961
     3   6 C    3.990 --     4 C    1.926     2 C    1.025    11 H    0.967
     4   6 C    3.990 --     3 C    1.926     5 C    1.037    12 H    0.970
     5   6 C    3.997 --     4 C    1.037    15 H    0.989    13 H    0.970
                            14 H    0.969
     6   1 H    0.999 --     1 C    0.988
     7   1 H    0.998 --     1 C    0.988
     8   1 H    0.999 --     1 C    0.988
     9   1 H    0.998 --     2 C    0.961
    10   1 H    0.998 --     2 C    0.961
    11   1 H    0.999 --     3 C    0.967
    12   1 H    0.999 --     4 C    0.970
    13   1 H    0.998 --     5 C    0.970
    14   1 H    0.998 --     5 C    0.969
    15   1 H    0.998 --     5 C    0.989
 ---------------------------------------------------------------------------

Topologies differ in total number of bonds
Writing topology from bond orders to xtbtopo.mol

molecular dipole:
                 x           y           z       tot (Debye)
 q only:       -0.022       0.202       0.029
   full:       -0.025       0.212       0.030       0.547
molecular quadrupole (traceless):
                xx          xy          yy          xz          yz          zz
 q only:        0.636       0.527       0.036       0.095       0.113      -0.672
  q+dip:        0.800       0.275       0.494       0.080       0.279      -1.294
   full:        0.547       0.384       0.267       0.079       0.170      -0.814


           -------------------------------------------------
          | TOTAL ENERGY              -15.772250493741 Eh   |
          | GRADIENT NORM               0.000104426638 Eh/α |
          | HOMO-LUMO GAP               5.164471113478 eV   |
           -------------------------------------------------

------------------------------------------------------------------------
 * finished run on 2025/04/04 at 21:07:00.834     
------------------------------------------------------------------------
 total:
 * wall-time:     0 d,  0 h,  0 min,  0.051 sec
 *  cpu-time:     0 d,  0 h,  0 min,  0.013 sec
 * ratio c/w:     0.261 speedup
 SCF:
 * wall-time:     0 d,  0 h,  0 min,  0.019 sec
 *  cpu-time:     0 d,  0 h,  0 min,  0.008 sec
 * ratio c/w:     0.390 speedup

