
                                 *****************
                                 * O   R   C   A *
                                 *****************

                                            #,                                       
                                            ###                                      
                                            ####                                     
                                            #####                                    
                                            ######                                   
                                           ########,                                 
                                     ,,################,,,,,                         
                               ,,#################################,,                 
                          ,,##########################################,,             
                       ,#########################################, ''#####,          
                    ,#############################################,,   '####,        
                  ,##################################################,,,,####,       
                ,###########''''           ''''###############################       
              ,#####''   ,,,,##########,,,,          '''####'''          '####       
            ,##' ,,,,###########################,,,                        '##       
           ' ,,###''''                  '''############,,,                           
         ,,##''                                '''############,,,,        ,,,,,,###''
      ,#''                                            '''#######################'''  
     '                                                          ''''####''''         
             ,#######,   #######,   ,#######,      ##                                
            ,#'     '#,  ##    ##  ,#'     '#,    #''#        ,####,   ,####,        
            ##       ##  ##   ,#'  ##            #'  '#       #'       #'  '#        
            ##       ##  #######   ##           ,######,      #####,   #    #        
            '#,     ,#'  ##    ##  '#,     ,#' ,#      #,     #,   #   #,  ,#        
             '#######'   ##     ##  '#######'  #'      '#     '####' # '####'        



                #########################################################
                #                        -***-                          #
                #          Department of theory and spectroscopy        #
                #                                                       #
                #                      Frank Neese                      #
                #                                                       #
                #     Directorship, Architecture, Infrastructure        #
                #                    SHARK, DRIVERS                     #
                #        Core code/Algorithms in most modules           #
                #                                                       #
                #        Max Planck Institute fuer Kohlenforschung      #
                #                Kaiser Wilhelm Platz 1                 #
                #                 D-45470 Muelheim/Ruhr                 #
                #                      Germany                          #
                #                                                       #
                #                  All rights reserved                  #
                #                        -***-                          #
                #########################################################


                         Program Version 6.0.0  -   RELEASE  -


 With contributions from (in alphabetic order):
   Daniel Aravena         : Magnetic Suceptibility
   Michael Atanasov       : Ab Initio Ligand Field Theory (pilot matlab implementation)
   Alexander A. Auer      : GIAO ZORA, VPT2 properties, NMR spectrum
   Ute Becker             : All parallelization in ORCA, NUMFREQ, NUMCALC
   Giovanni Bistoni       : ED, misc. LED, open-shell LED, HFLD
   Martin Brehm           : Molecular dynamics
   Dmytro Bykov           : pre 5.0 version of the SCF Hessian
   Marcos Casanova-Páez   : Triplet and SCS-CIS(D). UHF-(DLPNO)-IP/EA/STEOM-CCSD. UHF-CVS-IP/STEOM-CCSD
   Vijay G. Chilkuri      : MRCI spin determinant printing, contributions to CSF-ICE
   Pauline Colinet        : FMM embedding
   Dipayan Datta          : RHF DLPNO-CCSD density
   Achintya Kumar Dutta   : EOM-CC, STEOM-CC
   Nicolas Foglia         : Exact transition moments, OPA infrastructure, MCD improvements
   Dmitry Ganyushin       : Spin-Orbit,Spin-Spin,Magnetic field MRCI
   Miquel Garcia          : C-PCM and meta-GGA Hessian, CCSD/C-PCM, Gaussian charge scheme
   Tiago L. C. Gouveia    : GS-ROHF, GS-ROCIS
   Yang Guo               : DLPNO-NEVPT2, F12-NEVPT2, CIM, IAO-localization
   Andreas Hansen         : Spin unrestricted coupled pair/coupled cluster methods
   Ingolf Harden          : AUTO-CI MPn and infrastructure 
   Benjamin Helmich-Paris : MC-RPA, TRAH-(SCF,CASSCF), AVAS, COSX integrals, SCF dyn. polar.
   Lee Huntington         : MR-EOM, pCC
   Robert Izsak           : Overlap fitted RIJCOSX, COSX-SCS-MP3, EOM
   Riya Kayal             : Wick's Theorem for AUTO-CI, AUTO-CI UHF-CCSDT
   Emily Kempfer          : AUTO-CI, RHF CISDT and CCSDT
   Christian Kollmar      : KDIIS, OOCD, Brueckner-CCSD(T), CCSD density, CASPT2, CASPT2-K, improved NEVPT2
   Axel Koslowski         : Symmetry handling
   Simone Kossmann        : Meta GGA functionals, TD-DFT gradient, OOMP2, (MP2 Hessian; deprecated post 5.0)
   Lucas Lang             : DCDCAS
   Marvin Lechner         : AUTO-CI (C++ implementation), FIC-MRCC
   Spencer Leger          : CASSCF response
   Dagmar Lenk            : GEPOL surface, SMD, ORCA-2-JSON
   Dimitrios Liakos       : Extrapolation schemes; Compound Job, initial MDCI parallelization
   Dimitrios Manganas     : Further ROCIS development; embedding schemes. LFT, Crystal Embedding
   Dimitrios Pantazis     : SARC Basis sets
   Anastasios Papadopoulos: AUTO-CI, single reference methods and gradients
   Taras Petrenko         : pre 6.0 DFT Hessian and TD-DFT gradient, (ASA, deprecated), ECA, 1-Electron XAS/XES, NRVS
   Peter Pinski           : DLPNO-MP2, DLPNO-MP2 Gradient
   Christoph Reimann      : Effective Core Potentials
   Marius Retegan         : Local ZFS, SOC
   Christoph Riplinger    : Optimizer, TS searches, QM/MM, DLPNO-CCSD(T), (RO)-DLPNO pert. Triples
   Michael Roemelt        : Original ROCIS implementation
   Masaaki Saitow         : Open-shell DLPNO-CCSD energy and density
   Barbara Sandhoefer     : DKH picture change effects
   Kantharuban Sivalingam : CASSCF convergence/infrastructure, NEVPT2 and variants, FIC-MRCI
   Bernardo de Souza      : ESD, SOC TD-DFT
   Georgi Stoychev        : AutoAux, RI-MP2 NMR, DLPNO-MP2 response, X2C
   Van Anh Tran           : RI-MP2 g-tensors
   Willem Van den Heuvel  : Paramagnetic NMR
   Zikuan Wang            : NOTCH, Electric field optimization 
   Frank Wennmohs         : Technical directorship and infrastructure
   Hang Xu                : AUTO-CI-Response properties 


 We gratefully acknowledge several colleagues who have allowed us to
 interface, adapt or use parts of their codes:
   Stefan Grimme, W. Hujo, H. Kruse, P. Pracht,  : VdW corrections, initial TS optimization,
                  C. Bannwarth, S. Ehlert,         DFT functionals, gCP, sTDA/sTD-DF
                  L. Wittmann, M. Mueller
   Ed Valeev, F. Pavosevic, A. Kumar             : LibInt (2-el integral package), F12 methods
   Garnet Chan, S. Sharma, J. Yang, R. Olivares  : DMRG
   Ulf Ekstrom                                   : XCFun DFT Library
   Mihaly Kallay                                 : mrcc  (arbitrary order and MRCC methods)
   Frank Weinhold                                : gennbo (NPA and NBO analysis)
   Simon Mueller                                 : openCOSMO-RS
   Christopher J. Cramer and Donald G. Truhlar   : smd solvation model
   Lars Goerigk                                  : TD-DFT with DH, B97 family of functionals
   V. Asgeirsson, H. Jonsson                     : NEB implementation
   FAccTs GmbH                                   : IRC, NEB, NEB-TS, DLPNO-Multilevel, CI-OPT
                                                   MM, QMMM, 2- and 3-layer-ONIOM, Crystal-QMMM,
                                                   LR-CPCM, SF, NACMEs, symmetry and pop. for TD-DFT,
                                                   nearIR, NL-DFT gradient (VV10), updates on ESD,
                                                   ML-optimized integration grids, MBIS, APM,
                                                   GOAT, DOCKER, SOLVATOR, interface openCOSMO-RS
   S Lehtola, MJT Oliveira, MAL Marques          : LibXC Library
   Liviu Ungur et al                             : ANISO software


 Your calculation uses the libint2 library for the computation of 2-el integrals
 For citations please refer to: http://libint.valeyev.net

 Your ORCA version has been built with support for libXC version: 6.2.2
 For citations please refer to: https://libxc.gitlab.io

 This ORCA versions uses:
   CBLAS   interface :  Fast vector & matrix operations
   LAPACKE interface :  Fast linear algebra routines
   SCALAPACK package :  Parallel linear algebra routines
   Shared memory     :  Shared parallel matrices
   BLAS/LAPACK       :  OpenBLAS 0.3.27  USE64BITINT DYNAMIC_ARCH NO_AFFINITY SkylakeX SINGLE_THREADED
        Core in use  :  SkylakeX
   Copyright (c) 2011-2014, The OpenBLAS Project


Your calculation utilizes the geometrical counterpoise correction gCP
Please cite in your paper:
H.Kruse, S. Grimme J.Chem.Phys., 136, (2012), 154101 
   

Your calculation utilizes the atom-pairwise dispersion correction
based on EEQ partial charges (D4)


================================================================================

----- Orbital basis set information -----
Your calculation utilizes the basis: def2-SV(P)
   F. Weigend and R. Ahlrichs, Phys. Chem. Chem. Phys. 7, 3297 (2005).

----- AuxJ basis set information -----
Your calculation utilizes the auxiliary basis: def2/J
   F. Weigend, Phys. Chem. Chem. Phys. 8, 1057 (2006).

================================================================================
                                        WARNINGS
                       Please study these warnings very carefully!
================================================================================


================================================================================
                                       INPUT FILE
================================================================================
NAME = sp.inp
|  1> ! pbe def2-sv(p) def2/J RI DEFGRID1 loosescf d4 GCP(DFT/SV(P)) printgap
|  2> %output
|  3>     printlevel normal
|  4> end
|  5> * xyz 0 1
|  6> C 2.7486241659 -0.0123876951 0.7282811213
|  7> C 1.9712064425 -0.0140403211 -0.5904022506
|  8> C 0.4958482453 0.0202668105 -0.3265299162
|  9> C -0.1909393657 1.2199234557 -0.1760451449
| 10> C -1.54587849 1.1957967887 0.1088067742
| 11> C -2.1696450034 -0.0354548337 0.2367510718
| 12> N -1.5325033327 -1.1882248988 0.0979686689
| 13> C -0.2383545033 -1.1518625973 -0.1747262227
| 14> H 2.4788039871 -0.8794196734 1.326853959
| 15> H 2.5216883198 0.8835593672 1.301508516
| 16> H 3.817550474 -0.0410117802 0.534942325
| 17> H 2.2217341414 -0.9132036488 -1.155476707
| 18> H 2.2589324524 0.8579627782 -1.1801493797
| 19> H 0.3310944067 2.1599414497 -0.2845208278
| 20> H -2.1068746122 2.1090346525 0.2284111518
| 21> H -3.2255622461 -0.1112814488 0.4584731255
| 22> H 0.2383975946 -2.118200271 -0.2812480746
| 23> *
| 24> 
| 25>                          ****END OF INPUT****
================================================================================

                       ****************************
                       * Single Point Calculation *
                       ****************************

---------------------------------
CARTESIAN COORDINATES (ANGSTROEM)
---------------------------------
  C      2.748624   -0.012388    0.728281
  C      1.971206   -0.014040   -0.590402
  C      0.495848    0.020267   -0.326530
  C     -0.190939    1.219923   -0.176045
  C     -1.545878    1.195797    0.108807
  C     -2.169645   -0.035455    0.236751
  N     -1.532503   -1.188225    0.097969
  C     -0.238355   -1.151863   -0.174726
  H      2.478804   -0.879420    1.326854
  H      2.521688    0.883559    1.301509
  H      3.817550   -0.041012    0.534942
  H      2.221734   -0.913204   -1.155477
  H      2.258932    0.857963   -1.180149
  H      0.331094    2.159941   -0.284521
  H     -2.106875    2.109035    0.228411
  H     -3.225562   -0.111281    0.458473
  H      0.238398   -2.118200   -0.281248

----------------------------
CARTESIAN COORDINATES (A.U.)
----------------------------
  NO LB      ZA    FRAG     MASS         X           Y           Z
   0 C     6.0000    0    12.011    5.194147   -0.023409    1.376252
   1 C     6.0000    0    12.011    3.725040   -0.026532   -1.115699
   2 C     6.0000    0    12.011    0.937017    0.038299   -0.617052
   3 C     6.0000    0    12.011   -0.360823    2.305321   -0.332677
   4 C     6.0000    0    12.011   -2.921287    2.259728    0.205615
   5 C     6.0000    0    12.011   -4.100035   -0.067000    0.447395
   6 N     7.0000    0    14.007   -2.896012   -2.245420    0.185134
   7 C     6.0000    0    12.011   -0.450425   -2.176705   -0.330185
   8 H     1.0000    0     1.008    4.684261   -1.661862    2.507391
   9 H     1.0000    0     1.008    4.765300    1.669685    2.459495
  10 H     1.0000    0     1.008    7.214125   -0.077501    1.010894
  11 H     1.0000    0     1.008    4.198469   -1.725705   -2.183535
  12 H     1.0000    0     1.008    4.268764    1.621315   -2.230159
  13 H     1.0000    0     1.008    0.625678    4.081698   -0.537666
  14 H     1.0000    0     1.008   -3.981416    3.985498    0.431635
  15 H     1.0000    0     1.008   -6.095429   -0.210291    0.866389
  16 H     1.0000    0     1.008    0.450506   -4.002818   -0.531482

--------------------------------
INTERNAL COORDINATES (ANGSTROEM)
--------------------------------
 C      0   0   0     0.000000000000     0.00000000     0.00000000
 C      1   0   0     1.530786361043     0.00000000     0.00000000
 C      2   1   0     1.499162232110   110.37368132     0.00000000
 C      3   2   1     1.390503130305   121.65899621    88.12917984
 C      4   3   2     1.384768118652   119.37371825   182.04798783
 C      5   4   3     1.386158347445   118.34410688     0.13557254
 N      6   5   4     1.324420207822   123.15967786   359.90949524
 C      7   6   5     1.323066859049   117.91969428     0.05810027
 H      1   2   3     1.087583018585   110.31959007    59.68923526
 H      1   2   3     1.087570992039   110.42371683   299.94013320
 H      1   2   3     1.086647449981   110.25963755   179.78993458
 H      2   1   3     1.091131504023   109.29349313   239.35475250
 H      2   1   3     1.091319081774   109.31511074   120.68360489
 H      4   3   2     1.080703503441   120.06552263     2.25252784
 H      5   4   3     1.078436484983   121.13445792   180.18112834
 H      6   5   4     1.081606013336   121.36587470   180.00708250
 H      8   7   6     1.082796364695   115.24073135   180.13018075

---------------------------
INTERNAL COORDINATES (A.U.)
---------------------------
 C      0   0   0     0.000000000000     0.00000000     0.00000000
 C      1   0   0     2.892766991913     0.00000000     0.00000000
 C      2   1   0     2.833006049006   110.37368132     0.00000000
 C      3   2   1     2.627670104637   121.65899621    88.12917984
 C      4   3   2     2.616832503237   119.37371825   182.04798783
 C      5   4   3     2.619459654919   118.34410688     0.13557254
 N      6   5   4     2.502791479015   123.15967786   359.90949524
 C      7   6   5     2.500234020469   117.91969428     0.05810027
 H      1   2   3     2.055234053029   110.31959007    59.68923526
 H      1   2   3     2.055211326150   110.42371683   299.94013320
 H      1   2   3     2.053466084589   110.25963755   179.78993458
 H      2   1   3     2.061939718698   109.29349313   239.35475250
 H      2   1   3     2.062294189275   109.31511074   120.68360489
 H      4   3   2     2.042233653474   120.06552263     2.25252784
 H      5   4   3     2.037949609447   121.13445792   180.18112834
 H      6   5   4     2.043939150008   121.36587470   180.00708250
 H      8   7   6     2.046188588079   115.24073135   180.13018075

---------------------
BASIS SET INFORMATION
---------------------
There are 3 groups of distinct atoms

 Group   1 Type C   : 7s4p1d contracted to 3s2p1d pattern {511/31/1}
 Group   2 Type N   : 7s4p1d contracted to 3s2p1d pattern {511/31/1}
 Group   3 Type H   : 4s contracted to 2s pattern {31}

Atom   0C    basis set group =>   1
Atom   1C    basis set group =>   1
Atom   2C    basis set group =>   1
Atom   3C    basis set group =>   1
Atom   4C    basis set group =>   1
Atom   5C    basis set group =>   1
Atom   6N    basis set group =>   2
Atom   7C    basis set group =>   1
Atom   8H    basis set group =>   3
Atom   9H    basis set group =>   3
Atom  10H    basis set group =>   3
Atom  11H    basis set group =>   3
Atom  12H    basis set group =>   3
Atom  13H    basis set group =>   3
Atom  14H    basis set group =>   3
Atom  15H    basis set group =>   3
Atom  16H    basis set group =>   3
---------------------------------
AUXILIARY/J BASIS SET INFORMATION
---------------------------------
There are 3 groups of distinct atoms

 Group   1 Type C   : 12s5p4d2f1g contracted to 6s4p3d1f1g pattern {711111/2111/211/2/1}
 Group   2 Type N   : 12s5p4d2f1g contracted to 6s4p3d1f1g pattern {711111/2111/211/2/1}
 Group   3 Type H   : 5s2p1d contracted to 3s1p1d pattern {311/2/1}

Atom   0C    basis set group =>   1
Atom   1C    basis set group =>   1
Atom   2C    basis set group =>   1
Atom   3C    basis set group =>   1
Atom   4C    basis set group =>   1
Atom   5C    basis set group =>   1
Atom   6N    basis set group =>   2
Atom   7C    basis set group =>   1
Atom   8H    basis set group =>   3
Atom   9H    basis set group =>   3
Atom  10H    basis set group =>   3
Atom  11H    basis set group =>   3
Atom  12H    basis set group =>   3
Atom  13H    basis set group =>   3
Atom  14H    basis set group =>   3
Atom  15H    basis set group =>   3
Atom  16H    basis set group =>   3
------------------------------------------------------------------------------
                             ORCA STARTUP CALCULATIONS
                           -- RI-GTO INTEGRALS CHOSEN --
------------------------------------------------------------------------------
------------------------------------------------------------------------------
                   ___                                                        
                  /   \      - P O W E R E D   B Y -                         
                 /     \                                                     
                 |  |  |   _    _      __       _____    __    __             
                 |  |  |  | |  | |    /  \     |  _  \  |  |  /  |          
                  \  \/   | |  | |   /    \    | | | |  |  | /  /          
                 / \  \   | |__| |  /  /\  \   | |_| |  |  |/  /          
                |  |  |   |  __  | /  /__\  \  |    /   |      \           
                |  |  |   | |  | | |   __   |  |    \   |  |\   \          
                \     /   | |  | | |  |  |  |  | |\  \  |  | \   \       
                 \___/    |_|  |_| |__|  |__|  |_| \__\ |__|  \__/        
                                                                              
                      - O R C A' S   B I G   F R I E N D -                    
                                      &                                       
                       - I N T E G R A L  F E E D E R -                       
                                                                              
 v1 FN, 2020, v2 2021, v3 2022-2024                                           
------------------------------------------------------------------------------


----------------------
SHARK INTEGRAL PACKAGE
----------------------

Number of atoms                             ...     17
Number of basis functions                   ...    130
Number of shells                            ...     66
Maximum angular momentum                    ...      2
Integral batch strategy                     ... SHARK/LIBINT Hybrid
RI-J (if used) integral strategy            ... SPLIT-RIJ (Revised 2003 algorithm where possible)
Printlevel                                  ...      1
Contraction scheme used                     ... SEGMENTED contraction
Prescreening option                         ... SCHWARTZ
   Thresh                                   ... 1.000e-09
   Tcut                                     ... 1.000e-10
   Tpresel                                  ... 1.000e-10 
Coulomb Range Separation                    ... NOT USED
Exchange Range Separation                   ... NOT USED
Multipole approximations                    ... NOT USED
Finite Nucleus Model                        ... NOT USED
CABS basis                                  ... NOT available
Auxiliary Coulomb fitting basis             ... AVAILABLE
   # of basis functions in Aux-J            ...    491
   # of shells in Aux-J                     ...    165
   Maximum angular momentum in Aux-J        ...      4
Auxiliary J/K fitting basis                 ... NOT available
Auxiliary Correlation fitting basis         ... NOT available
Auxiliary 'external' fitting basis          ... NOT available

Checking pre-screening integrals            ... done (  0.0 sec) Dimension = 66
Check shell pair data                       ... done (  0.0 sec)
Shell pair information
Shell pair cut-off parameter TPreSel        ...   1.0e-10
Total number of shell pairs                 ...      2211
Shell pairs after pre-screening             ...      2103
Total number of primitive shell pairs       ...      8909
Primitive shell pairs kept                  ...      6066
          la=0 lb=0:    840 shell pairs
          la=1 lb=0:    654 shell pairs
          la=1 lb=1:    136 shell pairs
          la=2 lb=0:    314 shell pairs
          la=2 lb=1:    125 shell pairs
          la=2 lb=2:     34 shell pairs

Calculating one electron integrals          ... done (  0.0 sec)
Calculating RI/J V-Matrix + Cholesky decomp.... done (  0.1 sec)
Calculating Nuclear repulsion               ... done (  0.0 sec) ENN=    345.746307594190 Eh

Diagonalization of the overlap matrix:
Smallest eigenvalue                        ... 6.600e-04
Time for diagonalization                   ...    0.001 sec
Threshold for overlap eigenvalues          ... 1.000e-07
Number of eigenvalues below threshold      ... 0
Time for construction of square roots      ...    0.016 sec
Total time needed                          ...    0.025 sec

-------------------
DFT GRID GENERATION
-------------------

General Integration Accuracy     IntAcc      ... 4.159
Radial Grid Type                 RadialGrid  ... OptM3 with GC (2021)
Angular Grid (max. ang.)         AngularGrid ... 3 (Lebedev-194)
Angular grid pruning method      GridPruning ... 4 (adaptive)
Weight generation scheme         WeightScheme... mBecke (2022)
Basis function cutoff            BFCut       ... 1.0000e-10
Integration weight cutoff        WCut        ... 1.0000e-14
Partially contracted basis set               ... off
Rotationally invariant grid construction     ... off
Angular grids for H and He will be reduced by one unit

Total number of grid points                  ...    38789
Total number of batches                      ...      613
Average number of points per batch           ...       63
Average number of grid points per atom       ...     2282
Initializing property integral containers    ... done (  0.0 sec)

SHARK setup successfully completed in   0.6 seconds

Maximum memory used throughout the entire STARTUP-calculation: 19.2 MB
-------------------------------------------------------------------------------
                                 ORCA GUESS
                   Start orbitals & Density for SCF / CASSCF
-------------------------------------------------------------------------------

------------
SCF SETTINGS
------------
Hamiltonian:
 Density Functional     Method          .... DFT(GTOs)
 Exchange Functional    Exchange        .... PBE
   PBE kappa parameter   XKappa         ....  0.804000
   PBE mue parameter    XMuePBE         ....  0.219520
 Correlation Functional Correlation     .... PBE
   PBE beta parameter  CBetaPBE         ....  0.066725
 LDA part of GGA corr.  LDAOpt          .... PW91-LDA
 Gradients option       PostSCFGGA      .... off
   NL short-range parameter             ....  6.400000
 RI-approximation to the Coulomb term is turned on
   Number of AuxJ basis functions       .... 491


General Settings:
 Integral files         IntName         .... sp
 Hartree-Fock type      HFTyp           .... RHF
 Total Charge           Charge          ....    0
 Multiplicity           Mult            ....    1
 Number of Electrons    NEL             ....   58
 Basis Dimension        Dim             ....  130
 Nuclear Repulsion      ENuc            ....    345.7463075942 Eh

Convergence Acceleration:
 AO-DIIS                CNVDIIS         .... on
   Start iteration      DIISMaxIt       ....    12
   Startup error        DIISStart       ....  0.200000
   # of expansion vecs  DIISMaxEq       ....     5
   Bias factor          DIISBfac        ....   1.050
   Max. coefficient     DIISMaxC        ....  10.000
 MO-DIIS                CNVKDIIS        .... off
 Trust-Rad. Augm. Hess. CNVTRAH         .... auto
   Auto Start mean grad. ratio tolernc. ....  1.125000
   Auto Start start iteration           ....    50
   Auto Start num. interpolation iter.  ....    10
   Max. Number of Micro iterations      ....    24
   Max. Number of Macro iterations      .... Maxiter - #DIIS iter
   Number of Davidson start vectors     ....     2
   Converg. threshold    (grad. norm)   ....   1.000e-04
   Grad. Scal. Fac. for Micro threshold ....   0.100
   Minimum threshold for Micro iter.    ....   1.000e-02
   NR start threshold (gradient norm)   ....   1.000e-04
   Initial trust radius                 ....   0.400
   Minimum AH scaling param. (alpha)    ....   1.000
   Maximum AH scaling param. (alpha)    .... 1000.000
   Quad. conv. algorithm                .... NR
   White noise on init. David. guess    .... on
   Maximum white noise                  ....   0.010
   Pseudo random numbers                .... off
   Inactive MOs                         .... canonical
   Orbital update algorithm             .... Taylor
   Preconditioner                       .... Diag
   Full preconditioner red. dimension   ....   250
 SOSCF                  CNVSOSCF        .... on
   Start iteration      SOSCFMaxIt      ....   150
   Startup grad/error   SOSCFStart      ....  0.003300
   Hessian update       SOSCFHessUp     .... L-BFGS
 Level Shifting         CNVShift        .... on
   Level shift para.    LevelShift      ....    0.2500
   Turn off err/grad.   ShiftErr        ....    0.0010
 Zerner damping         CNVZerner       .... off
 Static damping         CNVDamp         .... on
   Fraction old density DampFac         ....    0.7000
   Max. Damping (<1)    DampMax         ....    0.9800
   Min. Damping (>=0)   DampMin         ....    0.0000
   Turn off err/grad.   DampErr         ....    0.1000

SCF Procedure:
 Maximum # iterations   MaxIter         ....   125
 SCF integral mode      SCFMode         .... Direct
   Integral package                     .... SHARK and LIBINT hybrid scheme
 Reset frequency        DirectResetFreq ....    20
 Integral Threshold     Thresh          ....  1.000e-09 Eh
 Primitive CutOff       TCut            ....  1.000e-10 Eh

Convergence Tolerance:
 Convergence Check Mode ConvCheckMode   .... Total+1el-Energy
 Convergence forced     ConvForced      .... 0
 Energy Change          TolE            ....  1.000e-05 Eh
 1-El. energy change                    ....  1.000e-02 Eh
 Orbital Gradient       TolG            ....  1.000e-04
 Orbital Rotation angle TolX            ....  1.000e-04
 DIIS Error             TolErr          ....  5.000e-04

------------------------------
INITIAL GUESS: MODEL POTENTIAL
------------------------------
Loading Hartree-Fock densities                     ... done
Calculating cut-offs                               ... done
Initializing the effective Hamiltonian             ... done
Setting up the integral package (SHARK)            ... done
Starting the Coulomb interaction                   ... done (   0.1 sec)
Making the grid                                    ... done (   0.1 sec)
Mapping shells                                     ... done
Starting the XC term evaluation                    ... done (   0.1 sec)
  promolecular density results
     # of electrons  =     58.002463572
     EX              =    -45.001614786
     EC              =     -1.909500093
     EX+EC           =    -46.911114878
Transforming the Hamiltonian                       ... done (   0.0 sec)
Diagonalizing the Hamiltonian                      ... done (   0.0 sec)
Back transforming the eigenvectors                 ... done (   0.0 sec)
Now organizing SCF variables                       ... done
                      ------------------
                      INITIAL GUESS DONE (   0.4 sec)
                      ------------------
             **** ENERGY FILE WAS UPDATED (sp.en.tmp) ****
Finished Guess after   0.6 sec
Maximum memory used throughout the entire GUESS-calculation: 14.9 MB

-------------------------------------------------------------------------------------------
                                      ORCA LEAN-SCF
                              memory conserving SCF solver
-------------------------------------------------------------------------------------------

----------------------------------------D-I-I-S--------------------------------------------
Iteration    Energy (Eh)           Delta-E    RMSDP     MaxDP     DIISErr   Damp  Time(sec)
-------------------------------------------------------------------------------------------
               ***  Starting incremental Fock matrix formation  ***
    1    -326.0628654790729115     0.00e+00  3.99e-03  8.15e-02  1.59e-01  0.700   0.6
    2    -326.1420284160597021    -7.92e-02  2.97e-03  4.68e-02  7.54e-02  0.700   0.6
                               ***Turning on AO-DIIS***
    3    -326.1713645229699523    -2.93e-02  1.27e-03  1.38e-02  2.13e-02  0.700   0.6
    4    -326.1884033523706421    -1.70e-02  1.98e-03  2.80e-02  1.04e-02  0.000   0.6
    5    -326.2262770468018971    -3.79e-02  5.21e-04  6.23e-03  5.22e-03  0.000   0.6
                              *** Initializing SOSCF ***
---------------------------------------S-O-S-C-F--------------------------------------
Iteration    Energy (Eh)           Delta-E    RMSDP     MaxDP     MaxGrad    Time(sec)
--------------------------------------------------------------------------------------
    6    -326.2266156890370894    -3.39e-04  1.79e-04  1.91e-03  1.60e-03     0.6
               *** Restarting incremental Fock matrix formation ***
    7    -326.2266417649135519    -2.61e-05  1.26e-04  1.99e-03  4.10e-04     0.7
    8    -326.2266367629378010     5.00e-06  6.08e-05  1.26e-03  7.99e-04     0.5
                 **** Energy Check signals convergence ****

               *****************************************************
               *                     SUCCESS                       *
               *           SCF CONVERGED AFTER   8 CYCLES          *
               *****************************************************

             **** ENERGY FILE WAS UPDATED (sp.en.tmp) ****

----------------
TOTAL SCF ENERGY
----------------

Total Energy       :       -326.22663676293780 Eh           -8877.07809 eV

Components:
Nuclear Repulsion  :        345.74630759418972 Eh            9408.23534 eV
Electronic Energy  :       -671.97294435712752 Eh          -18285.31342 eV
One Electron Energy:      -1124.19694008604915 Eh          -30590.95395 eV
Two Electron Energy:        452.22399572892164 Eh           12305.64053 eV

Virial components:
Potential Energy   :       -649.62382384157377 Eh          -17677.16294 eV
Kinetic Energy     :        323.39718707863597 Eh            8800.08485 eV
Virial Ratio       :          2.00874914747979

DFT components:
N(Alpha)           :       28.999809663603 electrons
N(Beta)            :       28.999809663603 electrons
N(Total)           :       57.999619327206 electrons
E(X)               :      -45.898509654411 Eh       
E(C)               :       -1.922871675316 Eh       
E(XC)              :      -47.821381329727 Eh       

---------------
SCF CONVERGENCE
---------------

  Last Energy change         ...   -5.0020e-06  Tolerance :   1.0000e-05
  Last MAX-Density change    ...    1.2568e-03  Tolerance :   1.0000e-03
  Last RMS-Density change    ...    6.0769e-05  Tolerance :   1.0000e-04
  Last DIIS Error            ...    1.5998e-03  Tolerance :   5.0000e-04
  Last Orbital Gradient      ...    7.9908e-04  Tolerance :   1.0000e-04
  Last Orbital Rotation      ...    1.1392e-03  Tolerance :   1.0000e-04


----------------
ORBITAL ENERGIES
----------------

  NO   OCC          E(Eh)            E(eV) 
   0   2.0000     -13.976868      -380.3299 
   1   2.0000      -9.917633      -269.8725 
   2   2.0000      -9.916644      -269.8456 
   3   2.0000      -9.910377      -269.6751 
   4   2.0000      -9.907891      -269.6074 
   5   2.0000      -9.900390      -269.4033 
   6   2.0000      -9.900140      -269.3965 
   7   2.0000      -9.886297      -269.0198 
   8   2.0000      -0.855145       -23.2697 
   9   2.0000      -0.743972       -20.2445 
  10   2.0000      -0.704400       -19.1677 
  11   2.0000      -0.662483       -18.0271 
  12   2.0000      -0.581145       -15.8138 
  13   2.0000      -0.565399       -15.3853 
  14   2.0000      -0.532213       -14.4823 
  15   2.0000      -0.468101       -12.7377 
  16   2.0000      -0.446053       -12.1377 
  17   2.0000      -0.414787       -11.2869 
  18   2.0000      -0.393304       -10.7024 
  19   2.0000      -0.386795       -10.5252 
  20   2.0000      -0.368001       -10.0138 
  21   2.0000      -0.355248        -9.6668 
  22   2.0000      -0.343109        -9.3365 
  23   2.0000      -0.333154        -9.0656 
  24   2.0000      -0.314365        -8.5543 
  25   2.0000      -0.303683        -8.2636 
  26   2.0000      -0.258157        -7.0248 
  27   2.0000      -0.231421        -6.2973 
  28   2.0000      -0.199974        -5.4416 
  29   0.0000      -0.053412        -1.4534 
  30   0.0000      -0.042128        -1.1463 
  31   0.0000       0.037669         1.0250 
  32   0.0000       0.056641         1.5413 
  33   0.0000       0.076185         2.0731 
  34   0.0000       0.080733         2.1969 
  35   0.0000       0.093870         2.5543 
  36   0.0000       0.106531         2.8989 
  37   0.0000       0.113874         3.0987 
  38   0.0000       0.124729         3.3940 
  39   0.0000       0.127250         3.4626 
*Only the first 10 virtual orbitals were printed.

                    ********************************
                    * MULLIKEN POPULATION ANALYSIS *
                    ********************************

-----------------------
MULLIKEN ATOMIC CHARGES
-----------------------
   0 C :   -0.272359
   1 C :   -0.127841
   2 C :    0.005836
   3 C :   -0.060257
   4 C :   -0.067270
   5 C :   -0.061110
   6 N :   -0.053174
   7 C :   -0.104360
   8 H :    0.107045
   9 H :    0.103154
  10 H :    0.109978
  11 H :    0.093959
  12 H :    0.090032
  13 H :    0.052959
  14 H :    0.060349
  15 H :    0.068194
  16 H :    0.054865
Sum of atomic charges:   -0.0000000

--------------------------------
MULLIKEN REDUCED ORBITAL CHARGES
--------------------------------
  0 C s       :     3.093050  s :     3.093050
      pz      :     1.022434  p :     3.149778
      px      :     1.046323
      py      :     1.081021
      dz2     :     0.004732  d :     0.029531
      dxz     :     0.004084
      dyz     :     0.010290
      dx2y2   :     0.008845
      dxy     :     0.001580

  1 C s       :     3.016779  s :     3.016779
      pz      :     1.055663  p :     3.074567
      px      :     0.989991
      py      :     1.028913
      dz2     :     0.004958  d :     0.036495
      dxz     :     0.007462
      dyz     :     0.010388
      dx2y2   :     0.009034
      dxy     :     0.004654

  2 C s       :     3.033928  s :     3.033928
      pz      :     0.963630  p :     2.919577
      px      :     0.992673
      py      :     0.963274
      dz2     :     0.002934  d :     0.040659
      dxz     :     0.006477
      dyz     :     0.006087
      dx2y2   :     0.012003
      dxy     :     0.013158

  3 C s       :     3.206870  s :     3.206870
      pz      :     0.971747  p :     2.818621
      px      :     0.936638
      py      :     0.910235
      dz2     :     0.003383  d :     0.034767
      dxz     :     0.005276
      dyz     :     0.003452
      dx2y2   :     0.010117
      dxy     :     0.012540

  4 C s       :     3.183522  s :     3.183522
      pz      :     0.993971  p :     2.850102
      px      :     0.957031
      py      :     0.899100
      dz2     :     0.003374  d :     0.033646
      dxz     :     0.004917
      dyz     :     0.003420
      dx2y2   :     0.009346
      dxy     :     0.012589

  5 C s       :     3.172519  s :     3.172519
      pz      :     0.962202  p :     2.834180
      px      :     0.923407
      py      :     0.948571
      dz2     :     0.003822  d :     0.054412
      dxz     :     0.003738
      dyz     :     0.009149
      dx2y2   :     0.023328
      dxy     :     0.014374

  6 N s       :     3.431039  s :     3.431039
      pz      :     1.091233  p :     3.593012
      px      :     1.101778
      py      :     1.400002
      dz2     :     0.003313  d :     0.029122
      dxz     :     0.004758
      dyz     :     0.004532
      dx2y2   :     0.009530
      dxy     :     0.006990

  7 C s       :     3.220679  s :     3.220679
      pz      :     0.970989  p :     2.829789
      px      :     0.939625
      py      :     0.919174
      dz2     :     0.004357  d :     0.053892
      dxz     :     0.008583
      dyz     :     0.003842
      dx2y2   :     0.014880
      dxy     :     0.022229

  8 H s       :     0.892955  s :     0.892955

  9 H s       :     0.896846  s :     0.896846

 10 H s       :     0.890022  s :     0.890022

 11 H s       :     0.906041  s :     0.906041

 12 H s       :     0.909968  s :     0.909968

 13 H s       :     0.947041  s :     0.947041

 14 H s       :     0.939651  s :     0.939651

 15 H s       :     0.931806  s :     0.931806

 16 H s       :     0.945135  s :     0.945135


------------------------
MULLIKEN OVERLAP CHARGES
------------------------
B(  0-C ,  1-C ) :   0.9215 B(  0-C ,  2-C ) :  -0.1280 B(  0-C ,  8-H ) :   0.7574 
B(  0-C ,  9-H ) :   0.7585 B(  0-C , 10-H ) :   0.7209 B(  1-C ,  2-C ) :   0.7758 
B(  1-C ,  3-C ) :  -0.2032 B(  1-C ,  7-C ) :  -0.1425 B(  1-C ,  8-H ) :  -0.0546 
B(  1-C ,  9-H ) :  -0.0564 B(  1-C , 11-H ) :   0.6735 B(  1-C , 12-H ) :   0.6652 
B(  2-C ,  3-C ) :   0.6946 B(  2-C ,  4-C ) :   0.1383 B(  2-C ,  5-C ) :  -0.1835 
B(  2-C ,  7-C ) :   0.7820 B(  2-C , 13-H ) :  -0.1538 B(  2-C , 16-H ) :  -0.1765 
B(  3-C ,  4-C ) :   0.6721 B(  3-C ,  5-C ) :   0.0681 B(  3-C ,  6-N ) :  -0.1374 
B(  3-C ,  7-C ) :  -0.0603 B(  3-C , 13-H ) :   0.8537 B(  3-C , 14-H ) :  -0.1602 
B(  4-C ,  5-C ) :   0.7444 B(  4-C ,  7-C ) :  -0.1487 B(  4-C , 13-H ) :  -0.1527 
B(  4-C , 14-H ) :   0.8096 B(  4-C , 15-H ) :  -0.1726 B(  5-C ,  6-N ) :   1.0429 
B(  5-C ,  7-C ) :  -0.1222 B(  5-C , 14-H ) :  -0.1174 B(  5-C , 15-H ) :   0.8086 
B(  6-N ,  7-C ) :   1.0673 B(  6-N , 15-H ) :  -0.0978 B(  6-N , 16-H ) :  -0.0930 
B(  7-C , 16-H ) :   0.8002 B( 11-H , 12-H ) :  -0.0653 


                     *******************************
                     * LOEWDIN POPULATION ANALYSIS *
                     *******************************

----------------------
LOEWDIN ATOMIC CHARGES
----------------------
   0 C :   -0.331839
   1 C :   -0.216894
   2 C :   -0.056347
   3 C :   -0.100542
   4 C :   -0.140627
   5 C :   -0.086277
   6 N :   -0.072906
   7 C :   -0.083929
   8 H :    0.122106
   9 H :    0.120002
  10 H :    0.120879
  11 H :    0.125326
  12 H :    0.123295
  13 H :    0.124600
  14 H :    0.127789
  15 H :    0.113655
  16 H :    0.111708

-------------------------------
LOEWDIN REDUCED ORBITAL CHARGES
-------------------------------
  0 C s       :     2.948836  s :     2.948836
      pz      :     1.081289  p :     3.312361
      px      :     1.100084
      py      :     1.130989
      dz2     :     0.011632  d :     0.070642
      dxz     :     0.011325
      dyz     :     0.022982
      dx2y2   :     0.021414
      dxy     :     0.003289

  1 C s       :     2.898649  s :     2.898649
      pz      :     1.083144  p :     3.229373
      px      :     1.043402
      py      :     1.102827
      dz2     :     0.012255  d :     0.088872
      dxz     :     0.019129
      dyz     :     0.024108
      dx2y2   :     0.023233
      dxy     :     0.010148

  2 C s       :     2.860984  s :     2.860984
      pz      :     0.946652  p :     3.086355
      px      :     1.043546
      py      :     1.096158
      dz2     :     0.007865  d :     0.109008
      dxz     :     0.012668
      dyz     :     0.013518
      dx2y2   :     0.036727
      dxy     :     0.038230

  3 C s       :     2.895046  s :     2.895046
      pz      :     0.970379  p :     3.113725
      px      :     1.076191
      py      :     1.067155
      dz2     :     0.007523  d :     0.091771
      dxz     :     0.011837
      dyz     :     0.006995
      dx2y2   :     0.030268
      dxy     :     0.035149

  4 C s       :     2.900806  s :     2.900806
      pz      :     0.989085  p :     3.149050
      px      :     1.081851
      py      :     1.078115
      dz2     :     0.007718  d :     0.090770
      dxz     :     0.011180
      dyz     :     0.007140
      dx2y2   :     0.029582
      dxy     :     0.035149

  5 C s       :     2.890880  s :     2.890880
      pz      :     0.960526  p :     3.062282
      px      :     1.052319
      py      :     1.049437
      dz2     :     0.008726  d :     0.133115
      dxz     :     0.006186
      dyz     :     0.019103
      dx2y2   :     0.060092
      dxy     :     0.039008

  6 N s       :     3.212318  s :     3.212318
      pz      :     1.091376  p :     3.797849
      px      :     1.241489
      py      :     1.464984
      dz2     :     0.006758  d :     0.062739
      dxz     :     0.009876
      dyz     :     0.006576
      dx2y2   :     0.022940
      dxy     :     0.016589

  7 C s       :     2.890896  s :     2.890896
      pz      :     0.967322  p :     3.060166
      px      :     1.024408
      py      :     1.068436
      dz2     :     0.009391  d :     0.132867
      dxz     :     0.017362
      dyz     :     0.007868
      dx2y2   :     0.040263
      dxy     :     0.057985

  8 H s       :     0.877894  s :     0.877894

  9 H s       :     0.879998  s :     0.879998

 10 H s       :     0.879121  s :     0.879121

 11 H s       :     0.874674  s :     0.874674

 12 H s       :     0.876705  s :     0.876705

 13 H s       :     0.875400  s :     0.875400

 14 H s       :     0.872211  s :     0.872211

 15 H s       :     0.886345  s :     0.886345

 16 H s       :     0.888292  s :     0.888292


---------------------------------
LOEWDIN BOND ORDERS (THRESH 0.050000)
---------------------------------
B(  0-C ,  1-C ) :   1.1119 B(  0-C ,  2-C ) :   0.0625 B(  0-C ,  8-H ) :   0.9404 
B(  0-C ,  9-H ) :   0.9408 B(  0-C , 10-H ) :   0.9375 B(  1-C ,  2-C ) :   1.0616 
B(  1-C ,  3-C ) :   0.0725 B(  1-C ,  7-C ) :   0.0752 B(  1-C , 11-H ) :   0.8975 
B(  1-C , 12-H ) :   0.8982 B(  2-C ,  3-C ) :   1.4382 B(  2-C ,  4-C ) :   0.0883 
B(  2-C ,  5-C ) :   0.1208 B(  2-C ,  6-N ) :   0.0871 B(  2-C ,  7-C ) :   1.4323 
B(  3-C ,  4-C ) :   1.5080 B(  3-C ,  5-C ) :   0.0907 B(  3-C ,  6-N ) :   0.1122 
B(  3-C ,  7-C ) :   0.0909 B(  3-C , 13-H ) :   0.8847 B(  4-C ,  5-C ) :   1.4978 
B(  4-C ,  6-N ) :   0.0871 B(  4-C ,  7-C ) :   0.1275 B(  4-C , 14-H ) :   0.8853 
B(  5-C ,  6-N ) :   1.6258 B(  5-C ,  7-C ) :   0.1067 B(  5-C , 15-H ) :   0.8966 
B(  6-N ,  7-C ) :   1.6394 B(  7-C , 16-H ) :   0.8907 

------------------------------------------
LOEWDIN REDUCED ORBITAL POPULATIONS PER MO
-------------------------------------------
THRESHOLD FOR PRINTING IS 0.1%%
                      0         1         2         3         4         5   
                 -13.97687  -9.91763  -9.91664  -9.91038  -9.90789  -9.90039
                   2.00000   2.00000   2.00000   2.00000   2.00000   2.00000
                  --------  --------  --------  --------  --------  --------
 1 C  s               0.0       0.0       0.0       0.0       0.0      99.4
 1 C  px              0.0       0.0       0.0       0.1       0.0       0.0
 2 C  s               0.0       0.0       0.0      99.3       0.2       0.0
 2 C  px              0.0       0.0       0.0       0.0       0.0       0.1
 2 C  py              0.0       0.1       0.0       0.0       0.1       0.0
 3 C  s               0.0       0.0       0.0       0.2      99.4       0.0
 3 C  py              0.0       0.0       0.0       0.1       0.0       0.0
 4 C  s               0.0       0.0       0.0       0.0       0.0       0.2
 4 C  px              0.0       0.0       0.0       0.0       0.1       0.0
 4 C  py              0.0       0.0       0.1       0.0       0.0       0.0
 5 C  s               0.0       0.0      99.5       0.0       0.0       0.0
 6 N  s              99.8       0.0       0.0       0.0       0.0       0.0
 6 N  px              0.0       0.2       0.0       0.0       0.0       0.0
 6 N  py              0.0       0.0       0.2       0.0       0.0       0.0
 7 C  s               0.0      99.5       0.0       0.1       0.0       0.0
 7 C  py              0.0       0.0       0.0       0.1       0.0       0.0

                      6         7         8         9        10        11   
                  -9.90014  -9.88630  -0.85515  -0.74397  -0.70440  -0.66248
                   2.00000   2.00000   2.00000   2.00000   2.00000   2.00000
                  --------  --------  --------  --------  --------  --------
 0 C  s               0.0      99.7       0.0       5.7       5.4      16.7
 0 C  pz              0.0       0.0       0.0       1.1       0.5       0.4
 0 C  px              0.0       0.0       0.0       0.7       0.2       0.0
 1 C  s               0.2       0.0       0.4      15.4       7.1       6.3
 1 C  pz              0.0       0.1       0.0       0.6       0.4       1.2
 1 C  px              0.0       0.0       0.4       1.3       0.1       4.1
 2 C  s               0.0       0.0       4.6      19.7       0.5       5.3
 2 C  px              0.0       0.0       1.6       0.8       3.1       5.1
 2 C  py              0.0       0.0       0.3       1.0       4.8       0.4
 2 C  dz2             0.0       0.0       0.1       0.2       0.0       0.0
 2 C  dx2y2           0.0       0.0       0.0       0.0       0.0       0.1
 2 C  dxy             0.0       0.0       0.0       0.0       0.1       0.0
 3 C  s               0.0       0.0       3.0      13.0      11.1       1.8
 3 C  pz              0.0       0.0       0.0       0.0       0.2       0.1
 3 C  px              0.1       0.0       0.3       0.4       4.9       1.2
 3 C  py              0.0       0.0       1.1       1.6       0.2       1.0
 3 C  dz2             0.0       0.0       0.0       0.1       0.1       0.0
 3 C  dx2y2           0.0       0.0       0.0       0.0       0.1       0.1
 4 C  s              99.3       0.0       4.1       2.3      21.7       2.4
 4 C  pz              0.0       0.0       0.0       0.1       0.0       0.1
 4 C  px              0.0       0.0       0.1       2.6       0.6       2.7
 4 C  py              0.0       0.0       2.3       0.2       0.2       0.8
 4 C  dz2             0.0       0.0       0.1       0.0       0.2       0.0
 5 C  s               0.0       0.0      13.5       1.2       4.7      10.2
 5 C  pz              0.0       0.0       0.2       0.0       0.0       0.0
 5 C  px              0.0       0.0       3.6       0.1       0.1       0.2
 5 C  py              0.1       0.0       2.5       3.0       6.8       0.1
 5 C  dz2             0.0       0.0       0.2       0.0       0.0       0.1
 5 C  dxy             0.0       0.0       0.2       0.2       0.3       0.0
 6 N  s               0.0       0.0      32.0       6.6       2.9       0.3
 6 N  pz              0.0       0.0       0.0       0.0       0.1       0.3
 6 N  px              0.0       0.0       1.1       0.2       2.3       6.5
 6 N  py              0.0       0.0       3.4       0.4       0.8       2.0
 6 N  dz2             0.0       0.0       0.1       0.0       0.0       0.0
 6 N  dx2y2           0.0       0.0       0.0       0.0       0.1       0.1
 7 C  s               0.0       0.0      14.0       0.5       5.4       9.3
 7 C  pz              0.0       0.0       0.2       0.2       0.0       0.0
 7 C  px              0.0       0.0       5.1       5.8       0.2       0.6
 7 C  py              0.0       0.0       0.8       2.6       0.3       0.4
 7 C  dz2             0.0       0.0       0.2       0.0       0.0       0.1
 7 C  dx2y2           0.0       0.0       0.2       0.2       0.1       0.0
 8 H  s               0.0       0.1       0.0       1.1       1.1       3.4
 9 H  s               0.0       0.1       0.0       1.1       1.0       3.5
10 H  s               0.0       0.1       0.0       0.9       1.0       3.9
11 H  s               0.0       0.0       0.1       2.6       1.6       1.3
12 H  s               0.0       0.0       0.1       2.8       1.2       1.5
13 H  s               0.0       0.0       0.3       2.3       1.9       0.3
14 H  s               0.1       0.0       0.4       0.4       4.0       0.6
15 H  s               0.0       0.0       1.5       0.2       0.8       2.6
16 H  s               0.0       0.0       1.5       0.1       1.3       1.9

                     12        13        14        15        16        17   
                  -0.58115  -0.56540  -0.53221  -0.46810  -0.44605  -0.41479
                   2.00000   2.00000   2.00000   2.00000   2.00000   2.00000
                  --------  --------  --------  --------  --------  --------
 0 C  s              14.6       0.1       4.1       0.1       0.0       0.0
 0 C  pz              2.1       0.0       4.7       1.7       0.0       2.3
 0 C  px              1.1       0.0       0.3       0.2       0.0      10.4
 0 C  py              0.0       0.2       0.0       0.0       3.8       0.1
 1 C  s               5.0       0.1       8.7       1.3       0.0       0.0
 1 C  pz              3.8       0.0       4.6       1.2       0.1       6.2
 1 C  px              4.3       0.0       0.9       3.0       0.1      11.1
 1 C  py              0.0       1.8       0.1       0.0      12.0       0.1
 1 C  dz2             0.1       0.0       0.0       0.0       0.0       0.0
 1 C  dxz             0.1       0.0       0.0       0.0       0.0       0.0
 1 C  dx2y2           0.0       0.0       0.1       0.1       0.0       0.1
 2 C  s               3.6       0.0       4.5       0.2       0.1       1.4
 2 C  pz              0.8       0.0       0.9       0.0       0.0       0.8
 2 C  px              4.1       0.0       4.8       2.4       0.1       7.1
 2 C  py              0.0      17.4       0.4       0.0      11.4       0.2
 2 C  dx2y2           0.0       0.0       0.1       0.3       0.0       0.3
 2 C  dxy             0.0       0.2       0.0       0.0       0.0       0.0
 3 C  s               1.4       9.1       0.5       1.6       0.3       2.0
 3 C  pz              0.2       0.2       0.0       0.1       0.3       0.5
 3 C  px              2.9       5.4       1.5       5.5       8.6       0.1
 3 C  py              1.3       0.4       7.9       9.9       4.3       0.0
 3 C  dx2y2           0.0       0.0       0.2       0.0       0.0       0.1
 3 C  dxy             0.0       0.0       0.0       0.0       0.0       0.2
 4 C  s               1.5       6.9       2.8       0.3       0.0       1.5
 4 C  pz              0.1       0.3       0.0       0.1       0.5       0.4
 4 C  px              2.4       7.9       0.4       2.1      10.4       1.7
 4 C  py              2.1       0.2       5.3       5.5       4.0       8.3
 4 C  dx2y2           0.1       0.1       0.0       0.0       0.1       0.1
 4 C  dxy             0.0       0.0       0.0       0.1       0.0       0.2
 5 C  s               5.8       1.2       2.3       2.0       0.3       1.7
 5 C  pz              0.0       0.0       0.0       0.7       0.0       0.0
 5 C  px              1.2       0.2       0.5      14.5       0.5       3.4
 5 C  py              1.0      13.0       0.2       0.9      12.6       0.5
 5 C  dx2y2           0.0       0.0       0.0       0.0       0.0       0.2
 5 C  dxy             0.0       0.3       0.0       0.0       0.1       0.1
 6 N  s               0.1       3.5       2.0       0.4       0.1       1.4
 6 N  pz              0.3       0.1       0.2       0.1       0.4       0.2
 6 N  px              7.8       2.5       3.3       1.7       9.4       0.0
 6 N  py              2.4       0.6       3.0       2.2       2.8       0.3
 6 N  dx2y2           0.1       0.0       0.1       0.1       0.1       0.0
 6 N  dxy             0.1       0.0       0.0       0.2       0.0       0.0
 7 C  s               2.1       7.6       0.0       2.0       0.0       1.4
 7 C  pz              0.2       0.2       0.1       0.1       0.4       0.8
 7 C  px              2.3       4.8       5.0       2.5       7.9       0.8
 7 C  py              1.5       0.3       7.1       7.9       1.2       3.1
 7 C  dx2y2           0.0       0.1       0.3       0.0       0.0       0.3
 8 H  s               4.8       0.0       2.6       0.4       0.6       0.6
 9 H  s               4.8       0.2       2.3       0.4       1.0       0.9
10 H  s               5.3       0.0       1.5       0.0       0.0       4.7
11 H  s               1.7       0.5       4.5       1.3       3.4       2.7
12 H  s               1.8       0.1       5.6       1.1       1.9       2.0
13 H  s               0.4       5.4       1.7       8.6       0.2       1.0
14 H  s               0.6       3.5       2.8       1.9       0.0       8.9
15 H  s               2.8       0.5       1.4       8.8       0.5       4.4
16 H  s               0.7       4.5       0.4       6.5       0.1       4.9

                     18        19        20        21        22        23   
                  -0.39330  -0.38679  -0.36800  -0.35525  -0.34311  -0.33315
                   2.00000   2.00000   2.00000   2.00000   2.00000   2.00000
                  --------  --------  --------  --------  --------  --------
 0 C  pz              0.1       0.0      11.1       0.2       1.6      24.6
 0 C  px              7.7       4.5       0.7       0.8      14.7       1.1
 0 C  py             13.2      15.7       0.0       0.5       1.1       0.8
 0 C  dz2             0.0       0.0       0.1       0.0       0.1       0.0
 0 C  dxz             0.0       0.0       0.1       0.0       0.1       0.1
 0 C  dx2y2           0.0       0.0       0.0       0.0       0.1       0.4
 1 C  s               0.1       0.1       0.2       0.1       0.2       0.0
 1 C  pz              3.0       1.6       4.4       0.0       4.7      17.9
 1 C  px              1.0       0.1       7.3       0.1       3.1       0.6
 1 C  py              9.7       9.1       0.0       0.1       0.1       0.2
 1 C  dz2             0.0       0.0       0.1       0.0       0.2       0.0
 1 C  dxz             0.0       0.0       0.0       0.0       0.0       0.1
 1 C  dx2y2           0.0       0.0       0.0       0.0       0.0       0.2
 1 C  dxy             0.1       0.1       0.0       0.0       0.0       0.0
 2 C  s               0.6       0.9       0.0       0.3       0.4       0.1
 2 C  pz              1.2       1.0      13.4       0.3       0.0       0.3
 2 C  px              3.1       1.5       2.1       0.1       1.9       0.3
 2 C  py              2.1       0.8       0.0       5.5       2.6       0.9
 2 C  dxz             0.0       0.0       0.0       0.0       0.1       0.2
 2 C  dx2y2           0.0       0.0       0.0       0.1       0.0       0.0
 2 C  dxy             0.4       0.0       0.0       0.5       0.1       0.0
 3 C  s               0.6       0.0       0.1       0.2       0.1       0.0
 3 C  pz              0.4       1.5       6.6       0.1       1.0       0.6
 3 C  px              0.3       4.3       0.0       7.8       0.8       1.2
 3 C  py              0.0       0.2       0.5      18.9       2.3       0.3
 3 C  dx2y2           0.0       0.2       0.1       0.3       0.0       0.0
 3 C  dxy             0.1       0.1       0.0       0.8       0.1       0.0
 4 C  s               0.1       0.1       0.1       0.3       0.4       0.1
 4 C  pz              0.1       0.0       5.0       1.5       4.7       1.2
 4 C  px              0.8       7.0       0.5       4.1       0.2       2.0
 4 C  py             12.3       4.2       1.6       2.8       0.1       0.0
 4 C  dx2y2           0.0       0.0       0.1       0.3       0.1       0.1
 4 C  dxy             0.2       0.1       0.0       0.4       0.2       0.0
 5 C  s               0.5       0.2       0.1       0.5       0.1       0.0
 5 C  pz              0.1       0.0      10.0       0.3       5.8       5.5
 5 C  px              1.1       2.8       3.3       7.9       7.2       2.2
 5 C  py              3.3       0.3       0.3       2.7       0.3       0.1
 5 C  dxz             0.0       0.0       0.0       0.0       0.1       0.0
 5 C  dx2y2           0.0       0.0       0.2       0.0       0.3       0.3
 5 C  dxy             0.1       0.1       0.0       0.0       0.0       0.0
 6 N  s               0.0       0.3       0.0       0.9       0.3       0.0
 6 N  pz              0.2       0.8       9.8       0.8      12.5       3.6
 6 N  px              1.3       1.5       1.0       2.2       1.0       2.8
 6 N  py              0.5       0.4       0.3       7.1       0.1       0.3
 6 N  dx2y2           0.0       0.1       0.1       0.1       0.1       0.1
 7 C  s               0.4       0.4       0.1       0.4       0.3       0.0
 7 C  pz              1.2       0.1      10.5       0.6       3.4       1.7
 7 C  px              0.6       5.0       0.0       0.6       2.3       0.9
 7 C  py              6.0       5.4       1.6       4.9       5.4       2.1
 7 C  dxy             0.0       0.1       0.1       0.0       0.1       0.1
 8 H  s               5.5       3.0       1.7       0.6       0.2       3.0
 9 H  s               2.3       5.5       1.5       0.0       0.7       7.7
10 H  s               3.6       2.5       0.1       0.4       7.5       2.7
11 H  s               1.4       3.8       0.0       0.0       0.0       4.0
12 H  s               5.3       1.7       0.0       0.0       0.2       2.3
13 H  s               0.3       0.2       0.2      18.7       1.3       0.0
14 H  s               7.4       5.1       0.3       0.4       1.1       0.8
15 H  s               0.1       0.8       3.5       3.4       4.3       3.3
16 H  s               1.1       6.5       0.7       1.1       3.5       2.3

                     24        25        26        27        28        29   
                  -0.31436  -0.30368  -0.25816  -0.23142  -0.19997  -0.05341
                   2.00000   2.00000   2.00000   2.00000   2.00000   0.00000
                  --------  --------  --------  --------  --------  --------
 0 C  s               0.0       0.0       0.1       0.6       0.0       0.2
 0 C  pz              0.8       0.5       0.5       1.7       0.0       0.2
 0 C  px              4.9       5.5       0.5       1.6       0.1       0.0
 0 C  py             16.6       4.5       0.2       0.0       0.0       0.2
 0 C  dz2             0.1       0.1       0.0       0.0       0.0       0.0
 0 C  dyz             0.8       0.3       0.0       0.0       0.0       0.0
 0 C  dx2y2           0.2       0.3       0.0       0.0       0.0       0.0
 1 C  s               0.0       0.1       0.0       0.0       0.1       0.0
 1 C  pz              0.7       0.9       0.7       2.0       0.0       0.0
 1 C  px              4.5       9.1       0.1       0.1       0.8       0.0
 1 C  py             14.8       6.8       0.1       0.0       0.0       0.1
 1 C  dxz             0.0       0.0       0.1       0.4       0.0       0.2
 1 C  dyz             0.8       0.3       0.0       0.0       0.0       0.0
 1 C  dx2y2           0.2       0.3       0.0       0.0       0.0       0.0
 2 C  s               0.4       0.3       0.0       0.0       0.4       0.0
 2 C  pz              0.1       0.6       4.3      23.2       0.0       4.7
 2 C  px              3.7       7.9       0.3       1.1       1.1       0.2
 2 C  py              0.0       3.5       0.0       0.0       3.2       0.0
 2 C  dxz             0.0       0.0       0.0       0.2       0.0       0.0
 2 C  dyz             0.0       0.0       0.5       0.1       0.0       1.3
 2 C  dx2y2           0.1       0.5       0.0       0.0       0.1       0.0
 2 C  dxy             0.2       0.2       0.0       0.0       0.0       0.1
 3 C  s               0.1       0.1       0.0       0.0       0.0       0.0
 3 C  pz              0.3       0.1      34.3       1.8       0.0      31.3
 3 C  px              0.3       6.7       1.3       0.1       0.0       1.4
 3 C  py              0.0       3.1       0.0       0.0       0.2       0.0
 3 C  dxz             0.0       0.0       0.1       0.3       0.0       0.1
 3 C  dyz             0.0       0.0       0.0       0.2       0.0       0.2
 3 C  dx2y2           0.1       0.2       0.0       0.0       0.1       0.0
 3 C  dxy             0.0       0.0       0.0       0.0       0.2       0.0
 4 C  s               0.0       0.1       0.0       0.0       0.6       0.0
 4 C  pz              0.0       0.3      20.2      14.6       0.1       9.2
 4 C  px              0.6       5.2       1.0       0.6       1.0       0.4
 4 C  py              0.3       0.6       0.0       0.0       2.9       0.0
 4 C  dz2             0.0       0.0       0.0       0.0       0.0       0.1
 4 C  dxz             0.0       0.0       0.3       0.1       0.0       0.9
 4 C  dyz             0.0       0.0       0.0       0.1       0.0       0.1
 4 C  dx2y2           0.0       0.1       0.0       0.0       0.0       0.0
 4 C  dxy             0.0       0.3       0.0       0.0       0.1       0.0
 5 C  s               0.0       0.1       0.0       0.0       0.4       0.0
 5 C  pz              0.1       0.2       0.6      24.3       0.0       6.4
 5 C  px              0.4       2.0       0.0       1.1       0.3       0.3
 5 C  py              0.4       0.4       0.0       0.0       4.1       0.0
 5 C  dyz             0.0       0.0       0.8       0.1       0.0       1.3
 5 C  dx2y2           0.0       0.3       0.0       0.0       1.4       0.0
 5 C  dxy             0.0       0.0       0.0       0.0       0.4       0.1
 6 N  s               0.4       0.0       0.0       0.0       9.6       0.0
 6 N  pz              0.0       0.0      23.9       0.5       0.5      25.3
 6 N  px              0.5       2.2       1.0       0.0      13.6       1.1
 6 N  py              1.7       0.6       0.0       0.0      44.2       0.0
 6 N  dz2             0.0       0.0       0.0       0.0       0.1       0.0
 6 N  dxz             0.0       0.0       0.0       0.3       0.0       0.0
 6 N  dyz             0.0       0.0       0.0       0.1       0.0       0.0
 7 C  s               0.6       0.0       0.0       0.0       0.4       0.0
 7 C  pz              0.1       0.2       7.2      20.9       0.1      11.4
 7 C  px              1.5       1.0       0.3       0.9       3.0       0.5
 7 C  py              0.1       1.4       0.0       0.0       1.4       0.0
 7 C  dz2             0.0       0.0       0.1       0.0       0.0       0.2
 7 C  dxz             0.0       0.0       0.4       0.1       0.0       1.0
 7 C  dyz             0.0       0.0       0.1       0.1       0.1       0.1
 7 C  dx2y2           0.2       0.3       0.0       0.0       0.0       0.1
 7 C  dxy             0.1       0.3       0.0       0.0       1.8       0.0
 8 H  s              14.7       0.4       0.1       0.1       0.0       0.2
 9 H  s               4.5       6.2       0.1       0.1       0.0       0.1
10 H  s               3.7       5.1       0.2       0.6       0.1       0.1
11 H  s               4.0      10.0       0.0       0.7       0.1       0.1
12 H  s              14.1       0.8       0.3       0.6       0.4       0.4
13 H  s               0.1       0.0       0.0       0.0       0.7       0.0
14 H  s               0.6       3.7       0.0       0.0       0.8       0.0
15 H  s               0.4       2.6       0.0       0.0       2.6       0.0
16 H  s               1.0       3.3       0.0       0.0       2.7       0.0

                     30        31        32        33        34        35   
                  -0.04213   0.03767   0.05664   0.07619   0.08073   0.09387
                   0.00000   0.00000   0.00000   0.00000   0.00000   0.00000
                  --------  --------  --------  --------  --------  --------
 0 C  s               0.9       6.8       4.6       1.8       7.3       4.7
 0 C  pz              1.0       1.6       0.6       0.2       4.7       1.2
 0 C  px              0.2       0.6       0.9       0.2       0.8       3.3
 0 C  py              0.0       0.1       0.6       4.9       0.1       0.2
 0 C  dz2             0.0       0.3       0.0       0.0       0.1       0.1
 0 C  dyz             0.0       0.0       0.1       0.5       0.0       0.0
 0 C  dx2y2           0.1       0.0       0.0       0.0       0.3       0.2
 1 C  s               0.0       5.2       3.3       0.0       3.8       0.4
 1 C  pz              0.1       3.0       0.6       0.0       1.7       0.0
 1 C  px              0.1       1.9       0.2       0.4       1.0       1.9
 1 C  py              0.0       0.1       1.4       8.2       0.3       0.1
 1 C  dz2             0.0       0.0       0.0       0.0       0.3       0.0
 1 C  dxz             0.8       0.0       0.0       0.0       0.1       0.7
 1 C  dyz             0.0       0.0       0.1       0.5       0.0       0.0
 1 C  dx2y2           0.1       0.2       0.0       0.0       0.2       0.0
 2 C  s               0.0       0.4       0.1       0.1       0.1       0.4
 2 C  pz             22.7       0.2       0.1       0.2       5.0       0.9
 2 C  px              0.9       0.3       0.1       0.1       0.0       0.8
 2 C  py              0.0       0.1       0.5       0.4       0.0       0.0
 2 C  dxz             0.1       0.0       0.2       0.0       0.2       0.3
 2 C  dyz             0.3       0.0       0.0       0.0       0.0       0.0
 2 C  dx2y2           0.0       0.3       0.3       0.3       0.0       0.3
 2 C  dxy             0.0       0.0       0.3       0.5       0.0       0.0
 3 C  s               0.0       3.0       1.3       0.1       0.0       1.9
 3 C  pz              0.1       0.0       0.2       0.0       3.2       2.6
 3 C  px              0.0       1.5       0.3       0.1       0.2       0.4
 3 C  py              0.0       2.7       3.0       0.9       0.1       1.5
 3 C  dz2             0.2       0.0       0.1       0.1       0.0       0.1
 3 C  dxz             0.9       0.0       0.0       0.0       0.1       0.0
 3 C  dyz             0.4       0.0       0.1       0.0       0.1       0.0
 3 C  dx2y2           0.1       0.0       0.2       0.1       0.0       0.0
 3 C  dxy             0.0       0.2       0.6       0.0       0.0       0.0
 4 C  s               0.0       0.5       3.6       0.7       0.2       0.9
 4 C  pz             19.6       0.3       0.4       0.0       5.0       2.5
 4 C  px              0.8       0.8       1.0       0.1       0.1       0.8
 4 C  py              0.0       0.9       4.7       0.6       0.1       1.6
 4 C  dxz             0.1       0.0       0.0       0.0       0.0       0.0
 4 C  dyz             0.6       0.1       0.0       0.0       0.2       0.1
 4 C  dx2y2           0.0       0.1       0.1       0.0       0.0       0.0
 4 C  dxy             0.0       0.4       0.7       0.0       0.0       0.0
 5 C  s               0.0       0.6       0.9       1.1       0.0       1.2
 5 C  pz             23.8       0.7       0.1       0.1       4.8       3.9
 5 C  px              1.0       0.2       2.3       1.0       0.7       2.8
 5 C  py              0.0       0.1       0.3       0.3       0.0       0.0
 5 C  dxz             0.2       0.0       0.1       0.0       0.2       0.0
 5 C  dyz             0.3       0.0       0.0       0.0       0.0       0.0
 5 C  dx2y2           0.0       0.2       0.3       0.1       0.0       0.1
 5 C  dxy             0.0       0.0       0.1       0.0       0.0       0.0
 6 N  pz              0.1       0.3       0.1       0.0       4.5       2.7
 6 N  px              0.0       0.1       0.2       0.2       0.3       0.4
 6 N  py              0.0       0.1       0.2       0.2       0.0       0.1
 6 N  dz2             0.1       0.0       0.0       0.0       0.0       0.0
 6 N  dxz             0.6       0.0       0.0       0.0       0.0       0.0
 6 N  dyz             0.3       0.0       0.0       0.0       0.1       0.0
 6 N  dxy             0.0       0.0       0.0       0.4       0.0       0.0
 7 C  s               0.0       1.7       0.1       2.3       0.1       0.9
 7 C  pz             19.4       0.0       0.0       0.1       3.7       2.9
 7 C  px              0.9       0.5       0.5       0.4       0.1       0.6
 7 C  py              0.0       0.5       0.6       5.1       0.0       1.4
 7 C  dxz             0.1       0.0       0.0       0.0       0.1       0.0
 7 C  dyz             0.5       0.0       0.0       0.0       0.1       0.0
 7 C  dx2y2           0.0       0.0       0.1       0.0       0.0       0.1
 8 H  s               0.0       3.9       6.3       2.0      18.3       0.6
 9 H  s               0.2       6.6       0.6      13.2      11.8       0.1
10 H  s               0.7       6.2       6.3       1.9       0.5      18.3
11 H  s               0.8       6.6       9.4      11.7       5.0       0.3
12 H  s               0.5      11.9       0.2       9.0      12.6       1.2
13 H  s               0.0      16.1      10.2       2.3       0.1       9.6
14 H  s               0.0       4.0      21.9       2.8       0.7       6.6
15 H  s               0.0       2.2       6.4       5.0       0.5      10.6
16 H  s               0.0       5.6       1.6      19.2       0.3       7.3

                     36        37        38        39        40        41   
                   0.10653   0.11387   0.12473   0.12725   0.13855   0.16828
                   0.00000   0.00000   0.00000   0.00000   0.00000   0.00000
                  --------  --------  --------  --------  --------  --------
 0 C  s               2.3       0.4       0.0       0.0       0.0       1.9
 0 C  pz              1.8       0.3       0.0       1.8       0.2       5.9
 0 C  px              0.9       8.2       0.1       9.6       0.4       7.3
 0 C  py              0.0       1.1       7.9       3.1       9.3       0.0
 0 C  dz2             0.3       0.1       0.0       0.0       0.0       0.2
 0 C  dxz             0.4       0.4       0.0       0.0       0.0       2.7
 0 C  dyz             0.0       0.1       0.0       0.3       0.5       0.0
 0 C  dx2y2           0.1       0.2       0.0       0.7       0.1       0.0
 0 C  dxy             0.0       0.0       0.9       0.0       0.1       0.0
 1 C  s               8.0       1.0       0.2       2.8       0.5       3.7
 1 C  pz              0.7       1.5       0.0       0.9       0.1      14.0
 1 C  px              0.2       0.2       0.0       0.4       0.0       1.6
 1 C  py              0.7       1.4      12.1       0.3       0.4       0.3
 1 C  dz2             0.1       0.5       0.0       0.6       0.0       0.5
 1 C  dxz             0.5       0.1       0.0       0.0       0.0       0.0
 1 C  dyz             0.1       0.2       0.3       0.2       0.5       0.0
 1 C  dx2y2           0.1       0.1       0.0       0.0       0.0       3.1
 1 C  dxy             0.0       0.0       1.0       0.0       0.0       0.0
 2 C  s               0.5       0.8       0.0       0.0       0.1       9.2
 2 C  pz              4.2       2.2       0.0       0.4       0.0       2.1
 2 C  px              0.2       0.2       0.1       1.9       0.2       2.4
 2 C  py              0.1       0.1       0.7       0.3       1.3       0.0
 2 C  dz2             0.1       0.3       0.0       0.0       0.0       3.3
 2 C  dx2y2           0.9       0.0       0.0       0.9       0.0       0.0
 2 C  dxy             0.0       0.0       1.4       0.0       0.0       0.0
 3 C  s               1.3       0.2       2.3       0.4       3.2       4.2
 3 C  pz              3.9       2.4       0.7       0.5       0.3       1.0
 3 C  px              2.0       0.1       0.7       0.3       0.2       0.7
 3 C  py              1.1       0.2       0.1       0.1       3.3       1.1
 3 C  dz2             0.1       0.0       0.1       0.0       0.3       0.1
 3 C  dx2y2           0.4       0.1       0.2       0.3       0.0       0.0
 3 C  dxy             0.0       0.0       0.0       0.0       0.0       0.5
 4 C  s               0.3       2.6       1.0       0.3       3.8       0.4
 4 C  pz              5.0       2.5       0.1       0.2       0.0       0.4
 4 C  px              0.3       0.3       0.1       1.1       0.6       0.6
 4 C  py              0.0       1.2       0.1       0.7       1.3       0.3
 4 C  dz2             0.0       0.1       0.2       0.0       0.2       0.1
 4 C  dxz             0.1       0.0       0.0       0.0       0.1       0.0
 4 C  dyz             0.1       0.1       0.0       0.0       0.0       0.0
 4 C  dx2y2           0.0       0.0       0.2       0.0       0.1       0.5
 4 C  dxy             0.1       0.1       0.0       0.0       0.3       0.1
 5 C  s               3.0       4.1       0.3       0.6       1.1       1.8
 5 C  pz              3.5       2.7       0.0       0.2       0.0       0.7
 5 C  px              5.4       1.9       0.4       0.3       0.7       0.4
 5 C  py              0.0       0.0       0.3       0.0       0.7       1.0
 5 C  dz2             0.0       0.3       0.0       0.0       0.0       0.5
 5 C  dxz             0.3       0.0       0.0       0.0       0.0       0.2
 5 C  dx2y2           0.0       0.0       0.0       0.0       0.0       0.1
 5 C  dxy             0.0       0.0       0.2       0.0       0.2       0.2
 6 N  s               0.3       0.2       0.2       0.2       0.3       4.5
 6 N  pz              4.9       2.2       0.1       0.3       0.0       0.6
 6 N  px              0.0       0.2       0.2       0.5       0.1       0.0
 6 N  py              0.2       0.3       0.1       0.1       0.0       0.2
 6 N  dxy             0.1       0.2       0.0       0.1       0.0       0.1
 7 C  s               0.0       0.7       2.8       1.5       1.2       5.6
 7 C  pz              3.4       2.3       0.5       1.2       0.2       0.9
 7 C  px              2.0       0.2       1.3       1.7       0.1       4.6
 7 C  py              0.4       1.2       0.5       2.6       1.6       0.3
 7 C  dz2             0.0       0.1       0.2       0.1       0.1       0.6
 7 C  dxz             0.0       0.1       0.0       0.0       0.0       0.1
 7 C  dx2y2           0.5       0.0       0.0       0.8       0.0       0.4
 7 C  dxy             0.0       0.1       0.0       0.1       0.0       0.4
 8 H  s               1.1       0.3       8.5      14.8       7.9       0.4
 9 H  s               0.7       7.0       9.2       0.1      14.7       0.3
10 H  s               0.3      11.1       0.3      20.4       1.4       1.4
11 H  s               2.2       3.2      18.6       5.0       1.4       2.0
12 H  s              10.4       1.1      13.6       1.5       1.1       1.3
13 H  s               5.5       0.5       3.0       0.4      14.5       0.4
14 H  s               0.5      10.7       1.0       4.9      14.1       0.0
15 H  s              16.6      16.2       2.0       2.0       4.8       0.6
16 H  s               1.5       3.3       6.2      12.1       5.9       1.6

                     42        43        44        45        46        47   
                   0.20473   0.21265   0.26214   0.27083   0.30314   0.30930
                   0.00000   0.00000   0.00000   0.00000   0.00000   0.00000
                  --------  --------  --------  --------  --------  --------
 0 C  s               0.8       0.0       0.0       0.0       0.0       0.0
 0 C  pz             11.8       1.0       3.7       1.8       0.6       0.5
 0 C  px              3.9       0.0       1.0       0.9       0.3       0.3
 0 C  py              0.0       0.0       0.0       0.1       0.2       0.0
 0 C  dz2             2.2       0.7       0.3       0.3       0.0       0.0
 0 C  dxz             1.6       0.1       0.9       0.1       0.0       0.1
 0 C  dyz             0.0       0.0       0.0       0.1       0.3       0.0
 0 C  dx2y2           0.1       0.0       0.4       0.2       0.0       0.3
 1 C  s               0.3       0.7       2.2       0.3       0.0       0.1
 1 C  pz              9.8       0.2       5.3       0.2       0.6       0.7
 1 C  px             10.7      14.7       1.5       6.4       0.4       1.0
 1 C  py              0.4       0.6       0.1       0.1       0.4       2.1
 1 C  dz2             2.0       0.6       0.0       0.4       0.1       0.0
 1 C  dxz             1.3       0.7       0.0       0.4       0.0       0.0
 1 C  dyz             0.0       0.0       0.0       0.0       0.0       0.3
 1 C  dx2y2           0.3       3.2       0.0       0.6       0.1       0.8
 1 C  dxy             0.1       0.0       0.0       0.3       2.1       0.7
 2 C  s               3.5      12.8       4.1       2.9       3.4       4.2
 2 C  pz              2.7       0.4       0.0       1.1       0.3       0.1
 2 C  px              1.2       2.6       2.7       6.7       1.7       0.4
 2 C  py              0.1       0.1       0.1       3.8      10.6       1.1
 2 C  dz2             0.1       1.1       0.4       0.1       0.4       0.1
 2 C  dxz             0.4       0.3       0.0       0.0       0.0       0.0
 2 C  dyz             0.0       0.0       0.0       0.0       0.2       0.1
 2 C  dx2y2           0.0       0.5       2.2       0.9       0.6       0.2
 2 C  dxy             0.3       0.3       0.0       0.5       4.0       1.9
 3 C  s               1.9       0.3       4.4       7.4       1.3       4.4
 3 C  pz              0.6       0.2       0.8       0.1       0.1       0.2
 3 C  px              1.6       2.2       6.6       3.2       0.6       1.1
 3 C  py              0.7       1.1       0.6       7.1       0.7       1.6
 3 C  dz2             0.3       0.0       1.0       2.1       0.2       1.6
 3 C  dxz             0.1       0.0       0.5       0.0       0.3       0.4
 3 C  dyz             0.2       0.1       0.0       0.1       0.1       0.0
[...]
 4 C  py              0.1       0.1       0.1       1.6       0.5       0.0
 4 C  dz2             0.3       0.0       0.6       0.0       1.5       0.5
 4 C  dxz             0.5       0.1       0.1       1.0       0.7       3.3
 4 C  dyz             0.2       0.2       0.2       0.1       0.8       1.9
 4 C  dx2y2           0.2       0.5       7.5      18.0       2.6       0.4
 4 C  dxy             0.7       0.9       4.1       1.2      17.2       0.1
 5 C  s               0.3       0.4       3.0       0.3       0.4       0.0
 5 C  pz              0.5       0.0       0.0       0.0       0.0       0.1
 5 C  px              0.0       0.1       0.9       0.1       0.2       0.0
 5 C  py              0.0       0.0       0.4       2.1       1.6       0.0
 5 C  dz2             0.0       1.5       2.6       0.0       0.5       0.0
 5 C  dxz             4.7       0.3       1.1       0.0       0.3       0.3
 5 C  dyz             3.2       0.2       0.0       0.8       0.0      14.9
 5 C  dx2y2           1.7       1.8       4.9       0.4      13.4       0.0
 5 C  dxy             0.2       0.3       0.4      16.6       0.0       0.7
 6 N  s               0.1       0.2       2.1       3.0       0.3       0.0
 6 N  pz              1.6       0.1       0.0       0.0       0.1       0.0
 6 N  px              0.2       0.4       0.3       0.4       1.5       0.0
 6 N  py              0.1       0.3       1.4       1.3       0.3       0.0
 6 N  dz2             0.2       2.3      25.0       7.9       1.9       5.1
 6 N  dxz             9.2       0.0       2.1       0.8       0.2      32.0
 6 N  dyz            28.4       2.0       0.2       0.2       0.1      11.2
 6 N  dx2y2           0.3       0.6       5.5       0.6       0.3       1.2
 6 N  dxy             1.4       0.3       7.9       3.0       1.5       0.7
 7 C  s               0.3       0.4       1.6       0.1       0.5       0.0
 7 C  pz              0.4       0.1       0.0       0.0       0.0       0.1
 7 C  px              0.2       0.6       0.1       1.1       0.0       0.0
 7 C  py              0.2       0.4       0.8       0.6       0.1       0.0
 7 C  dz2             0.0       2.2       2.7       0.0       0.5       1.8
 7 C  dxz             8.3       0.0       0.2       0.4       0.8      11.7
 7 C  dyz             1.6       1.4       0.1       0.2       0.3       2.3
 7 C  dx2y2           0.3       0.2       1.0       6.9       7.2       0.5
 7 C  dxy             2.0       3.0       1.8       7.4       7.2       0.1
 8 H  s               0.0       0.1       0.0       0.0       0.0       0.0
10 H  s               0.1       0.2       0.0       0.0       0.0       0.0
11 H  s               0.0       0.1       0.1       0.0       0.0       0.0
12 H  s               0.1       0.1       0.0       0.0       0.1       0.0
13 H  s               0.1       0.0       0.2       0.0       0.1       0.0
14 H  s               0.0       0.1       0.0       0.0       0.9       0.0
15 H  s               0.0       0.1       0.6       0.0       0.7       0.0
16 H  s               0.0       0.1       0.4       0.0       0.6       0.0

                    126       127       128       129   
                   2.80172   2.80941   3.17346   3.37934
                   0.00000   0.00000   0.00000   0.00000
                  --------  --------  --------  --------
 0 C  dxz             0.0       0.2       0.0       0.0
 1 C  s               0.0       0.6       0.0       0.1
 1 C  px              0.0       1.1       0.0       0.2
 1 C  dz2             0.0       1.2       0.0       0.0
 1 C  dxz             0.0       0.5       0.0       0.0
 1 C  dyz             0.3       0.0       0.0       0.0
 1 C  dx2y2           0.4       3.7       0.0       0.7
 1 C  dxy             4.5       0.1       0.4       0.0
 2 C  s               0.4       0.1       0.0       0.5
 2 C  px              0.1       1.0       0.1       0.2
 2 C  py              1.8       1.8       0.5       0.0
 2 C  dz2             0.0       0.2       0.0       0.3
 2 C  dxz             0.2       0.8       0.0       0.3
 2 C  dyz             0.9       0.1       0.1       0.0
 2 C  dx2y2           0.9      16.8       0.1      11.4
 2 C  dxy            28.1       2.2       3.1       0.0
 3 C  s               0.0       0.8       0.0       0.7
 3 C  pz              0.1       0.0       0.0       0.0
 3 C  px              2.8       0.3       0.4       0.0
 3 C  py              1.4       0.7       0.2       0.0
 3 C  dz2             0.0       0.2       0.0       0.3
 3 C  dxz             0.8       0.1       0.0       0.3
 3 C  dyz             0.1       0.7       0.0       0.3
 3 C  dx2y2          23.5       0.7       0.9       2.4
 3 C  dxy             1.5      14.7       0.2       6.1
 4 C  s               1.0       0.0       0.0       0.9
 4 C  pz              0.1       0.0       0.0       0.0
 4 C  px              2.7       0.1       0.4       0.0
 4 C  py              0.1       0.4       0.3       0.1
 4 C  dz2             0.0       0.0       0.0       0.4
 4 C  dxz             0.5       0.0       0.1       0.3
 4 C  dyz             0.0       0.2       0.0       0.3
 4 C  dx2y2           6.2       0.0       1.8       1.7
 4 C  dxy             0.4       4.6       0.1       7.6
 5 C  s               2.1       0.2       1.6       1.4
 5 C  px              0.6       0.1       0.6       0.0
 5 C  py              0.2       1.4       3.4       0.1
 5 C  dz2             0.8       1.0       0.2       1.2
 5 C  dxz             0.0       0.0       0.0       0.1
 5 C  dyz             0.0       0.0       0.3       0.0
 5 C  dx2y2           0.3       1.2       0.0      12.9
 5 C  dxy             0.0       0.2       7.8       0.0
 6 N  s               0.4       2.3       0.0       1.8
 6 N  pz              0.0       0.0       0.2       0.0
 6 N  px              0.4       0.2       4.8       0.1
 6 N  py              0.4       0.2       1.5       0.1
 6 N  dz2             1.6      15.1       0.0       2.4
 6 N  dxz             0.2       3.9       1.7       1.4
 6 N  dyz             0.5       0.2       0.7       0.8
 6 N  dx2y2           3.2       5.5      38.3       6.5
 6 N  dxy             5.5       5.6      13.8      18.3
 7 C  s               1.4       1.8       1.7       1.3
 7 C  pz              0.0       0.1       0.2       0.0
 7 C  px              0.2       1.7       4.2       0.1
 7 C  py              1.4       0.0       0.1       0.0
 7 C  dz2             0.0       2.3       0.1       0.8
 7 C  dxz             0.0       0.1       0.5       0.5
 7 C  dyz             0.1       0.0       0.1       0.4
 7 C  dx2y2           0.9       1.4       7.5       3.3
 7 C  dxy             0.2       0.3       1.7       9.8
13 H  s               0.1       0.7       0.0       0.3
14 H  s               0.0       0.3       0.0       0.4
15 H  s               0.0       0.0       0.0       0.3
16 H  s               0.0       0.1       0.0       0.3


                      *****************************
                      * MAYER POPULATION ANALYSIS *
                      *****************************

  NA   - Mulliken gross atomic population
  ZA   - Total nuclear charge
  QA   - Mulliken gross atomic charge
  VA   - Mayer's total valence
  BVA  - Mayer's bonded valence
  FA   - Mayer's free valence

  ATOM       NA         ZA         QA         VA         BVA        FA
  0 C      6.2724     6.0000    -0.2724     4.0159     4.0159    -0.0000
  1 C      6.1278     6.0000    -0.1278     4.0404     4.0404    -0.0000
  2 C      5.9942     6.0000     0.0058     3.9980     3.9980    -0.0000
  3 C      6.0603     6.0000    -0.0603     3.8991     3.8991    -0.0000
  4 C      6.0673     6.0000    -0.0673     3.8377     3.8377    -0.0000
  5 C      6.0611     6.0000    -0.0611     4.0165     4.0165     0.0000
  6 N      7.0532     7.0000    -0.0532     3.2321     3.2321     0.0000
  7 C      6.1044     6.0000    -0.1044     4.0200     4.0200    -0.0000
  8 H      0.8930     1.0000     0.1070     0.9587     0.9587     0.0000
  9 H      0.8968     1.0000     0.1032     0.9591     0.9591     0.0000
 10 H      0.8900     1.0000     0.1100     0.9478     0.9478     0.0000
 11 H      0.9060     1.0000     0.0940     0.9497     0.9497    -0.0000
 12 H      0.9100     1.0000     0.0900     0.9496     0.9496    -0.0000
 13 H      0.9470     1.0000     0.0530     0.9603     0.9603     0.0000
 14 H      0.9397     1.0000     0.0603     0.9538     0.9538    -0.0000
 15 H      0.9318     1.0000     0.0682     0.9557     0.9557    -0.0000
 16 H      0.9451     1.0000     0.0549     0.9680     0.9680     0.0000

  Mayer bond orders larger than 0.100000
B(  0-C ,  1-C ) :   1.1449 B(  0-C ,  8-H ) :   0.9548 B(  0-C ,  9-H ) :   0.9553 
B(  0-C , 10-H ) :   0.9487 B(  1-C ,  2-C ) :   1.0635 B(  1-C , 11-H ) :   0.9094 
B(  1-C , 12-H ) :   0.9106 B(  2-C ,  3-C ) :   1.4223 B(  2-C ,  7-C ) :   1.3622 
B(  3-C ,  4-C ) :   1.4077 B(  3-C , 13-H ) :   0.9555 B(  4-C ,  5-C ) :   1.3795 
B(  4-C , 14-H ) :   0.9471 B(  5-C ,  6-N ) :   1.5470 B(  5-C , 15-H ) :   0.9531 
B(  6-N ,  7-C ) :   1.5583 B(  7-C , 16-H ) :   0.9525 

-------
TIMINGS
-------

Total SCF time: 0 days 0 hours 0 min 5 sec 

Total time                  ....       5.070 sec
Sum of individual times     ....       4.671 sec  ( 92.1%)

SCF preparation             ....       0.143 sec  (  2.8%)
Fock matrix formation       ....       3.940 sec  ( 77.7%)
  Startup                   ....       0.045 sec  (  1.1% of F)
  Split-RI-J                ....       1.289 sec  ( 32.7% of F)
  XC integration            ....       2.189 sec  ( 55.5% of F)
    XC Preparation          ....       0.000 sec  (  0.0% of XC)
    Basis function eval.    ....       0.670 sec  ( 30.6% of XC)
    Density eval.           ....       0.295 sec  ( 13.5% of XC)
    XC-Functional eval.     ....       0.171 sec  (  7.8% of XC)
    XC-Potential eval.      ....       0.485 sec  ( 22.2% of XC)
Diagonalization             ....       0.000 sec  (  0.0%)
Density matrix formation    ....       0.133 sec  (  2.6%)
Total Energy calculation    ....       0.023 sec  (  0.5%)
Population analysis         ....       0.057 sec  (  1.1%)
Orbital Transformation      ....       0.042 sec  (  0.8%)
Orbital Orthonormalization  ....       0.000 sec  (  0.0%)
DIIS solution               ....       0.273 sec  (  5.4%)
  MO trafo                  ....       0.000 sec  (  0.0 % of DIIS)
  Orb grad                  ....       0.000 sec  (  0.0 % of DIIS)
  Energy W gradient         ....       0.000 sec  (  0.0 % of DIIS)
  DIIS error                ....       0.002 sec  (  0.7 % of DIIS)
  DIIS work                 ....       0.238 sec  ( 87.0 % of DIIS)
  Form Q                    ....       0.000 sec  (  0.0 % of DIIS)
  Form QpQm                 ....       0.000 sec  (  0.0 % of DIIS)
  Exp/Cayley                ....       0.000 sec  (  0.0 % of DIIS)
  Orb update                ....       0.000 sec  (  0.0 % of DIIS)
  Wake-sleep                ....       0.014 sec  (  5.0 % of DIIS)
SOSCF solution              ....       0.060 sec  (  1.2%)
  MO trafo                  ....       0.034 sec  ( 56.3 % of SOSCF)
  Orb grad                  ....       0.001 sec  (  1.9 % of SOSCF)
  Rot update                ....       0.012 sec  ( 20.6 % of SOSCF)
  Step                      ....       0.013 sec  ( 21.1 % of SOSCF)
Finished LeanSCF after   5.1 sec

Maximum memory used throughout the entire LEANSCF-calculation: 12.1 MB


-------------------------------------------------------------------------------
                          DFT DISPERSION CORRECTION                            
                                                                               
                                DFTD4 V3.4.0                                   
-------------------------------------------------------------------------------
The PBE functional is recognized
Active option DFTDOPT                   ...         5   

-------------------------   ----------------
Dispersion correction           -0.016281636
-------------------------   ----------------

------------------   -----------------
gCP correction             0.065501564
------------------   -----------------

-------------------------   --------------------
FINAL SINGLE POINT ENERGY      -326.177416834574
-------------------------   --------------------


------------------------------------------------------------------------------
                              ORCA PROPERTY CALCULATIONS
------------------------------------------------------------------------------

GBWName                                 ... sp.gbw
Number of atoms                         ...     17
Number of basis functions               ...    130
Max core memory                         ...   1024 MB

Electric properties:
Dipole moment                           ... YES
Quadrupole moment                       ...  NO
Static polarizability (Dipole/Dipole)   ...  NO
Static polarizability (Dipole/Quad.)    ...  NO
Static polarizability (Quad./Quad.)     ...  NO
Static polarizability (Velocity)        ...  NO

Atomic electric properties:
Dipole moment                           ...  NO
Quadrupole moment                       ...  NO
Static polarizability                   ...  NO

Choice of electric origin               ... Center of mass
Position of electric origin             ...     0.000007    -0.000003     0.000002

General magnetic properties:
Magnetizability                         ...  NO

EPR properties:
g-Tensor (aka g-matrix)                 ...  NO
Zero-Field splitting spin-orbit         ...  NO
Zero-field splitting spin-spin          ...  NO
Hyperfine couplings                     ...  NO (   0 nuclei)
Quadrupole couplings                    ...  NO (   0 nuclei)
Contact density                         ...  NO (   0 nuclei)

NMR properties:
Chemical shifts                         ...  NO (   0 nuclei)
Spin-rotation constants                 ...  NO (   0 nuclei)
Spin-spin couplings                     ...  NO (   0 nuclei,    0 pairs)

Choice of magnetic origin               ... GIAO
Position of magnetic origin             ...     0.000000     0.000000     0.000000

Properties with geometric perturbations:
SCF Hessian                             ...  NO
IR spectrum                             ...  NO
VCD spectrum                            ...  NO
X-ray spectroscopy properties:
SCF XES/XAS/RIXS spectra                ...  NO


-------------
DIPOLE MOMENT
-------------

Method             : SCF
Type of density    : Electron Density
Multiplicity       :   1
Irrep              :   0
Energy             :  -326.2266367629378010 Eh
Relativity type    : 
Basis              : AO
                                X                 Y                 Z
Electronic contribution:     -7.416235915      -1.134552825      -0.960021261
Nuclear contribution   :      7.999582949       1.820456936       0.890665918
                        -----------------------------------------
Total Dipole Moment    :      0.583347034       0.685904112      -0.069355342
                        -----------------------------------------
Magnitude (a.u.)       :      0.903088243
Magnitude (Debye)      :      2.295467891



--------------------
Rotational spectrum 
--------------------
 
Rotational constants in cm-1:             0.155900             0.050678             0.042162 
Rotational constants in MHz :          4673.758655          1519.292730          1263.995349 

Dipole components along the rotational axes: 
x,y,z [a.u.] :     0.583347    -0.685904    -0.069356 
x,y,z [Debye]:     1.482751    -1.743429    -0.176288 

 

Dipole moment calculation done in   0.0 sec 

Maximum memory used throughout the entire PROP-calculation: 7.7 MB

--------------------------------
SUGGESTED CITATIONS FOR THIS RUN
--------------------------------

Below you find a list of papers that are relevant to this ORCA run
We neither can nor want to force you to cite these papers, but we appreciate if you do
You receive ORCA, which is the product of decades of hard work by many enthusiastic individuals, for free
The only thing we kindly ask in return is that you cite our papers,
We deeply appreciate it, if you show your appreciation for ORCA by not just citing the generic ORCA reference.

Please note that relegating all ORCA citations to the supporting information does *not* help us.
SI sections are not indexed - citations you put there will not count into any citation statistics
But we need these citations in order to attract the funding resources that allow us to do what we are doing

Therefore, if you are a happy ORCA user, please consider citing a few of the papers listed below in the main body of your paper

In addition to the list printed below, the program has created the file sp.bibtex that contains the list in bibtex format
You can import this file easily into all common literature databanks and citation aid programs


List of essential papers. We consider these as the minimum necessary citations

  1. Neese,F.
     Software update: the ORCA program system, version 5.0
     WIRES Comput. Molec. Sci., 2022 12(1)e1606
     doi.org/10.1002/wcms.1606

List of papers to cite with high priority. The work reported in these papers was absolutely
necessary for this run to complete.
Our perspective: the developers of density functionals and basis sets usually get cited in chemistry papers
Good! But without the algorithms to do something with them, the functionals or basis sets would not do anything.
Hence, in our opinion, the algorithm design and method developments papers are equally worthy of getting cited

  1. Neese,F.
     An improvement of the resolution of the identity approximation for the formation of the Coulomb matrix
     J. Comp. Chem., 2003 24(14)1740-1747
     doi.org/10.1002/jcc.10318
  2. Neese,F.
     The SHARK Integral Generation and Digestion System
     J. Comp. Chem., 2022  1-16
     doi.org/10.1002/jcc.26942
  3. Caldeweyher,E.; Bannwarth,C.; Grimme,S.
     Extension of the D3 dispersion coefficient model
     J. Chem. Phys., 2017 147 034112-XXXX
     doi.org/10.1063/1.4993215
  4. Caldeweyher,E.; Ehlert,S.; Hansen,A.; Neugebauer,H.; Spicher,S.; Bannwarth,C.; Grimme,S.
     A generally applicable atomic-charge dependent London dispersion correction
     J. Chem. Phys., 2019 150 154122-XXXX
     doi.org/10.1063/1.5090222
  5. Caldeweyher,E.; Mewes,J.; Ehlert,S.; Grimme,S.
     Extension and evaluation of the D4 London-dispersion model for periodic systems
     Phys. Chem. Chem. Phys., 2020 22(16)8499-8512
     doi.org/10.1039/D0CP00502A

List of suggested additional citations. These are papers that are important in the 'surrounding' of 
of this run, or papers that preceded the highly important papers. If you like your results we are grateful for a citation.

  1. Neese,F.
     The ORCA program system
     WIRES Comput. Molec. Sci., 2012 2(1)73-78
     doi.org/10.1002/wcms.81
  2. Neese,F.
     Software update: the ORCA program system, version 4.0
     WIRES Comput. Molec. Sci., 2018 8(1)1-6
     doi.org/10.1002/wcms.1327
  3. Neese,F.; Wennmohs,F.; Becker,U.; Riplinger,C.
     The ORCA quantum chemistry program package
     J. Chem. Phys., 2020 152 Art. No. L224108
     doi.org/10.1063/5.0004608

List of optional additional citations

  1. Neese,F.
     Approximate second-order SCF convergence for spin unrestricted wavefunctions
     Chem. Phys. Lett., 2000 325(1-3)93-98
     doi.org/10.1016/s0009-2614(00)00662-x

Timings for individual modules:

Sum of individual times          ...        6.420 sec (=   0.107 min)
Startup calculation              ...        0.612 sec (=   0.010 min)   9.5 %
SCF iterations                   ...        5.726 sec (=   0.095 min)  89.2 %
Property calculations            ...        0.081 sec (=   0.001 min)   1.3 %
                             ****ORCA TERMINATED NORMALLY****
TOTAL RUN TIME: 0 days 0 hours 0 minutes 6 seconds 992 msec
