24
 energy: -35.065610212848 gnorm: 0.020107919528 xtb: 6.7.1 (edcfbbe)
C            3.64804417885930        0.71056581651294       -0.00042155811690
C            3.64803502271534       -0.71060072547682       -0.00021985766051
C            2.46897923773707       -1.40582800163654        0.00011386845672
C            1.21918487388423       -0.72159396521929        0.00018825816057
C           -0.00001547605221       -1.40514803420175        0.00020579855573
C           -1.21920933254066       -0.72157206581752        0.00008069359098
C           -2.46901129718812       -1.40578288847743       -0.00023514220156
C           -3.64805912822334       -0.71053433582906       -0.00044314548598
C           -3.64804384271619        0.71062693562859       -0.00025391609975
C           -2.46897852521222        1.40584298044132        0.00006495040315
C           -1.21919654789733        0.72159965768021        0.00016121560379
C            0.00000824114450        1.40515253003362        0.00019392573673
C            1.21919649723125        0.72157956289236        0.00009578835903
C            2.46899569332163        1.40580236157722       -0.00021345660133
H            4.59422149981391        1.24260444792072       -0.00076882342284
H            4.59420573581368       -1.24265118052560       -0.00033161784200
H            2.46487390352862       -2.49224975228831        0.00027345912594
H           -0.00002898917701       -2.49239647070232        0.00021922340513
H           -2.46493744348220       -2.49220506205878       -0.00037024394438
H           -4.59423353525225       -1.24257892680059       -0.00076996449554
H           -4.59420463903652        1.24269480156387       -0.00037249025905
H           -2.46486468330440        2.49226399211874        0.00020525089622
H            0.00001204589186        2.49240022886174        0.00020049753608
H            2.46489318667705        2.49222384183955       -0.00035722993277
24
 energy: -35.066776626681 gnorm: 0.003830276366 xtb: 6.7.1 (edcfbbe)
C            3.63695628398898        0.70630086116125       -0.00039244488706
C            3.63694560680669       -0.70634001813280       -0.00020296289797
C            2.46259584242425       -1.39677224042323        0.00008766685708
C            1.21628003789072       -0.71675422010923        0.00014575904065
C           -0.00001629610546       -1.39623573063900        0.00016727122466
C           -1.21630426314355       -0.71673273224810        0.00005273366288
C           -2.46262903704796       -1.39672792663144       -0.00022035203481
C           -3.63696946390531       -0.70627454641158       -0.00041101497297
C           -3.63695572757332        0.70636282120183       -0.00023938838984
C           -2.46259976492078        1.39678855109052        0.00004412357148
C           -1.21629152366012        0.71676422934193        0.00012204596758
C            0.00000783649772        1.39624554275257        0.00015534060036
C            1.21629206467362        0.71674374643933        0.00006353983743
C            2.46261541685334        1.39674696280495       -0.00020745118802
H            4.58069654501513        1.23376723815358       -0.00068336261468
H            4.58067830582283       -1.23382007792490       -0.00030801628422
H            2.45842554379707       -2.47843945667658        0.00022981578465
H           -0.00002841436421       -2.47877849311125        0.00019525305621
H           -2.45848543337849       -2.47839532137551       -0.00032768862940
H           -4.58070771329513       -1.23374485472497       -0.00069647843296
H           -4.58068236064613        1.23385356178405       -0.00035289221968
H           -2.45842391934552        2.47845558458189        0.00016863652130
H            0.00001376751900        2.47878811101882        0.00017397776832
H            2.45845334263262        2.47841415611474       -0.00031862757354
24
 energy: -35.066818578743 gnorm: 0.001025418465 xtb: 6.7.1 (edcfbbe)
C            3.63400493581165        0.70566140582037       -0.00034631771869
C            3.63399331858935       -0.70570370014069       -0.00019181756971
C            2.46042229999973       -1.39520340349649        0.00005426692332
C            1.21532869359483       -0.71546920180505        0.00010504575520
C           -0.00001696206091       -1.39451090063047        0.00012741048189
C           -1.21535271391836       -0.71544784140552        0.00002814967705
C           -2.46045653860025       -1.39515961962092       -0.00020143215827
C           -3.63401699037970       -0.70563893930251       -0.00036847513728
C           -3.63400404367079        0.70572416584058       -0.00022868119073
C           -2.46042960576433        1.39522055785793        0.00001463914315
C           -1.21534001370108        0.71548285757464        0.00008413052794
C            0.00000737214535        1.39452462898084        0.00011411884088
C            1.21534096020592        0.71546197326519        0.00003521736301
C            2.46044422064914        1.39517819818818       -0.00019011556418
H            4.57721176616902        1.23155670928759       -0.00059242038073
H            4.57719183323247       -1.23161406977159       -0.00027791311911
H            2.45514751118117       -2.47569456599424        0.00017813500304
H           -0.00002795458511       -2.47584405511559        0.00015576572744
H           -2.45520487572381       -2.47565090483660       -0.00028786476834
H           -4.57722262867038       -1.23153655988028       -0.00061107357315
H           -4.57719933910891        1.23164020216553       -0.00032553072890
H           -2.45515173930792        2.47571167441234        0.00012276891617
H            0.00001490776018        2.47585773767043        0.00013281964404
H            2.45518226268870        2.47566939897318       -0.00028534232659
24
 energy: -35.066819793260 gnorm: 0.000359339496 xtb: 6.7.1 (edcfbbe)
C            3.63368420193991        0.70581508592719       -0.00030001357397
C            3.63367205581373       -0.70585951280288       -0.00017447238556
C            2.46009738767029       -1.39543784918993        0.00002285639517
C            1.21518224074603       -0.71532531455753        0.00006379374490
C           -0.00001743035665       -1.39474041061410        0.00008372181544
C           -1.21520608946254       -0.71530396674155        0.00000217433838
C           -2.46013238579365       -1.39539439448412       -0.00018254904293
C           -3.63369562600415       -0.70579526573488       -0.00032243388212
C           -3.63368307486792        0.70587842303385       -0.00021249959331
C           -2.46010699608676        1.39545551339183       -0.00001457060712
C           -1.21519348705558        0.71534153457872        0.00004454169772
C            0.00000700173185        1.39475678842436        0.00006976506219
C            1.21519470523979        0.71532037104413        0.00000695758148
C            2.46012093242409        1.39541265775805       -0.00017451428914
H            4.57705838169961        1.23113956110630       -0.00049436537515
H            4.57703738503902       -1.23119997089671       -0.00024654886388
H            2.45402749121637       -2.47585664712190        0.00011907617148
H           -0.00002761301546       -2.47596834351145        0.00010989798089
H           -2.45408322555116       -2.47581331056191       -0.00024678513776
H           -4.57706922216992       -1.23112088857176       -0.00051827956210
H           -4.57704706634421        1.23122123518153       -0.00029676077926
H           -2.45403583422819        2.47587427327800        0.00006915876027
H            0.00001564010822        2.47598466526595        0.00008502925986
H            2.45406730384327        2.47583151383564       -0.00024769594802
24
 energy: -35.066819930030 gnorm: 0.000085222670 xtb: 6.7.1 (edcfbbe)
C            3.63366721417511        0.70585822471369       -0.00024790937351
C            3.63365486897293       -0.70590377719272       -0.00015860789628
C            2.46016309576566       -1.39551495187583       -0.00001149127116
C            1.21517502228583       -0.71529770157126        0.00002095093020
C           -0.00001770671902       -1.39485340811662        0.00003740399958
C           -1.21519873952216       -0.71527635414537       -0.00002504871589
C           -2.46019854477992       -1.39547169383310       -0.00016246448907
C           -3.63367838323313       -0.70583986828250       -0.00027238976045
C           -3.63366596879872        0.70592190138001       -0.00019693607410
C           -2.46017389891998        1.39553286912848       -0.00004719382625
C           -1.21518617705596        0.71531533391727        0.00000300029712
C            0.00000676794765        1.39487111203367        0.00002306346271
C            1.21518756013588        0.71529402859034       -0.00002177491266
C            2.46018742352439        1.39548975295761       -0.00015503400527
H            4.57723586507809        1.23090442503709       -0.00039350288902
H            4.57721437848064       -1.23096642611147       -0.00021163722886
H            2.45381749848858       -2.47594405432781        0.00006117450893
H           -0.00002739006784       -2.47607472148929        0.00005846969505
H           -2.45387231783667       -2.47590091030406       -0.00020740530331
H           -4.57724686013440       -1.23088640832332       -0.00041936782657
H           -4.57722518252851        1.23098507951156       -0.00026321375788
H           -2.45382806727662        2.47596195478607        0.00001367306037
H            0.00001605376111        2.47609239250972        0.00003330699327
H            2.45386016479306        2.47591894904467       -0.00021158184949
24
 energy: -35.066819935191 gnorm: 0.000016667374 xtb: 6.7.1 (edcfbbe)
C            3.63364590125843        0.70586104675825       -0.00021270436167
C            3.63363355748446       -0.70590675692816       -0.00014329222709
C            2.46016461361807       -1.39550676247501       -0.00003356058071
C            1.21516394517532       -0.71528892372090       -0.00001041826574
C           -0.00001778671939       -1.39482314156454        0.00000203530380
C           -1.21518761609782       -0.71526758383456       -0.00004666623742
C           -2.46020019206889       -1.39546356826227       -0.00014966034366
C           -3.63365705077624       -0.70584296008755       -0.00023601005556
C           -3.63364462604528        0.70592481824909       -0.00018198034068
C           -2.46017559401686        1.39552471196626       -0.00006930736895
C           -1.21517501150666        0.71530686362778       -0.00002830756594
C            0.00000669664192        1.39484096751366       -0.00001219928399
C            1.21517644395425        0.71528552840628       -0.00004351759137
C            2.46018899247360        1.39548152895813       -0.00014338223688
H            4.57723990100740        1.23086618882190       -0.00031855430813
H            4.57721836139014       -1.23092842509506       -0.00018533309168
H            2.45378151606782       -2.47593075447670        0.00001782808441
H           -0.00002731383405       -2.47603968032085        0.00001960862188
H           -2.45383609323217       -2.47588767285939       -0.00017857029761
H           -4.57725104174855       -1.23084811401445       -0.00034571696849
H           -4.57722939642773        1.23094654280322       -0.00023759476364
H           -2.45379247030228        2.47594871564264       -0.00002846156998
H            0.00001616527528        2.47605753706611       -0.00000600700308
H            2.45382477496521        2.47590564186298       -0.00018274378035
