      -----------------------------------------------------------      
     |                   =====================                   |     
     |                           x T B                           |     
     |                   =====================                   |     
     |                         S. Grimme                         |     
     |          Mulliken Center for Theoretical Chemistry        |     
     |                    University of Bonn                     |     
      -----------------------------------------------------------      

   * xtb version 6.7.1 (edcfbbe) compiled by 'albert@albert-system' on 2024-07-22

   xtb is free software: you can redistribute it and/or modify it under
   the terms of the GNU Lesser General Public License as published by
   the Free Software Foundation, either version 3 of the License, or
   (at your option) any later version.
   
   xtb is distributed in the hope that it will be useful,
   but WITHOUT ANY WARRANTY; without even the implied warranty of
   MERCHANTABILITY or FITNESS FOR A PARTICULAR PURPOSE.  See the
   GNU Lesser General Public License for more details.
   
   Cite this work as:
   * C. Bannwarth, E. Caldeweyher, S. Ehlert, A. Hansen, P. Pracht,
     J. Seibert, S. Spicher, S. Grimme, WIREs Comput. Mol. Sci., 2020, 11,
     e01493. DOI: 10.1002/wcms.1493
   
   for GFN2-xTB:
   * C. Bannwarth, S. Ehlert and S. Grimme., J. Chem. Theory Comput., 2019,
     15, 1652-1671. DOI: 10.1021/acs.jctc.8b01176
   for GFN1-xTB:
   * S. Grimme, C. Bannwarth, P. Shushkov, J. Chem. Theory Comput., 2017,
     13, 1989-2009. DOI: 10.1021/acs.jctc.7b00118
   for GFN0-xTB:
   * P. Pracht, E. Caldeweyher, S. Ehlert, S. Grimme, ChemRxiv, 2019, preprint.
     DOI: 10.26434/chemrxiv.8326202.v1
   for GFN-FF:
   * S. Spicher and S. Grimme, Angew. Chem. Int. Ed., 2020, 59, 15665-15673.
     DOI: 10.1002/anie.202004239
   
   for ALPB and GBSA implicit solvation:
   * S. Ehlert, M. Stahn, S. Spicher, S. Grimme, J. Chem. Theory Comput.,
     2021, 17, 4250-4261. DOI: 10.1021/acs.jctc.1c00471
   
   for ddCOSMO and CPCM-X implicit solvation:
   * M. Stahn, S. Ehlert, S. Grimme, J. Phys. Chem. A,
     2023, XX, XXXX-XXXX. DOI: 10.1021/acs.jpca.3c04382
   
   for DFT-D4:
   * E. Caldeweyher, C. Bannwarth and S. Grimme, J. Chem. Phys., 2017,
     147, 034112. DOI: 10.1063/1.4993215
   * E. Caldeweyher, S. Ehlert, A. Hansen, H. Neugebauer, S. Spicher,
     C. Bannwarth and S. Grimme, J. Chem. Phys., 2019, 150, 154122.
     DOI: 10.1063/1.5090222
   * E. Caldeweyher, J.-M. Mewes, S. Ehlert and S. Grimme, Phys. Chem. Chem. Phys.
     2020, 22, 8499-8512. DOI: 10.1039/D0CP00502A
   
   for sTDA-xTB:
   * S. Grimme and C. Bannwarth, J. Chem. Phys., 2016, 145, 054103.
     DOI: 10.1063/1.4959605
   
   in the mass-spec context:
   * V. Asgeirsson, C. Bauer and S. Grimme, Chem. Sci., 2017, 8, 4879.
     DOI: 10.1039/c7sc00601b
   * J. Koopman and S. Grimme, ACS Omega 2019, 4, 12, 15120-15133.
     DOI: 10.1021/acsomega.9b02011
   
   for metadynamics refer to:
   * S. Grimme, J. Chem. Theory Comput., 2019, 155, 2847-2862
     DOI: 10.1021/acs.jctc.9b00143
   
   for SPH calculations refer to:
   * S. Spicher and S. Grimme, J. Chem. Theory Comput., 2021, 17, 1701-1714
     DOI: 10.1021/acs.jctc.0c01306
   
   for ONIOM refer to:
   * C. Plett, A. Katbashev, S. Ehlert, S. Grimme, M. Bursch,
     Phys. Chem. Chem. Phys., 2023, 25, 17860-17868. DOI: 10.1039/D3CP02178E
   
   for DIPRO refer to:
   * J. Kohn, N. Gildemeister, S. Grimme, D. Fazzi, A. Hansen,
     J. Chem. Phys., 2023, just accepted.
   
   for PTB refer to:
   * S. Grimme, M. Mueller, A. Hansen, J. Chem. Phys., 2023, 158, 124111.
     DOI: 10.1063/5.0137838
   
   with help from (in alphabetical order)
   P. Atkinson, C. Bannwarth, F. Bohle, G. Brandenburg, E. Caldeweyher
   M. Checinski, S. Dohm, S. Ehlert, S. Ehrlich, I. Gerasimov, C. Hölzer
   A. Katbashev, J. Kohn, J. Koopman, C. Lavigne, S. Lehtola, F. März, M. Müller,
   F. Musil, H. Neugebauer, J. Pisarek, C. Plett, P. Pracht, F. Pultar,
   J. Seibert, P. Shushkov, S. Spicher, M. Stahn, M. Steiner, T. Strunk,
   J. Stückrath, T. Rose, and J. Unsleber
   
 * started run on 2025/04/06 at 09:28:33.843     
   ID    Z sym.   atoms
    1    6 C      1, 3, 5-10
    2    8 O      2, 4
    3    1 H      11-24

           -------------------------------------------------
          |                Calculation Setup                |
           -------------------------------------------------

          program call               : /srv/scratch/z5358697/.xtb/bin/xtb xtb_opt.coord --opt normal --orca -I xtb_opt-xcontrol-inp
          hostname                   : k159
          coordinate file            : xtb_opt.coord
          omp threads                :                    16

           -------------------------------------------------
          |                   Orca driver                   |
           -------------------------------------------------
orca executable           : /apps/z_install_tree/linux-rocky8-ivybridge/gcc-12.2.0/orca-6.0.0-srtngmq3qlimg2qxbl6avaaiffipurdx/bin/orca
orca input file           : xtb_opt.inp
orca input line           : 
orca parallel             : true
orca number of threads    : 16
                         * ORCA takes the control...
  ------------------------------------------------------------------------

                                 *****************
                                 * O   R   C   A *
                                 *****************

                                            #,                                       
                                            ###                                      
                                            ####                                     
                                            #####                                    
                                            ######                                   
                                           ########,                                 
                                     ,,################,,,,,                         
                               ,,#################################,,                 
                          ,,##########################################,,             
                       ,#########################################, ''#####,          
                    ,#############################################,,   '####,        
                  ,##################################################,,,,####,       
                ,###########''''           ''''###############################       
              ,#####''   ,,,,##########,,,,          '''####'''          '####       
            ,##' ,,,,###########################,,,                        '##       
           ' ,,###''''                  '''############,,,                           
         ,,##''                                '''############,,,,        ,,,,,,###''
      ,#''                                            '''#######################'''  
     '                                                          ''''####''''         
             ,#######,   #######,   ,#######,      ##                                
            ,#'     '#,  ##    ##  ,#'     '#,    #''#        ,####,   ,####,        
            ##       ##  ##   ,#'  ##            #'  '#       #'       #'  '#        
            ##       ##  #######   ##           ,######,      #####,   #    #        
            '#,     ,#'  ##    ##  '#,     ,#' ,#      #,     #,   #   #,  ,#        
             '#######'   ##     ##  '#######'  #'      '#     '####' # '####'        



                #########################################################
                #                        -***-                          #
                #          Department of theory and spectroscopy        #
                #                                                       #
                #                      Frank Neese                      #
                #                                                       #
                #     Directorship, Architecture, Infrastructure        #
                #                    SHARK, DRIVERS                     #
                #        Core code/Algorithms in most modules           #
                #                                                       #
                #        Max Planck Institute fuer Kohlenforschung      #
                #                Kaiser Wilhelm Platz 1                 #
                #                 D-45470 Muelheim/Ruhr                 #
                #                      Germany                          #
                #                                                       #
                #                  All rights reserved                  #
                #                        -***-                          #
                #########################################################


                         Program Version 6.0.0  -   RELEASE  -


 With contributions from (in alphabetic order):
   Daniel Aravena         : Magnetic Suceptibility
   Michael Atanasov       : Ab Initio Ligand Field Theory (pilot matlab implementation)
   Alexander A. Auer      : GIAO ZORA, VPT2 properties, NMR spectrum
   Ute Becker             : All parallelization in ORCA, NUMFREQ, NUMCALC
   Giovanni Bistoni       : ED, misc. LED, open-shell LED, HFLD
   Martin Brehm           : Molecular dynamics
   Dmytro Bykov           : pre 5.0 version of the SCF Hessian
   Marcos Casanova-Páez   : Triplet and SCS-CIS(D). UHF-(DLPNO)-IP/EA/STEOM-CCSD. UHF-CVS-IP/STEOM-CCSD
   Vijay G. Chilkuri      : MRCI spin determinant printing, contributions to CSF-ICE
   Pauline Colinet        : FMM embedding
   Dipayan Datta          : RHF DLPNO-CCSD density
   Achintya Kumar Dutta   : EOM-CC, STEOM-CC
   Nicolas Foglia         : Exact transition moments, OPA infrastructure, MCD improvements
   Dmitry Ganyushin       : Spin-Orbit,Spin-Spin,Magnetic field MRCI
   Miquel Garcia          : C-PCM and meta-GGA Hessian, CCSD/C-PCM, Gaussian charge scheme
   Tiago L. C. Gouveia    : GS-ROHF, GS-ROCIS
   Yang Guo               : DLPNO-NEVPT2, F12-NEVPT2, CIM, IAO-localization
   Andreas Hansen         : Spin unrestricted coupled pair/coupled cluster methods
   Ingolf Harden          : AUTO-CI MPn and infrastructure 
   Benjamin Helmich-Paris : MC-RPA, TRAH-(SCF,CASSCF), AVAS, COSX integrals, SCF dyn. polar.
   Lee Huntington         : MR-EOM, pCC
   Robert Izsak           : Overlap fitted RIJCOSX, COSX-SCS-MP3, EOM
   Riya Kayal             : Wick's Theorem for AUTO-CI, AUTO-CI UHF-CCSDT
   Emily Kempfer          : AUTO-CI, RHF CISDT and CCSDT
   Christian Kollmar      : KDIIS, OOCD, Brueckner-CCSD(T), CCSD density, CASPT2, CASPT2-K, improved NEVPT2
   Axel Koslowski         : Symmetry handling
   Simone Kossmann        : Meta GGA functionals, TD-DFT gradient, OOMP2, (MP2 Hessian; deprecated post 5.0)
   Lucas Lang             : DCDCAS
   Marvin Lechner         : AUTO-CI (C++ implementation), FIC-MRCC
   Spencer Leger          : CASSCF response
   Dagmar Lenk            : GEPOL surface, SMD, ORCA-2-JSON
   Dimitrios Liakos       : Extrapolation schemes; Compound Job, initial MDCI parallelization
   Dimitrios Manganas     : Further ROCIS development; embedding schemes. LFT, Crystal Embedding
   Dimitrios Pantazis     : SARC Basis sets
   Anastasios Papadopoulos: AUTO-CI, single reference methods and gradients
   Taras Petrenko         : pre 6.0 DFT Hessian and TD-DFT gradient, (ASA, deprecated), ECA, 1-Electron XAS/XES, NRVS
   Peter Pinski           : DLPNO-MP2, DLPNO-MP2 Gradient
   Christoph Reimann      : Effective Core Potentials
   Marius Retegan         : Local ZFS, SOC
   Christoph Riplinger    : Optimizer, TS searches, QM/MM, DLPNO-CCSD(T), (RO)-DLPNO pert. Triples
   Michael Roemelt        : Original ROCIS implementation
   Masaaki Saitow         : Open-shell DLPNO-CCSD energy and density
   Barbara Sandhoefer     : DKH picture change effects
   Kantharuban Sivalingam : CASSCF convergence/infrastructure, NEVPT2 and variants, FIC-MRCI
   Bernardo de Souza      : ESD, SOC TD-DFT
   Georgi Stoychev        : AutoAux, RI-MP2 NMR, DLPNO-MP2 response, X2C
   Van Anh Tran           : RI-MP2 g-tensors
   Willem Van den Heuvel  : Paramagnetic NMR
   Zikuan Wang            : NOTCH, Electric field optimization 
   Frank Wennmohs         : Technical directorship and infrastructure
   Hang Xu                : AUTO-CI-Response properties 


 We gratefully acknowledge several colleagues who have allowed us to
 interface, adapt or use parts of their codes:
   Stefan Grimme, W. Hujo, H. Kruse, P. Pracht,  : VdW corrections, initial TS optimization,
                  C. Bannwarth, S. Ehlert,         DFT functionals, gCP, sTDA/sTD-DF
                  L. Wittmann, M. Mueller
   Ed Valeev, F. Pavosevic, A. Kumar             : LibInt (2-el integral package), F12 methods
   Garnet Chan, S. Sharma, J. Yang, R. Olivares  : DMRG
   Ulf Ekstrom                                   : XCFun DFT Library
   Mihaly Kallay                                 : mrcc  (arbitrary order and MRCC methods)
   Frank Weinhold                                : gennbo (NPA and NBO analysis)
   Simon Mueller                                 : openCOSMO-RS
   Christopher J. Cramer and Donald G. Truhlar   : smd solvation model
   Lars Goerigk                                  : TD-DFT with DH, B97 family of functionals
   V. Asgeirsson, H. Jonsson                     : NEB implementation
   FAccTs GmbH                                   : IRC, NEB, NEB-TS, DLPNO-Multilevel, CI-OPT
                                                   MM, QMMM, 2- and 3-layer-ONIOM, Crystal-QMMM,
                                                   LR-CPCM, SF, NACMEs, symmetry and pop. for TD-DFT,
                                                   nearIR, NL-DFT gradient (VV10), updates on ESD,
                                                   ML-optimized integration grids, MBIS, APM,
                                                   GOAT, DOCKER, SOLVATOR, interface openCOSMO-RS
   S Lehtola, MJT Oliveira, MAL Marques          : LibXC Library
   Liviu Ungur et al                             : ANISO software


 Your calculation uses the libint2 library for the computation of 2-el integrals
 For citations please refer to: http://libint.valeyev.net

 Your ORCA version has been built with support for libXC version: 6.2.2
 For citations please refer to: https://libxc.gitlab.io

 This ORCA versions uses:
   CBLAS   interface :  Fast vector & matrix operations
   LAPACKE interface :  Fast linear algebra routines
   SCALAPACK package :  Parallel linear algebra routines
   Shared memory     :  Shared parallel matrices
   BLAS/LAPACK       :  OpenBLAS 0.3.27  USE64BITINT DYNAMIC_ARCH NO_AFFINITY SkylakeX SINGLE_THREADED
        Core in use  :  SkylakeX
   Copyright (c) 2011-2014, The OpenBLAS Project




***************************************
The coordinates will be read from file: xtb_opt.xyz
***************************************


Your calculation utilizes the geometrical counterpoise correction gCP
Please cite in your paper:
H.Kruse, S. Grimme J.Chem.Phys., 136, (2012), 154101 
   

Your calculation utilizes the atom-pairwise dispersion correction
based on EEQ partial charges (D4)


Your calculation utilizes the SMD solvation module
Please cite in your paper:
A.V. Marenich, C.J. Cramer, D.G. Truhlar J. Phys. Chem. B, 113, (2009), 6378 

================================================================================

----- Orbital basis set information -----
Your calculation utilizes the basis: def2-mTZVPP
   Stefan Grimme, Andreas Hansen, Sebastian Ehlert, and Jan-Michael Mewes 
   J. Chem. Phys. 154, 064103 (2021). DOI: 10.1063/5.0040021

----- AuxJ basis set information -----
Your calculation utilizes the auxiliary basis: def2/J
   F. Weigend, Phys. Chem. Chem. Phys. 8, 1057 (2006).

================================================================================
                                        WARNINGS
                       Please study these warnings very carefully!
================================================================================

WARNING: Old DensityContainer found on disk!
         Will remove this file - 
         If you want to keep old densities, please start your calculation with a different basename. 

Using LibXC functional ID 497 : Re-regularized SCAN exchange by Furness et al
[ 1]  J. W. Furness, A. D. Kaplan, J. Ning, J. P. Perdew, and J. Sun.,  J. Phys. Chem. Lett. 11, 8208-8215 (2020)
[ 2]  J. W. Furness, A. D. Kaplan, J. Ning, J. P. Perdew, and J. Sun.,  J. Phys. Chem. Lett. 11, 9248-9248 (2020)
Using LibXC functional ID 498 : Re-regularized SCAN correlation by Furness et al
[ 1]  J. W. Furness, A. D. Kaplan, J. Ning, J. P. Perdew, and J. Sun.,  J. Phys. Chem. Lett. 11, 8208-8215 (2020)
[ 2]  J. W. Furness, A. D. Kaplan, J. Ning, J. P. Perdew, and J. Sun.,  J. Phys. Chem. Lett. 11, 9248-9248 (2020)
Using LibXC functional ID 497 : Re-regularized SCAN exchange by Furness et al
[ 1]  J. W. Furness, A. D. Kaplan, J. Ning, J. P. Perdew, and J. Sun.,  J. Phys. Chem. Lett. 11, 8208-8215 (2020)
[ 2]  J. W. Furness, A. D. Kaplan, J. Ning, J. P. Perdew, and J. Sun.,  J. Phys. Chem. Lett. 11, 9248-9248 (2020)
Using LibXC functional ID 498 : Re-regularized SCAN correlation by Furness et al
[ 1]  J. W. Furness, A. D. Kaplan, J. Ning, J. P. Perdew, and J. Sun.,  J. Phys. Chem. Lett. 11, 8208-8215 (2020)
[ 2]  J. W. Furness, A. D. Kaplan, J. Ning, J. P. Perdew, and J. Sun.,  J. Phys. Chem. Lett. 11, 9248-9248 (2020)

================================================================================
                                       INPUT FILE
================================================================================
NAME = xtb_opt.inp
|  1> ! r2scan-3c def2/J RI DEFGRID2 scfconv7 ENGRAD tightSCF miniprint
|  2> %cpcm
|  3>     smd true
|  4>     smdsolvent "water"
|  5> end
|  6> * xyzfile 0 1 xtb_opt.xyz
|  7> 
|  8>                          ****END OF INPUT****
================================================================================

                     *******************************
                     * Energy+Gradient Calculation *
                     *******************************

---------------------------------
CARTESIAN COORDINATES (ANGSTROEM)
---------------------------------
  C     -2.924358    0.793529    0.967861
  O     -1.750826    0.818323    0.115640
  C     -1.067421   -0.341026    0.024326
  O     -1.414232   -1.350766    0.615407
  C      0.110045   -0.247348   -0.925854
  C      1.122989   -1.369837   -0.663936
  C      1.877440   -1.149804    0.650730
  C      2.561439    0.218954    0.675678
  C      1.554073    1.342052    0.416721
  C      0.813005    1.120475   -0.903287
  H     -3.655060    0.075857    0.586204
  H     -3.329288    1.804985    0.930793
  H     -2.641694    0.534058    1.991159
  H     -0.340949   -0.393210   -1.919214
  H      0.624919   -2.343886   -0.669216
  H      1.838944   -1.366519   -1.494982
  H      1.173408   -1.215732    1.491404
  H      2.615145   -1.947918    0.792006
  H      3.062684    0.373479    1.638173
  H      3.338407    0.249230   -0.100870
  H      0.829456    1.377585    1.243172
  H      2.061863    2.312980    0.397353
  H      0.100908    1.926961   -1.095674
  H      1.537624    1.127777   -1.727137

----------------------------
CARTESIAN COORDINATES (A.U.)
----------------------------
  NO LB      ZA    FRAG     MASS         X           Y           Z
   0 C     6.0000    0    12.011   -5.526236    1.499552    1.828993
   1 O     8.0000    0    15.999   -3.308582    1.546407    0.218528
   2 C     6.0000    0    12.011   -2.017134   -0.644446    0.045969
   3 O     8.0000    0    15.999   -2.672511   -2.552578    1.162950
   4 C     6.0000    0    12.011    0.207955   -0.467420   -1.749611
   5 C     6.0000    0    12.011    2.122141   -2.588618   -1.254657
   6 C     6.0000    0    12.011    3.547848   -2.172814    1.229702
   7 C     6.0000    0    12.011    4.840418    0.413764    1.276845
   8 C     6.0000    0    12.011    2.936771    2.536110    0.787488
   9 C     6.0000    0    12.011    1.536356    2.117391   -1.706964
  10 H     1.0000    0     1.008   -6.907062    0.143350    1.107766
  11 H     1.0000    0     1.008   -6.291443    3.410926    1.758943
  12 H     1.0000    0     1.008   -4.992079    1.009224    3.762746
  13 H     1.0000    0     1.008   -0.644301   -0.743059   -3.626788
  14 H     1.0000    0     1.008    1.180926   -4.429302   -1.264634
  15 H     1.0000    0     1.008    3.475101   -2.582347   -2.825107
  16 H     1.0000    0     1.008    2.217421   -2.297400    2.818346
  17 H     1.0000    0     1.008    4.941908   -3.681032    1.496674
  18 H     1.0000    0     1.008    5.787634    0.705773    3.095699
  19 H     1.0000    0     1.008    6.308675    0.470976   -0.190617
  20 H     1.0000    0     1.008    1.567445    2.603258    2.349255
  21 H     1.0000    0     1.008    3.896356    4.370899    0.750888
  22 H     1.0000    0     1.008    0.190688    3.641428   -2.070523
  23 H     1.0000    0     1.008    2.905689    2.131190   -3.263815

------------------------------------------------------------------------------
                   ___                                                        
                  /   \      - P O W E R E D   B Y -                         
                 /     \                                                     
                 |  |  |   _    _      __       _____    __    __             
                 |  |  |  | |  | |    /  \     |  _  \  |  |  /  |          
                  \  \/   | |  | |   /    \    | | | |  |  | /  /          
                 / \  \   | |__| |  /  /\  \   | |_| |  |  |/  /          
                |  |  |   |  __  | /  /__\  \  |    /   |      \           
                |  |  |   | |  | | |   __   |  |    \   |  |\   \          
                \     /   | |  | | |  |  |  |  | |\  \  |  | \   \       
                 \___/    |_|  |_| |__|  |__|  |_| \__\ |__|  \__/        
                                                                              
                      - O R C A' S   B I G   F R I E N D -                    
                                      &                                       
                       - I N T E G R A L  F E E D E R -                       
                                                                              
 v1 FN, 2020, v2 2021, v3 2022-2024                                           
------------------------------------------------------------------------------


----------------------
SHARK INTEGRAL PACKAGE
----------------------

Number of atoms                             ...     24
Number of basis functions                   ...    270
Number of shells                            ...    134
Maximum angular momentum                    ...      2
Integral batch strategy                     ... SHARK/LIBINT Hybrid
RI-J (if used) integral strategy            ... SPLIT-RIJ (Revised 2003 algorithm where possible)
Printlevel                                  ...      1
Contraction scheme used                     ... SEGMENTED contraction
Prescreening option                         ... SCHWARTZ
   Thresh                                   ... 3.000e-11
   Tcut                                     ... 1.000e-12
   Tpresel                                  ... 1.000e-12 
Coulomb Range Separation                    ... NOT USED
Exchange Range Separation                   ... NOT USED
Multipole approximations                    ... NOT USED
Finite Nucleus Model                        ... NOT USED
CABS basis                                  ... NOT available
Auxiliary Coulomb fitting basis             ... AVAILABLE
   # of basis functions in Aux-J            ...    644
   # of shells in Aux-J                     ...    220
   Maximum angular momentum in Aux-J        ...      4
Auxiliary J/K fitting basis                 ... NOT available
Auxiliary Correlation fitting basis         ... NOT available
Auxiliary 'external' fitting basis          ... NOT available

Checking pre-screening integrals            ... done (  0.0 sec) Dimension = 134
Check shell pair data                       ... done (  0.0 sec)
Shell pair information
Shell pair cut-off parameter TPreSel        ...   1.0e-12
Total number of shell pairs                 ...      9045
Shell pairs after pre-screening             ...      8102
Total number of primitive shell pairs       ...     32140
Primitive shell pairs kept                  ...     20147
          la=0 lb=0:   2700 shell pairs
          la=1 lb=0:   3087 shell pairs
          la=1 lb=1:    898 shell pairs
          la=2 lb=0:    851 shell pairs
          la=2 lb=1:    490 shell pairs
          la=2 lb=2:     76 shell pairs

Calculating one electron integrals          ... done (  0.0 sec)
Calculating RI/J V-Matrix + Cholesky decomp.... done (  0.1 sec)
Calculating Nuclear repulsion               ... done (  0.0 sec) ENN=    578.012820828472 Eh

Diagonalization of the overlap matrix:
Smallest eigenvalue                        ... 6.719e-05
Time for diagonalization                   ...    0.006 sec
Threshold for overlap eigenvalues          ... 1.000e-07
Number of eigenvalues below threshold      ... 0
Time for construction of square roots      ...    0.014 sec
Total time needed                          ...    0.028 sec

-------------------
DFT GRID GENERATION
-------------------

General Integration Accuracy     IntAcc      ... 4.388
Radial Grid Type                 RadialGrid  ... OptM3 with GC (2021)
Angular Grid (max. ang.)         AngularGrid ... 4 (Lebedev-302)
Angular grid pruning method      GridPruning ... 4 (adaptive)
Weight generation scheme         WeightScheme... mBecke (2022)
Basis function cutoff            BFCut       ... 1.0000e-11
Integration weight cutoff        WCut        ... 1.0000e-14
Partially contracted basis set               ... off
Rotationally invariant grid construction     ... off
Angular grids for H and He will be reduced by one unit
Diffuse basis detected: some atoms will have their outermost
                        angular grid increased by 1.

Total number of grid points                  ...   105071
Total number of batches                      ...     1654
Average number of points per batch           ...       63
Average number of grid points per atom       ...     4378
Initializing property integral containers    ... done (  0.0 sec)

SHARK setup successfully completed in   1.4 seconds

Maximum memory used throughout the entire STARTUP-calculation: 49.5 MB
Occupation numbers will be reassigned to an Aufbau configuration
             **** ENERGY FILE WAS UPDATED (xtb_opt.en.tmp) ****
Finished Guess after   0.3 sec
Maximum memory used throughout the entire GUESS-calculation: 20.3 MB
--------------------
CPCM SOLVATION MODEL
--------------------
CPCM parameters:
  Epsilon                                         ...      78.3550
  Refrac                                          ...       1.3328
  Rsolv                                           ...       1.3000
  Surface type                                    ... GAUSSIAN VDW
  Discretization scheme                           ... Constant charge density
    Threshold for H atoms                         ...       5.0000 (charges/Ang^2)
    Threshold for non-H atoms                     ...       5.0000 (charges/Ang^2)
  Epsilon function type                           ...         CPCM
Solvent:                                          ... WATER
SMD-CDS solvent descriptors:
  Soln                                            ...       1.3328
  Soln25                                          ...       1.3323
  Sola                                            ...       0.0000
  Solb                                            ...       0.0000
  Solg                                            ...       0.0000
  Solc                                            ...       0.0000
  Solh                                            ...       0.0000
Radii:
  Scheme                                          ... Element-dependent radii
  Radius for C  used is    3.4960 Bohr (=   1.8500 Ang.)
  Radius for O  used is    2.8724 Bohr (=   1.5200 Ang.)
  Radius for H  used is    2.2677 Bohr (=   1.2000 Ang.)
Calculating surface                               ...        done! (  0.0s)
Cavity surface points                             ...         1706
Cavity Volume                                     ...    1038.9922
Cavity Surface-area                               ...     647.8980
Calculating surface distance matrix               ...        done! (  0.0s)
Performing Cholesky decomposition & store         ...        done! (  0.1s)
Overall time for CPCM initialization              ...                 0.1s

----------------------------------------D-I-I-S--------------------------------------------
Iteration    Energy (Eh)           Delta-E    RMSDP     MaxDP     DIISErr   Damp  Time(sec)
-------------------------------------------------------------------------------------------
               ***  Starting incremental Fock matrix formation  ***
                              *** Initializing SOSCF ***
---------------------------------------S-O-S-C-F--------------------------------------
Iteration    Energy (Eh)           Delta-E    RMSDP     MaxDP     MaxGrad    Time(sec)
--------------------------------------------------------------------------------------
    1    -463.6550945624915130     0.00e+00  1.48e-06  4.16e-05  4.38e-06     4.5
               *** Restarting incremental Fock matrix formation ***
    2    -463.6550945660139860    -3.52e-09  1.66e-06  4.15e-05  9.48e-06     4.5
                  *** Gradient check signals convergence ***

               *****************************************************
               *                     SUCCESS                       *
               *           SCF CONVERGED AFTER   2 CYCLES          *
               *****************************************************


SMD CDS free energy correction energy :                 4.72443     Kcal/mol
Total Energy after SMD CDS correction =              -463.647565705 Eh
             **** ENERGY FILE WAS UPDATED (xtb_opt.en.tmp) ****

----------------
TOTAL SCF ENERGY
----------------

Total Energy       :       -463.64756570518296 Eh          -12616.49167 eV

Components:
Nuclear Repulsion  :        578.01282082847206 Eh           15728.52848 eV
Electronic Energy  :      -1041.65230225320056 Eh          -28344.80017 eV
One Electron Energy:      -1776.16228463125935 Eh          -48331.83291 eV
Two Electron Energy:        734.50998237805879 Eh           19987.03274 eV
CPCM Dielectric    :         -0.01561314128547 Eh              -0.42486 eV
SMD CDS (Gcds)     :          0.00752886083105 Eh               0.20487 eV

Virial components:
Potential Energy   :       -925.09725162633015 Eh          -25173.17600 eV
Kinetic Energy     :        461.44968592114719 Eh           12556.68432 eV
Virial Ratio       :          2.00476298901287

DFT components:
N(Alpha)           :       38.999943071219 electrons
N(Beta)            :       38.999943071219 electrons
N(Total)           :       77.999886142438 electrons
E(X)               :      -63.191248708831 Eh       
E(C)               :       -2.502604790656 Eh       
E(XC)              :      -65.693853499487 Eh       

CPCM Solvation Model Properties:
Surface-charge          :         -0.04984640237066
Corrected charge        :          0.00000000000000
Outlying charge corr.   :          0.00018145981590 Eh               0.00494 eV
Free-energy (cav+disp)  :          0.00752886083105 Eh               0.20487 eV

---------------
SCF CONVERGENCE
---------------

  Last Energy change         ...    3.5225e-09  Tolerance :   1.0000e-07
  Last MAX-Density change    ...    4.1455e-05  Tolerance :   1.0000e-07
  Last RMS-Density change    ...    1.6624e-06  Tolerance :   5.0000e-09
  Last DIIS Error            ...    4.0988e-05  Tolerance :   1.0000e-07
  Last Orbital Gradient      ...    9.4752e-06  Tolerance :   1.0000e-04
  Last Orbital Rotation      ...    3.7435e-05  Tolerance :   1.0000e-04


----------------
ORBITAL ENERGIES
----------------

  NO   OCC          E(Eh)            E(eV) 
   0   2.0000     -19.003000      -517.0979 
   1   2.0000     -18.945806      -515.5416 
   2   2.0000     -10.163240      -276.5558 
   3   2.0000     -10.077852      -274.2323 
   4   2.0000     -10.045783      -273.3597 
   5   2.0000     -10.024151      -272.7710 
   6   2.0000     -10.023021      -272.7403 
   7   2.0000     -10.018999      -272.6308 
   8   2.0000     -10.018142      -272.6075 
   9   2.0000     -10.017005      -272.5766 
  10   2.0000      -1.070345       -29.1256 
  11   2.0000      -0.983773       -26.7698 
  12   2.0000      -0.800271       -21.7765 
  13   2.0000      -0.726162       -19.7599 
  14   2.0000      -0.702977       -19.1290 
  15   2.0000      -0.680078       -18.5059 
  16   2.0000      -0.592377       -16.1194 
  17   2.0000      -0.569596       -15.4995 
  18   2.0000      -0.539136       -14.6706 
  19   2.0000      -0.511067       -13.9068 
  20   2.0000      -0.462502       -12.5853 
  21   2.0000      -0.451835       -12.2951 
  22   2.0000      -0.450180       -12.2500 
  23   2.0000      -0.433113       -11.7856 
  24   2.0000      -0.404894       -11.0177 
  25   2.0000      -0.400181       -10.8895 
  26   2.0000      -0.386733       -10.5235 
  27   2.0000      -0.368954       -10.0398 
  28   2.0000      -0.344789        -9.3822 
  29   2.0000      -0.342478        -9.3193 
  30   2.0000      -0.336516        -9.1571 
  31   2.0000      -0.334052        -9.0900 
  32   2.0000      -0.320743        -8.7279 
  33   2.0000      -0.304273        -8.2797 
  34   2.0000      -0.284167        -7.7326 
  35   2.0000      -0.281112        -7.6494 
  36   2.0000      -0.266136        -7.2419 
  37   2.0000      -0.265349        -7.2205 
  38   2.0000      -0.248454        -6.7608 
  39   0.0000      -0.028008        -0.7621 
  40   0.0000       0.063032         1.7152 
  41   0.0000       0.089678         2.4403 
  42   0.0000       0.108020         2.9394 
  43   0.0000       0.119211         3.2439 
  44   0.0000       0.124842         3.3971 
  45   0.0000       0.126144         3.4325 
  46   0.0000       0.129131         3.5138 
  47   0.0000       0.149291         4.0624 
  48   0.0000       0.155114         4.2209 
  49   0.0000       0.166626         4.5341 
*Only the first 10 virtual orbitals were printed.
Total SCF time: 0 days 0 hours 0 min 9 sec 
Finished LeanSCF after   9.7 sec

Maximum memory used throughout the entire LEANSCF-calculation: 40.6 MB


-------------------------------------------------------------------------------
                          DFT DISPERSION CORRECTION                            
                                                                               
                                DFTD4 V3.4.0                                   
-------------------------------------------------------------------------------
-------------------------   ----------------
Dispersion correction           -0.007870655
-------------------------   ----------------

------------------   -----------------
gCP correction             0.012917029
------------------   -----------------

-------------------------   --------------------
FINAL SINGLE POINT ENERGY      -463.642519331457
-------------------------   --------------------

------------------------------------------------------------------------------
                         ORCA SCF GRADIENT CALCULATION
------------------------------------------------------------------------------

Nuc. rep. gradient        (SHARK) ... done (  0.0 sec)
HCore & Overlap gradient  (SHARK) ... done (  0.4 sec)
Split-RIJ-J gradient      (SHARK) ... done (  2.3 sec)
XC gradient                       ... done (  8.6 sec)
CPCM gradient                     ... done (  1.4 sec)
SMD gradient                      ... done (  0.0 sec)
Dispersion correction             ... done (  0.0 sec)

-------------------
DISPERSION GRADIENT
-------------------

   1   C   :   -0.000115946    0.000020279    0.000042721
   2   O   :   -0.000112725    0.000037531    0.000005487
   3   C   :   -0.000100465   -0.000020360   -0.000003119
   4   O   :   -0.000097616   -0.000085302    0.000028970
   5   C   :   -0.000005230   -0.000018988   -0.000066653
   6   C   :    0.000035625   -0.000081366   -0.000044940
   7   C   :    0.000075944   -0.000066309    0.000038208
   8   C   :    0.000106491    0.000015624    0.000038366
   9   C   :    0.000071359    0.000084813    0.000022621
  10   C   :    0.000030745    0.000069622   -0.000067201
  11   H   :   -0.000031634    0.000007304    0.000011435
  12   H   :   -0.000036156    0.000015386    0.000012761
  13   H   :   -0.000044086    0.000008474    0.000020189
  14   H   :   -0.000016096   -0.000011011   -0.000048224
  15   H   :    0.000000742   -0.000050586   -0.000013474
  16   H   :    0.000020869   -0.000033080   -0.000028843
  17   H   :    0.000025582   -0.000032988    0.000027818
  18   H   :    0.000036504   -0.000037315    0.000017714
  19   H   :    0.000040959    0.000008185    0.000032682
  20   H   :    0.000042276    0.000006390    0.000009001
  21   H   :    0.000027588    0.000038502    0.000021481
  22   H   :    0.000030047    0.000048921    0.000009275
  23   H   :   -0.000000867    0.000045929   -0.000030071
  24   H   :    0.000016092    0.000030347   -0.000036204

Difference to translation invariance:
           :   -0.0000000000    0.0000000000    0.0000000000

Difference to rotation invariance:
           :    0.0000000000    0.0000000000   -0.0000000000

Norm of the Dispersion gradient    ...    0.0003943421
RMS gradient                       ...    0.0000464737
MAX gradient                       ...    0.0001159460
gCP correction                   ... done

------------------
CARTESIAN GRADIENT
------------------

   1   C   :    0.000187286   -0.000249403   -0.000025381
   2   O   :   -0.000446481    0.001272484   -0.000030217
   3   C   :    0.000443621   -0.001402176   -0.000321208
   4   O   :   -0.000003305   -0.000029442    0.000162906
   5   C   :    0.000170180    0.000057656    0.000185914
   6   C   :   -0.000153658   -0.000047091   -0.000103291
   7   C   :    0.000075324    0.000061334    0.000081033
   8   C   :    0.000102605   -0.000116126    0.000043140
   9   C   :   -0.000169228   -0.000012245   -0.000049192
  10   C   :    0.000110354    0.000052805   -0.000057848
  11   H   :   -0.000198682   -0.000137084   -0.000043312
  12   H   :   -0.000162433    0.000409564    0.000064139
  13   H   :    0.000073495   -0.000055308    0.000177405
  14   H   :   -0.000103446    0.000052367   -0.000030643
  15   H   :    0.000120231   -0.000017804   -0.000065275
  16   H   :    0.000055956    0.000094343   -0.000020571
  17   H   :   -0.000112460    0.000072703   -0.000013149
  18   H   :   -0.000016308   -0.000046636    0.000108100
  19   H   :   -0.000038075    0.000000091    0.000035689
  20   H   :    0.000043535    0.000032762    0.000037397
  21   H   :    0.000018174    0.000065058    0.000024080
  22   H   :    0.000021681   -0.000019264   -0.000085445
  23   H   :   -0.000021570   -0.000046049   -0.000035610
  24   H   :    0.000003202    0.000007461   -0.000038660

Difference to translation invariance:
           :   -0.0000000000   -0.0000000000   -0.0000000000

Difference to rotation invariance:
           :   -0.0003835275   -0.0004296211    0.0001966910

Norm of the Cartesian gradient     ...    0.0021926781
RMS gradient                       ...    0.0002584096
MAX gradient                       ...    0.0014021761

-------
TIMINGS
-------

Total SCF gradient time     ....       13.822 sec

Densities                   ....       0.001 sec  (  0.0%)
One electron gradient       ....       0.445 sec  (  3.2%)
RI-J Coulomb gradient       ....       2.348 sec  ( 17.0%)
XC gradient                 ....       8.577 sec  ( 62.1%)
CPCM gradient               ....       1.352 sec  (  9.8%)
   A-Matrix (El+Nuc)        ....       0.091 sec  (  0.7%)
   Potential                ....       1.261 sec  (  9.1%)
SMD gradient                ....       0.014 sec  (  0.1%)

Maximum memory used throughout the entire SCFGRAD-calculation: 40.5 MB

------------------------------------------------------------------------------
                              ORCA PROPERTY CALCULATIONS
------------------------------------------------------------------------------

GBWName                                 ... xtb_opt.gbw
Number of atoms                         ...     24
Number of basis functions               ...    270
Max core memory                         ...   1024 MB

Electric properties:
Dipole moment                           ... YES
Quadrupole moment                       ...  NO
Static polarizability (Dipole/Dipole)   ...  NO
Static polarizability (Dipole/Quad.)    ...  NO
Static polarizability (Quad./Quad.)     ...  NO
Static polarizability (Velocity)        ...  NO

Atomic electric properties:
Dipole moment                           ...  NO
Quadrupole moment                       ...  NO
Static polarizability                   ...  NO

Choice of electric origin               ... Center of mass
Position of electric origin             ...     0.069735    -0.020928     0.221737

General magnetic properties:
Magnetizability                         ...  NO

EPR properties:
g-Tensor (aka g-matrix)                 ...  NO
Zero-Field splitting spin-orbit         ...  NO
Zero-field splitting spin-spin          ...  NO
Hyperfine couplings                     ...  NO (   0 nuclei)
Quadrupole couplings                    ...  NO (   0 nuclei)
Contact density                         ...  NO (   0 nuclei)

NMR properties:
Chemical shifts                         ...  NO (   0 nuclei)
Spin-rotation constants                 ...  NO (   0 nuclei)
Spin-spin couplings                     ...  NO (   0 nuclei,    0 pairs)

Choice of magnetic origin               ... GIAO
Position of magnetic origin             ...     0.000000     0.000000     0.000000

Properties with geometric perturbations:
SCF Hessian                             ...  NO
IR spectrum                             ...  NO
VCD spectrum                            ...  NO
X-ray spectroscopy properties:
SCF XES/XAS/RIXS spectra                ...  NO


-------------
DIPOLE MOMENT
-------------

Method             : SCF
Type of density    : Electron Density
Multiplicity       :   1
Irrep              :   0
Energy             :  -463.6475657051829558 Eh
Relativity type    : 
Basis              : AO
                                X                 Y                 Z
Electronic contribution:     -6.124507202      -1.491181034      -0.800914764
Nuclear contribution   :      6.237637040       2.498035337       0.401788066
                        -----------------------------------------
Total Dipole Moment    :      0.113129838       1.006854303      -0.399126698
                        -----------------------------------------
Magnitude (a.u.)       :      1.088970187
Magnitude (Debye)      :      2.767942244



--------------------
Rotational spectrum 
--------------------
 
Rotational constants in cm-1:             0.074681             0.032315             0.028102 
Rotational constants in MHz :          2238.892189           968.785715           842.475447 

Dipole components along the rotational axes: 
x,y,z [a.u.] :     0.058609     1.020080     0.376639 
x,y,z [Debye]:     0.148971     2.592838     0.957341 

 

Dipole moment calculation done in   0.0 sec 

Maximum memory used throughout the entire PROP-calculation: 19.3 MB

--------------------------------
SUGGESTED CITATIONS FOR THIS RUN
--------------------------------

Below you find a list of papers that are relevant to this ORCA run
We neither can nor want to force you to cite these papers, but we appreciate if you do
You receive ORCA, which is the product of decades of hard work by many enthusiastic individuals, for free
The only thing we kindly ask in return is that you cite our papers,
We deeply appreciate it, if you show your appreciation for ORCA by not just citing the generic ORCA reference.

Please note that relegating all ORCA citations to the supporting information does *not* help us.
SI sections are not indexed - citations you put there will not count into any citation statistics
But we need these citations in order to attract the funding resources that allow us to do what we are doing

Therefore, if you are a happy ORCA user, please consider citing a few of the papers listed below in the main body of your paper

In addition to the list printed below, the program has created the file xtb_opt.bibtex that contains the list in bibtex format
You can import this file easily into all common literature databanks and citation aid programs


List of essential papers. We consider these as the minimum necessary citations

  1. Neese,F.
     Software update: the ORCA program system, version 5.0
     WIRES Comput. Molec. Sci., 2022 12(1)e1606
     doi.org/10.1002/wcms.1606
  2. Grimme,S.; Hansen,A.; Ehlert,S.; Mewes,J.
     r2SCAN-3c: A 'Swiss army knife' composite electronic-structure method
     J. Chem. Phys., 2021 154 064103
     doi.org/10.1063/5.0040021

List of papers to cite with high priority. The work reported in these papers was absolutely
necessary for this run to complete.
Our perspective: the developers of density functionals and basis sets usually get cited in chemistry papers
Good! But without the algorithms to do something with them, the functionals or basis sets would not do anything.
Hence, in our opinion, the algorithm design and method developments papers are equally worthy of getting cited

  1. Neese,F.
     An improvement of the resolution of the identity approximation for the formation of the Coulomb matrix
     J. Comp. Chem., 2003 24(14)1740-1747
     doi.org/10.1002/jcc.10318
  2. Garcia-Rates,M.; Neese,F.
     Effect of the Solute Cavity on the Solvation Energy and its Derivatives within the Framework of the Gaussian Charge Scheme
     J. Comput. Chem., 2020 41 922-939
     doi.org/10.1002/jcc.26139
  3. Neese,F.
     The SHARK Integral Generation and Digestion System
     J. Comp. Chem., 2022  1-16
     doi.org/10.1002/jcc.26942
  4. Lehtola,S.; Steigemann,C.; Oliveira,M.; Marques,M.
     Recent developments in Libxc - A comprehensive library of functionals for density functional theory
     Software X, 2018 7 
     doi.org/10.1016/j.softx.2017.11.002
  5. Caldeweyher,E.; Bannwarth,C.; Grimme,S.
     Extension of the D3 dispersion coefficient model
     J. Chem. Phys., 2017 147 034112-XXXX
     doi.org/10.1063/1.4993215
  6. Caldeweyher,E.; Ehlert,S.; Hansen,A.; Neugebauer,H.; Spicher,S.; Bannwarth,C.; Grimme,S.
     A generally applicable atomic-charge dependent London dispersion correction
     J. Chem. Phys., 2019 150 154122-XXXX
     doi.org/10.1063/1.5090222
  7. Caldeweyher,E.; Mewes,J.; Ehlert,S.; Grimme,S.
     Extension and evaluation of the D4 London-dispersion model for periodic systems
     Phys. Chem. Chem. Phys., 2020 22(16)8499-8512
     doi.org/10.1039/D0CP00502A

List of suggested additional citations. These are papers that are important in the 'surrounding' of 
of this run, or papers that preceded the highly important papers. If you like your results we are grateful for a citation.

  1. Neese,F.
     The ORCA program system
     WIRES Comput. Molec. Sci., 2012 2(1)73-78
     doi.org/10.1002/wcms.81
  2. Neese,F.
     Software update: the ORCA program system, version 4.0
     WIRES Comput. Molec. Sci., 2018 8(1)1-6
     doi.org/10.1002/wcms.1327
  3. Neese,F.; Wennmohs,F.; Becker,U.; Riplinger,C.
     The ORCA quantum chemistry program package
     J. Chem. Phys., 2020 152 Art. No. L224108
     doi.org/10.1063/5.0004608

List of optional additional citations

  1. Neese,F.
     Approximate second-order SCF convergence for spin unrestricted wavefunctions
     Chem. Phys. Lett., 2000 325(1-3)93-98
     doi.org/10.1016/s0009-2614(00)00662-x

Timings for individual modules:

Sum of individual times          ...       25.397 sec (=   0.423 min)
Startup calculation              ...        1.397 sec (=   0.023 min)   5.5 %
SCF iterations                   ...        9.983 sec (=   0.166 min)  39.3 %
Property calculations            ...        0.103 sec (=   0.002 min)   0.4 %
SCF Gradient evaluation          ...       13.914 sec (=   0.232 min)  54.8 %
                             ****ORCA TERMINATED NORMALLY****
TOTAL RUN TIME: 0 days 0 hours 0 minutes 26 seconds 216 msec
  ------------------------------------------------------------------------
          * successful ORCA run, taking over control again...

         :::::::::::::::::::::::::::::::::::::::::::::::::::::
         ::                  ORCA SUMMARY                   ::
         :::::::::::::::::::::::::::::::::::::::::::::::::::::
         :: total energy            -463.642519331457 Eh    ::
         :: gradient norm              0.002192678120 Eh/a0 ::
         :: HOMO-LUMO gap              0.000000000000 eV    ::
         :::::::::::::::::::::::::::::::::::::::::::::::::::::

      ----------------------------------------------------------- 
     |                       L-ANC optimizer                     |
      ----------------------------------------------------------- 
          low memory version by Sebastian Ehlert

          ...................................................
          :                      SETUP                      :
          :.................................................:
          :   energy convergence        0.5000000E-05 Eh    :
          :   grad. convergence         0.1000000E-02 Eh/a0 :
          :   optimization log               true           :
          :   writing optlog all                1     steps :
          :   Hessian reset                     8     steps :
          :   maximium step len.        1.0000000     a0    :
          :   LBFGS images                      8           :
          ...................................................
 * calculating model hessian...
Using Lindh-Hessian (1995)
 Shifting diagonal of input Hessian by   1.000000000000000E-002
 Lowest  eigenvalues of input Hessian
    0.000000    0.000000    0.000000    0.000000    0.000000    0.000000
    0.011288    0.013126    0.014462    0.017256    0.020706    0.021696
    0.027258    0.029740    0.031296    0.033382    0.037759    0.046366
 Highest eigenvalues
    1.204350    1.242518    1.264929    1.283022    1.718680    2.252817
 

........................................................................
.............................. CYCLE    1 ..............................
........................................................................
                         * ORCA takes the control...
  ------------------------------------------------------------------------

                                 *****************
                                 * O   R   C   A *
                                 *****************

                                            #,                                       
                                            ###                                      
                                            ####                                     
                                            #####                                    
                                            ######                                   
                                           ########,                                 
                                     ,,################,,,,,                         
                               ,,#################################,,                 
                          ,,##########################################,,             
                       ,#########################################, ''#####,          
                    ,#############################################,,   '####,        
                  ,##################################################,,,,####,       
                ,###########''''           ''''###############################       
              ,#####''   ,,,,##########,,,,          '''####'''          '####       
            ,##' ,,,,###########################,,,                        '##       
           ' ,,###''''                  '''############,,,                           
         ,,##''                                '''############,,,,        ,,,,,,###''
      ,#''                                            '''#######################'''  
     '                                                          ''''####''''         
             ,#######,   #######,   ,#######,      ##                                
            ,#'     '#,  ##    ##  ,#'     '#,    #''#        ,####,   ,####,        
            ##       ##  ##   ,#'  ##            #'  '#       #'       #'  '#        
            ##       ##  #######   ##           ,######,      #####,   #    #        
            '#,     ,#'  ##    ##  '#,     ,#' ,#      #,     #,   #   #,  ,#        
             '#######'   ##     ##  '#######'  #'      '#     '####' # '####'        



                #########################################################
                #                        -***-                          #
                #          Department of theory and spectroscopy        #
                #                                                       #
                #                      Frank Neese                      #
                #                                                       #
                #     Directorship, Architecture, Infrastructure        #
                #                    SHARK, DRIVERS                     #
                #        Core code/Algorithms in most modules           #
                #                                                       #
                #        Max Planck Institute fuer Kohlenforschung      #
                #                Kaiser Wilhelm Platz 1                 #
                #                 D-45470 Muelheim/Ruhr                 #
                #                      Germany                          #
                #                                                       #
                #                  All rights reserved                  #
                #                        -***-                          #
                #########################################################


                         Program Version 6.0.0  -   RELEASE  -


 With contributions from (in alphabetic order):
   Daniel Aravena         : Magnetic Suceptibility
   Michael Atanasov       : Ab Initio Ligand Field Theory (pilot matlab implementation)
   Alexander A. Auer      : GIAO ZORA, VPT2 properties, NMR spectrum
   Ute Becker             : All parallelization in ORCA, NUMFREQ, NUMCALC
   Giovanni Bistoni       : ED, misc. LED, open-shell LED, HFLD
   Martin Brehm           : Molecular dynamics
   Dmytro Bykov           : pre 5.0 version of the SCF Hessian
   Marcos Casanova-Páez   : Triplet and SCS-CIS(D). UHF-(DLPNO)-IP/EA/STEOM-CCSD. UHF-CVS-IP/STEOM-CCSD
   Vijay G. Chilkuri      : MRCI spin determinant printing, contributions to CSF-ICE
   Pauline Colinet        : FMM embedding
   Dipayan Datta          : RHF DLPNO-CCSD density
   Achintya Kumar Dutta   : EOM-CC, STEOM-CC
   Nicolas Foglia         : Exact transition moments, OPA infrastructure, MCD improvements
   Dmitry Ganyushin       : Spin-Orbit,Spin-Spin,Magnetic field MRCI
   Miquel Garcia          : C-PCM and meta-GGA Hessian, CCSD/C-PCM, Gaussian charge scheme
   Tiago L. C. Gouveia    : GS-ROHF, GS-ROCIS
   Yang Guo               : DLPNO-NEVPT2, F12-NEVPT2, CIM, IAO-localization
   Andreas Hansen         : Spin unrestricted coupled pair/coupled cluster methods
   Ingolf Harden          : AUTO-CI MPn and infrastructure 
   Benjamin Helmich-Paris : MC-RPA, TRAH-(SCF,CASSCF), AVAS, COSX integrals, SCF dyn. polar.
   Lee Huntington         : MR-EOM, pCC
   Robert Izsak           : Overlap fitted RIJCOSX, COSX-SCS-MP3, EOM
   Riya Kayal             : Wick's Theorem for AUTO-CI, AUTO-CI UHF-CCSDT
   Emily Kempfer          : AUTO-CI, RHF CISDT and CCSDT
   Christian Kollmar      : KDIIS, OOCD, Brueckner-CCSD(T), CCSD density, CASPT2, CASPT2-K, improved NEVPT2
   Axel Koslowski         : Symmetry handling
   Simone Kossmann        : Meta GGA functionals, TD-DFT gradient, OOMP2, (MP2 Hessian; deprecated post 5.0)
   Lucas Lang             : DCDCAS
   Marvin Lechner         : AUTO-CI (C++ implementation), FIC-MRCC
   Spencer Leger          : CASSCF response
   Dagmar Lenk            : GEPOL surface, SMD, ORCA-2-JSON
   Dimitrios Liakos       : Extrapolation schemes; Compound Job, initial MDCI parallelization
   Dimitrios Manganas     : Further ROCIS development; embedding schemes. LFT, Crystal Embedding
   Dimitrios Pantazis     : SARC Basis sets
   Anastasios Papadopoulos: AUTO-CI, single reference methods and gradients
   Taras Petrenko         : pre 6.0 DFT Hessian and TD-DFT gradient, (ASA, deprecated), ECA, 1-Electron XAS/XES, NRVS
   Peter Pinski           : DLPNO-MP2, DLPNO-MP2 Gradient
   Christoph Reimann      : Effective Core Potentials
   Marius Retegan         : Local ZFS, SOC
   Christoph Riplinger    : Optimizer, TS searches, QM/MM, DLPNO-CCSD(T), (RO)-DLPNO pert. Triples
   Michael Roemelt        : Original ROCIS implementation
   Masaaki Saitow         : Open-shell DLPNO-CCSD energy and density
   Barbara Sandhoefer     : DKH picture change effects
   Kantharuban Sivalingam : CASSCF convergence/infrastructure, NEVPT2 and variants, FIC-MRCI
   Bernardo de Souza      : ESD, SOC TD-DFT
   Georgi Stoychev        : AutoAux, RI-MP2 NMR, DLPNO-MP2 response, X2C
   Van Anh Tran           : RI-MP2 g-tensors
   Willem Van den Heuvel  : Paramagnetic NMR
   Zikuan Wang            : NOTCH, Electric field optimization 
   Frank Wennmohs         : Technical directorship and infrastructure
   Hang Xu                : AUTO-CI-Response properties 


 We gratefully acknowledge several colleagues who have allowed us to
 interface, adapt or use parts of their codes:
   Stefan Grimme, W. Hujo, H. Kruse, P. Pracht,  : VdW corrections, initial TS optimization,
                  C. Bannwarth, S. Ehlert,         DFT functionals, gCP, sTDA/sTD-DF
                  L. Wittmann, M. Mueller
   Ed Valeev, F. Pavosevic, A. Kumar             : LibInt (2-el integral package), F12 methods
   Garnet Chan, S. Sharma, J. Yang, R. Olivares  : DMRG
   Ulf Ekstrom                                   : XCFun DFT Library
   Mihaly Kallay                                 : mrcc  (arbitrary order and MRCC methods)
   Frank Weinhold                                : gennbo (NPA and NBO analysis)
   Simon Mueller                                 : openCOSMO-RS
   Christopher J. Cramer and Donald G. Truhlar   : smd solvation model
   Lars Goerigk                                  : TD-DFT with DH, B97 family of functionals
   V. Asgeirsson, H. Jonsson                     : NEB implementation
   FAccTs GmbH                                   : IRC, NEB, NEB-TS, DLPNO-Multilevel, CI-OPT
                                                   MM, QMMM, 2- and 3-layer-ONIOM, Crystal-QMMM,
                                                   LR-CPCM, SF, NACMEs, symmetry and pop. for TD-DFT,
                                                   nearIR, NL-DFT gradient (VV10), updates on ESD,
                                                   ML-optimized integration grids, MBIS, APM,
                                                   GOAT, DOCKER, SOLVATOR, interface openCOSMO-RS
   S Lehtola, MJT Oliveira, MAL Marques          : LibXC Library
   Liviu Ungur et al                             : ANISO software


 Your calculation uses the libint2 library for the computation of 2-el integrals
 For citations please refer to: http://libint.valeyev.net

 Your ORCA version has been built with support for libXC version: 6.2.2
 For citations please refer to: https://libxc.gitlab.io

 This ORCA versions uses:
   CBLAS   interface :  Fast vector & matrix operations
   LAPACKE interface :  Fast linear algebra routines
   SCALAPACK package :  Parallel linear algebra routines
   Shared memory     :  Shared parallel matrices
   BLAS/LAPACK       :  OpenBLAS 0.3.27  USE64BITINT DYNAMIC_ARCH NO_AFFINITY SkylakeX SINGLE_THREADED
        Core in use  :  SkylakeX
   Copyright (c) 2011-2014, The OpenBLAS Project




***************************************
The coordinates will be read from file: xtb_opt.xyz
***************************************


Your calculation utilizes the geometrical counterpoise correction gCP
Please cite in your paper:
H.Kruse, S. Grimme J.Chem.Phys., 136, (2012), 154101 
   

Your calculation utilizes the atom-pairwise dispersion correction
based on EEQ partial charges (D4)


Your calculation utilizes the SMD solvation module
Please cite in your paper:
A.V. Marenich, C.J. Cramer, D.G. Truhlar J. Phys. Chem. B, 113, (2009), 6378 

================================================================================

----- Orbital basis set information -----
Your calculation utilizes the basis: def2-mTZVPP
   Stefan Grimme, Andreas Hansen, Sebastian Ehlert, and Jan-Michael Mewes 
   J. Chem. Phys. 154, 064103 (2021). DOI: 10.1063/5.0040021

----- AuxJ basis set information -----
Your calculation utilizes the auxiliary basis: def2/J
   F. Weigend, Phys. Chem. Chem. Phys. 8, 1057 (2006).

================================================================================
                                        WARNINGS
                       Please study these warnings very carefully!
================================================================================

WARNING: Old DensityContainer found on disk!
         Will remove this file - 
         If you want to keep old densities, please start your calculation with a different basename. 

Using LibXC functional ID 497 : Re-regularized SCAN exchange by Furness et al
[ 1]  J. W. Furness, A. D. Kaplan, J. Ning, J. P. Perdew, and J. Sun.,  J. Phys. Chem. Lett. 11, 8208-8215 (2020)
[ 2]  J. W. Furness, A. D. Kaplan, J. Ning, J. P. Perdew, and J. Sun.,  J. Phys. Chem. Lett. 11, 9248-9248 (2020)
Using LibXC functional ID 498 : Re-regularized SCAN correlation by Furness et al
[ 1]  J. W. Furness, A. D. Kaplan, J. Ning, J. P. Perdew, and J. Sun.,  J. Phys. Chem. Lett. 11, 8208-8215 (2020)
[ 2]  J. W. Furness, A. D. Kaplan, J. Ning, J. P. Perdew, and J. Sun.,  J. Phys. Chem. Lett. 11, 9248-9248 (2020)
Using LibXC functional ID 497 : Re-regularized SCAN exchange by Furness et al
[ 1]  J. W. Furness, A. D. Kaplan, J. Ning, J. P. Perdew, and J. Sun.,  J. Phys. Chem. Lett. 11, 8208-8215 (2020)
[ 2]  J. W. Furness, A. D. Kaplan, J. Ning, J. P. Perdew, and J. Sun.,  J. Phys. Chem. Lett. 11, 9248-9248 (2020)
Using LibXC functional ID 498 : Re-regularized SCAN correlation by Furness et al
[ 1]  J. W. Furness, A. D. Kaplan, J. Ning, J. P. Perdew, and J. Sun.,  J. Phys. Chem. Lett. 11, 8208-8215 (2020)
[ 2]  J. W. Furness, A. D. Kaplan, J. Ning, J. P. Perdew, and J. Sun.,  J. Phys. Chem. Lett. 11, 9248-9248 (2020)

================================================================================
                                       INPUT FILE
================================================================================
NAME = xtb_opt.inp
|  1> ! r2scan-3c def2/J RI DEFGRID2 scfconv7 ENGRAD tightSCF miniprint
|  2> %cpcm
|  3>     smd true
|  4>     smdsolvent "water"
|  5> end
|  6> * xyzfile 0 1 xtb_opt.xyz
|  7> 
|  8>                          ****END OF INPUT****
================================================================================

                     *******************************
                     * Energy+Gradient Calculation *
                     *******************************

---------------------------------
CARTESIAN COORDINATES (ANGSTROEM)
---------------------------------
  C     -2.925011    0.793476    0.966757
  O     -1.750615    0.818228    0.115988
  C     -1.066562   -0.339630    0.026012
  O     -1.414195   -1.349911    0.615636
  C      0.109938   -0.246984   -0.925373
  C      1.122322   -1.369985   -0.663260
  C      1.878339   -1.149985    0.650294
  C      2.561812    0.219067    0.674925
  C      1.554250    1.342097    0.417391
  C      0.812894    1.120788   -0.902536
  H     -3.654471    0.075192    0.584773
  H     -3.330247    1.804168    0.928107
  H     -2.643507    0.535081    1.990398
  H     -0.341021   -0.393314   -1.918593
  H      0.622963   -2.343429   -0.667150
  H      1.837423   -1.368351   -1.494984
  H      1.175876   -1.216896    1.492140
  H      2.616700   -1.947726    0.789791
  H      3.064177    0.373412    1.636861
  H      3.337833    0.249496   -0.102532
  H      0.829597    1.376403    1.243840
  H      2.061517    2.313321    0.398959
  H      0.101020    1.927561   -1.094603
  H      1.537487    1.128118   -1.726383

----------------------------
CARTESIAN COORDINATES (A.U.)
----------------------------
  NO LB      ZA    FRAG     MASS         X           Y           Z
   0 C     6.0000    0    12.011   -5.527469    1.499452    1.826905
   1 O     8.0000    0    15.999   -3.308182    1.546227    0.219185
   2 C     6.0000    0    12.011   -2.015510   -0.641808    0.049156
   3 O     8.0000    0    15.999   -2.672441   -2.550962    1.163384
   4 C     6.0000    0    12.011    0.207753   -0.466733   -1.748702
   5 C     6.0000    0    12.011    2.120882   -2.588897   -1.253380
   6 C     6.0000    0    12.011    3.549547   -2.173156    1.228878
   7 C     6.0000    0    12.011    4.841122    0.413977    1.275424
   8 C     6.0000    0    12.011    2.937107    2.536196    0.788755
   9 C     6.0000    0    12.011    1.536148    2.117982   -1.705545
  10 H     1.0000    0     1.008   -6.905949    0.142092    1.105060
  11 H     1.0000    0     1.008   -6.293254    3.409384    1.753868
  12 H     1.0000    0     1.008   -4.995504    1.011157    3.761306
  13 H     1.0000    0     1.008   -0.644437   -0.743256   -3.625615
  14 H     1.0000    0     1.008    1.177230   -4.428439   -1.260730
  15 H     1.0000    0     1.008    3.472226   -2.585808   -2.825111
  16 H     1.0000    0     1.008    2.222083   -2.299600    2.819736
  17 H     1.0000    0     1.008    4.944845   -3.680669    1.492489
  18 H     1.0000    0     1.008    5.790456    0.705647    3.093219
  19 H     1.0000    0     1.008    6.307590    0.471479   -0.193757
  20 H     1.0000    0     1.008    1.567711    2.601025    2.350517
  21 H     1.0000    0     1.008    3.895703    4.371543    0.753924
  22 H     1.0000    0     1.008    0.190899    3.642563   -2.068499
  23 H     1.0000    0     1.008    2.905429    2.131834   -3.262391

------------------------------------------------------------------------------
                   ___                                                        
                  /   \      - P O W E R E D   B Y -                         
                 /     \                                                     
                 |  |  |   _    _      __       _____    __    __             
                 |  |  |  | |  | |    /  \     |  _  \  |  |  /  |          
                  \  \/   | |  | |   /    \    | | | |  |  | /  /          
                 / \  \   | |__| |  /  /\  \   | |_| |  |  |/  /          
                |  |  |   |  __  | /  /__\  \  |    /   |      \           
                |  |  |   | |  | | |   __   |  |    \   |  |\   \          
                \     /   | |  | | |  |  |  |  | |\  \  |  | \   \       
                 \___/    |_|  |_| |__|  |__|  |_| \__\ |__|  \__/        
                                                                              
                      - O R C A' S   B I G   F R I E N D -                    
                                      &                                       
                       - I N T E G R A L  F E E D E R -                       
                                                                              
 v1 FN, 2020, v2 2021, v3 2022-2024                                           
------------------------------------------------------------------------------


----------------------
SHARK INTEGRAL PACKAGE
----------------------

Number of atoms                             ...     24
Number of basis functions                   ...    270
Number of shells                            ...    134
Maximum angular momentum                    ...      2
Integral batch strategy                     ... SHARK/LIBINT Hybrid
RI-J (if used) integral strategy            ... SPLIT-RIJ (Revised 2003 algorithm where possible)
Printlevel                                  ...      1
Contraction scheme used                     ... SEGMENTED contraction
Prescreening option                         ... SCHWARTZ
   Thresh                                   ... 3.000e-11
   Tcut                                     ... 1.000e-12
   Tpresel                                  ... 1.000e-12 
Coulomb Range Separation                    ... NOT USED
Exchange Range Separation                   ... NOT USED
Multipole approximations                    ... NOT USED
Finite Nucleus Model                        ... NOT USED
CABS basis                                  ... NOT available
Auxiliary Coulomb fitting basis             ... AVAILABLE
   # of basis functions in Aux-J            ...    644
   # of shells in Aux-J                     ...    220
   Maximum angular momentum in Aux-J        ...      4
Auxiliary J/K fitting basis                 ... NOT available
Auxiliary Correlation fitting basis         ... NOT available
Auxiliary 'external' fitting basis          ... NOT available

Checking pre-screening integrals            ... done (  0.0 sec) Dimension = 134
Check shell pair data                       ... done (  0.0 sec)
Shell pair information
Shell pair cut-off parameter TPreSel        ...   1.0e-12
Total number of shell pairs                 ...      9045
Shell pairs after pre-screening             ...      8102
Total number of primitive shell pairs       ...     32140
Primitive shell pairs kept                  ...     20151
          la=0 lb=0:   2700 shell pairs
          la=1 lb=0:   3087 shell pairs
          la=1 lb=1:    898 shell pairs
          la=2 lb=0:    851 shell pairs
          la=2 lb=1:    490 shell pairs
          la=2 lb=2:     76 shell pairs

Calculating one electron integrals          ... done (  0.0 sec)
Calculating RI/J V-Matrix + Cholesky decomp.... done (  0.1 sec)
Calculating Nuclear repulsion               ... done (  0.0 sec) ENN=    578.067385387512 Eh

Diagonalization of the overlap matrix:
Smallest eigenvalue                        ... 6.716e-05
Time for diagonalization                   ...    0.006 sec
Threshold for overlap eigenvalues          ... 1.000e-07
Number of eigenvalues below threshold      ... 0
Time for construction of square roots      ...    0.015 sec
Total time needed                          ...    0.029 sec

-------------------
DFT GRID GENERATION
-------------------

General Integration Accuracy     IntAcc      ... 4.388
Radial Grid Type                 RadialGrid  ... OptM3 with GC (2021)
Angular Grid (max. ang.)         AngularGrid ... 4 (Lebedev-302)
Angular grid pruning method      GridPruning ... 4 (adaptive)
Weight generation scheme         WeightScheme... mBecke (2022)
Basis function cutoff            BFCut       ... 1.0000e-11
Integration weight cutoff        WCut        ... 1.0000e-14
Partially contracted basis set               ... off
Rotationally invariant grid construction     ... off
Angular grids for H and He will be reduced by one unit
Diffuse basis detected: some atoms will have their outermost
                        angular grid increased by 1.

Total number of grid points                  ...   105075
Total number of batches                      ...     1654
Average number of points per batch           ...       63
Average number of grid points per atom       ...     4378
Initializing property integral containers    ... done (  0.0 sec)

SHARK setup successfully completed in   1.4 seconds

Maximum memory used throughout the entire STARTUP-calculation: 49.5 MB
Occupation numbers will be reassigned to an Aufbau configuration
             **** ENERGY FILE WAS UPDATED (xtb_opt.en.tmp) ****
Finished Guess after   0.3 sec
Maximum memory used throughout the entire GUESS-calculation: 20.3 MB
--------------------
CPCM SOLVATION MODEL
--------------------
CPCM parameters:
  Epsilon                                         ...      78.3550
  Refrac                                          ...       1.3328
  Rsolv                                           ...       1.3000
  Surface type                                    ... GAUSSIAN VDW
  Discretization scheme                           ... Constant charge density
    Threshold for H atoms                         ...       5.0000 (charges/Ang^2)
    Threshold for non-H atoms                     ...       5.0000 (charges/Ang^2)
  Epsilon function type                           ...         CPCM
Solvent:                                          ... WATER
SMD-CDS solvent descriptors:
  Soln                                            ...       1.3328
  Soln25                                          ...       1.3323
  Sola                                            ...       0.0000
  Solb                                            ...       0.0000
  Solg                                            ...       0.0000
  Solc                                            ...       0.0000
  Solh                                            ...       0.0000
Radii:
  Scheme                                          ... Element-dependent radii
  Radius for C  used is    3.4960 Bohr (=   1.8500 Ang.)
  Radius for O  used is    2.8724 Bohr (=   1.5200 Ang.)
  Radius for H  used is    2.2677 Bohr (=   1.2000 Ang.)
Calculating surface                               ...        done! (  0.0s)
Cavity surface points                             ...         1705
Cavity Volume                                     ...    1038.7989
Cavity Surface-area                               ...     647.7531
Calculating surface distance matrix               ...        done! (  0.0s)
Performing Cholesky decomposition & store         ...        done! (  0.1s)
Overall time for CPCM initialization              ...                 0.1s

----------------------------------------D-I-I-S--------------------------------------------
Iteration    Energy (Eh)           Delta-E    RMSDP     MaxDP     DIISErr   Damp  Time(sec)
-------------------------------------------------------------------------------------------
               ***  Starting incremental Fock matrix formation  ***
                              *** Initializing SOSCF ***
---------------------------------------S-O-S-C-F--------------------------------------
Iteration    Energy (Eh)           Delta-E    RMSDP     MaxDP     MaxGrad    Time(sec)
--------------------------------------------------------------------------------------
    1    -463.6551033830400002     0.00e+00  2.92e-05  1.76e-03  5.08e-05     4.5
               *** Restarting incremental Fock matrix formation ***
    2    -463.6551092666069280    -5.88e-06  1.26e-05  3.10e-04  1.08e-04     4.5
    3    -463.6551091399279585     1.27e-07  7.35e-06  2.00e-04  2.48e-04     3.2
    4    -463.6551096938177352    -5.54e-07  5.39e-06  2.62e-04  4.40e-05     3.2
    5    -463.6551097277530289    -3.39e-08  2.34e-06  1.13e-04  1.34e-05     3.1
                 **** Energy Check signals convergence ****

               *****************************************************
               *                     SUCCESS                       *
               *           SCF CONVERGED AFTER   5 CYCLES          *
               *****************************************************


SMD CDS free energy correction energy :                 4.72600     Kcal/mol
Total Energy after SMD CDS correction =              -463.647578372 Eh
             **** ENERGY FILE WAS UPDATED (xtb_opt.en.tmp) ****

----------------
TOTAL SCF ENERGY
----------------

Total Energy       :       -463.64757837221038 Eh          -12616.49202 eV

Components:
Nuclear Repulsion  :        578.06738538751199 Eh           15730.01325 eV
Electronic Energy  :      -1041.70686542474618 Eh          -28346.28491 eV
One Electron Energy:      -1776.27066139524050 Eh          -48334.78199 eV
Two Electron Energy:        734.56379597049431 Eh           19988.49708 eV
CPCM Dielectric    :         -0.01562969051887 Eh              -0.42531 eV
SMD CDS (Gcds)     :          0.00753135554268 Eh               0.20494 eV

Virial components:
Potential Energy   :       -925.10223611258107 Eh          -25173.31163 eV
Kinetic Energy     :        461.45465774037064 Eh           12556.81961 eV
Virial Ratio       :          2.00475219091422

DFT components:
N(Alpha)           :       38.999943073841 electrons
N(Beta)            :       38.999943073841 electrons
N(Total)           :       77.999886147682 electrons
E(X)               :      -63.192666922709 Eh       
E(C)               :       -2.502675045891 Eh       
E(XC)              :      -65.695341968600 Eh       

CPCM Solvation Model Properties:
Surface-charge          :         -0.04984120752693
Corrected charge        :          0.00000000000000
Outlying charge corr.   :          0.00018142852783 Eh               0.00494 eV
Free-energy (cav+disp)  :          0.00753135554268 Eh               0.20494 eV

---------------
SCF CONVERGENCE
---------------

  Last Energy change         ...    3.3935e-08  Tolerance :   1.0000e-07
  Last MAX-Density change    ...    1.1285e-04  Tolerance :   1.0000e-07
  Last RMS-Density change    ...    2.3362e-06  Tolerance :   5.0000e-09
  Last DIIS Error            ...    6.5200e-04  Tolerance :   1.0000e-07
  Last Orbital Gradient      ...    1.3387e-05  Tolerance :   1.0000e-04
  Last Orbital Rotation      ...    2.2584e-05  Tolerance :   1.0000e-04


----------------
ORBITAL ENERGIES
----------------

  NO   OCC          E(Eh)            E(eV) 
   0   2.0000     -19.003025      -517.0986 
   1   2.0000     -18.945509      -515.5335 
   2   2.0000     -10.163067      -276.5511 
   3   2.0000     -10.077725      -274.2288 
   4   2.0000     -10.045775      -273.3594 
   5   2.0000     -10.024150      -272.7710 
   6   2.0000     -10.023000      -272.7397 
   7   2.0000     -10.018973      -272.6301 
   8   2.0000     -10.018110      -272.6066 
   9   2.0000     -10.016970      -272.5756 
  10   2.0000      -1.070624       -29.1332 
  11   2.0000      -0.983733       -26.7687 
  12   2.0000      -0.800284       -21.7768 
  13   2.0000      -0.726215       -19.7613 
  14   2.0000      -0.703013       -19.1300 
  15   2.0000      -0.680244       -18.5104 
  16   2.0000      -0.592337       -16.1183 
  17   2.0000      -0.569611       -15.4999 
  18   2.0000      -0.539163       -14.6714 
  19   2.0000      -0.511135       -13.9087 
  20   2.0000      -0.462573       -12.5873 
  21   2.0000      -0.451775       -12.2934 
  22   2.0000      -0.450271       -12.2525 
  23   2.0000      -0.433209       -11.7882 
  24   2.0000      -0.404924       -11.0185 
  25   2.0000      -0.400155       -10.8888 
  26   2.0000      -0.386788       -10.5250 
[...]
  17   2.0000      -0.569612       -15.4999 
  18   2.0000      -0.539188       -14.6720 
  19   2.0000      -0.511272       -13.9124 
  20   2.0000      -0.462663       -12.5897 
  21   2.0000      -0.451717       -12.2918 
  22   2.0000      -0.450480       -12.2582 
  23   2.0000      -0.433341       -11.7918 
  24   2.0000      -0.404990       -11.0203 
  25   2.0000      -0.400096       -10.8872 
  26   2.0000      -0.386865       -10.5271 
  27   2.0000      -0.368901       -10.0383 
  28   2.0000      -0.344741        -9.3809 
  29   2.0000      -0.342441        -9.3183 
  30   2.0000      -0.336441        -9.1550 
  31   2.0000      -0.334133        -9.0922 
  32   2.0000      -0.320521        -8.7218 
  33   2.0000      -0.304326        -8.2811 
  34   2.0000      -0.284106        -7.7309 
  35   2.0000      -0.281210        -7.6521 
  36   2.0000      -0.266115        -7.2413 
  37   2.0000      -0.265305        -7.2193 
  38   2.0000      -0.248136        -6.7521 
  39   0.0000      -0.027666        -0.7528 
  40   0.0000       0.063166         1.7188 
  41   0.0000       0.089641         2.4392 
  42   0.0000       0.108082         2.9411 
  43   0.0000       0.119258         3.2452 
  44   0.0000       0.124856         3.3975 
  45   0.0000       0.126107         3.4316 
  46   0.0000       0.129146         3.5142 
  47   0.0000       0.149397         4.0653 
  48   0.0000       0.155424         4.2293 
  49   0.0000       0.166734         4.5371 
*Only the first 10 virtual orbitals were printed.
Total SCF time: 0 days 0 hours 0 min 12 sec 
Finished LeanSCF after  12.7 sec

Maximum memory used throughout the entire LEANSCF-calculation: 40.5 MB


-------------------------------------------------------------------------------
                          DFT DISPERSION CORRECTION                            
                                                                               
                                DFTD4 V3.4.0                                   
-------------------------------------------------------------------------------
-------------------------   ----------------
Dispersion correction           -0.007869335
-------------------------   ----------------

------------------   -----------------
gCP correction             0.012929439
------------------   -----------------

-------------------------   --------------------
FINAL SINGLE POINT ENERGY      -463.642534338723
-------------------------   --------------------

------------------------------------------------------------------------------
                         ORCA SCF GRADIENT CALCULATION
------------------------------------------------------------------------------

Nuc. rep. gradient        (SHARK) ... done (  0.0 sec)
HCore & Overlap gradient  (SHARK) ... done (  0.4 sec)
Split-RIJ-J gradient      (SHARK) ... done (  2.3 sec)
XC gradient                       ... done (  8.5 sec)
CPCM gradient                     ... done (  1.3 sec)
SMD gradient                      ... done (  0.0 sec)
Dispersion correction             ... done (  0.0 sec)

-------------------
DISPERSION GRADIENT
-------------------

   1   C   :   -0.000115728    0.000020164    0.000042408
   2   O   :   -0.000112589    0.000037513    0.000005404
   3   C   :   -0.000100602   -0.000020094   -0.000002908
   4   O   :   -0.000097629   -0.000085188    0.000029138
   5   C   :   -0.000005256   -0.000018906   -0.000066472
   6   C   :    0.000035433   -0.000081487   -0.000044836
   7   C   :    0.000076109   -0.000066315    0.000038053
   8   C   :    0.000106460    0.000015646    0.000038078
   9   C   :    0.000071266    0.000084719    0.000022792
  10   C   :    0.000030737    0.000069725   -0.000066993
  11   H   :   -0.000031725    0.000007235    0.000011369
  12   H   :   -0.000036172    0.000015450    0.000012637
  13   H   :   -0.000043889    0.000008456    0.000020110
  14   H   :   -0.000016098   -0.000011010   -0.000048184
  15   H   :    0.000000621   -0.000050581   -0.000013324
  16   H   :    0.000020769   -0.000033242   -0.000028915
  17   H   :    0.000025693   -0.000032986    0.000027930
  18   H   :    0.000036528   -0.000037272    0.000017508
  19   H   :    0.000040975    0.000008165    0.000032526
  20   H   :    0.000042255    0.000006425    0.000008847
  21   H   :    0.000027566    0.000038317    0.000021546
  22   H   :    0.000030026    0.000048924    0.000009384
  23   H   :   -0.000000840    0.000045946   -0.000029955
  24   H   :    0.000016088    0.000030397   -0.000036141

Difference to translation invariance:
           :   -0.0000000000   -0.0000000000    0.0000000000

Difference to rotation invariance:
           :    0.0000000000   -0.0000000000    0.0000000000

Norm of the Dispersion gradient    ...    0.0003940506
RMS gradient                       ...    0.0000464393
MAX gradient                       ...    0.0001157284
gCP correction                   ... done

------------------
CARTESIAN GRADIENT
------------------

   1   C   :    0.000020786    0.000064342   -0.000032132
   2   O   :    0.000174563   -0.000474257    0.000006782
   3   C   :   -0.000091006    0.000608809    0.000104744
   4   O   :   -0.000052121   -0.000120354   -0.000052178
   5   C   :   -0.000112528   -0.000002691   -0.000036862
   6   C   :    0.000063586   -0.000001142    0.000075656
   7   C   :   -0.000083744    0.000003881   -0.000029492
   8   C   :   -0.000009605    0.000046438    0.000016004
   9   C   :   -0.000006844   -0.000074171    0.000030119
  10   C   :   -0.000015025    0.000007763   -0.000083059
  11   H   :    0.000023033    0.000015932    0.000013356
  12   H   :    0.000053545   -0.000061311    0.000014810
  13   H   :    0.000023867   -0.000031774   -0.000031797
  14   H   :    0.000067320   -0.000028838   -0.000001841
  15   H   :   -0.000020637    0.000000355   -0.000004789
  16   H   :    0.000012948   -0.000008013    0.000019179
  17   H   :   -0.000013457   -0.000000025    0.000005964
  18   H   :   -0.000008456    0.000024134    0.000017848
  19   H   :   -0.000020079    0.000013019    0.000020011
  20   H   :    0.000002338   -0.000011920    0.000014662
  21   H   :   -0.000012529    0.000031003   -0.000011944
  22   H   :   -0.000002444   -0.000001892   -0.000027495
  23   H   :    0.000001446   -0.000001461   -0.000016674
  24   H   :    0.000005043    0.000002174   -0.000010872

Difference to translation invariance:
           :   -0.0000000000   -0.0000000000    0.0000000000

Difference to rotation invariance:
           :   -0.0004466250   -0.0005334220    0.0001825370

Norm of the Cartesian gradient     ...    0.0008605251
RMS gradient                       ...    0.0001014139
MAX gradient                       ...    0.0006088086

-------
TIMINGS
-------

Total SCF gradient time     ....       13.771 sec

Densities                   ....       0.001 sec  (  0.0%)
One electron gradient       ....       0.443 sec  (  3.2%)
RI-J Coulomb gradient       ....       2.350 sec  ( 17.1%)
XC gradient                 ....       8.538 sec  ( 62.0%)
CPCM gradient               ....       1.347 sec  (  9.8%)
   A-Matrix (El+Nuc)        ....       0.088 sec  (  0.6%)
   Potential                ....       1.259 sec  (  9.1%)
SMD gradient                ....       0.012 sec  (  0.1%)

Maximum memory used throughout the entire SCFGRAD-calculation: 40.5 MB

------------------------------------------------------------------------------
                              ORCA PROPERTY CALCULATIONS
------------------------------------------------------------------------------

GBWName                                 ... xtb_opt.gbw
Number of atoms                         ...     24
Number of basis functions               ...    270
Max core memory                         ...   1024 MB

Electric properties:
Dipole moment                           ... YES
Quadrupole moment                       ...  NO
Static polarizability (Dipole/Dipole)   ...  NO
Static polarizability (Dipole/Quad.)    ...  NO
Static polarizability (Quad./Quad.)     ...  NO
Static polarizability (Velocity)        ...  NO

Atomic electric properties:
Dipole moment                           ...  NO
Quadrupole moment                       ...  NO
Static polarizability                   ...  NO

Choice of electric origin               ... Center of mass
Position of electric origin             ...     0.070021    -0.019537     0.223621

General magnetic properties:
Magnetizability                         ...  NO

EPR properties:
g-Tensor (aka g-matrix)                 ...  NO
Zero-Field splitting spin-orbit         ...  NO
Zero-field splitting spin-spin          ...  NO
Hyperfine couplings                     ...  NO (   0 nuclei)
Quadrupole couplings                    ...  NO (   0 nuclei)
Contact density                         ...  NO (   0 nuclei)

NMR properties:
Chemical shifts                         ...  NO (   0 nuclei)
Spin-rotation constants                 ...  NO (   0 nuclei)
Spin-spin couplings                     ...  NO (   0 nuclei,    0 pairs)

Choice of magnetic origin               ... GIAO
Position of magnetic origin             ...     0.000000     0.000000     0.000000

Properties with geometric perturbations:
SCF Hessian                             ...  NO
IR spectrum                             ...  NO
VCD spectrum                            ...  NO
X-ray spectroscopy properties:
SCF XES/XAS/RIXS spectra                ...  NO


-------------
DIPOLE MOMENT
-------------

Method             : SCF
Type of density    : Electron Density
Multiplicity       :   1
Irrep              :   0
Energy             :  -463.6475944431882112 Eh
Relativity type    : 
Basis              : AO
                                X                 Y                 Z
Electronic contribution:     -6.129915923      -1.466480698      -0.781171312
Nuclear contribution   :      6.233777296       2.480558085       0.378233663
                        -----------------------------------------
Total Dipole Moment    :      0.103861373       1.014077387      -0.402937649
                        -----------------------------------------
Magnitude (a.u.)       :      1.096129044
Magnitude (Debye)      :      2.786138612



--------------------
Rotational spectrum 
--------------------
 
Rotational constants in cm-1:             0.074855             0.032283             0.028067 
Rotational constants in MHz :          2244.091468           967.818281           841.414283 

Dipole components along the rotational axes: 
x,y,z [a.u.] :     0.048173     1.027047     0.379937 
x,y,z [Debye]:     0.122446     2.610547     0.965723 

 

Dipole moment calculation done in   0.0 sec 

Maximum memory used throughout the entire PROP-calculation: 19.3 MB

--------------------------------
SUGGESTED CITATIONS FOR THIS RUN
--------------------------------

Below you find a list of papers that are relevant to this ORCA run
We neither can nor want to force you to cite these papers, but we appreciate if you do
You receive ORCA, which is the product of decades of hard work by many enthusiastic individuals, for free
The only thing we kindly ask in return is that you cite our papers,
We deeply appreciate it, if you show your appreciation for ORCA by not just citing the generic ORCA reference.

Please note that relegating all ORCA citations to the supporting information does *not* help us.
SI sections are not indexed - citations you put there will not count into any citation statistics
But we need these citations in order to attract the funding resources that allow us to do what we are doing

Therefore, if you are a happy ORCA user, please consider citing a few of the papers listed below in the main body of your paper

In addition to the list printed below, the program has created the file xtb_opt.bibtex that contains the list in bibtex format
You can import this file easily into all common literature databanks and citation aid programs


List of essential papers. We consider these as the minimum necessary citations

  1. Neese,F.
     Software update: the ORCA program system, version 5.0
     WIRES Comput. Molec. Sci., 2022 12(1)e1606
     doi.org/10.1002/wcms.1606
  2. Grimme,S.; Hansen,A.; Ehlert,S.; Mewes,J.
     r2SCAN-3c: A 'Swiss army knife' composite electronic-structure method
     J. Chem. Phys., 2021 154 064103
     doi.org/10.1063/5.0040021

List of papers to cite with high priority. The work reported in these papers was absolutely
necessary for this run to complete.
Our perspective: the developers of density functionals and basis sets usually get cited in chemistry papers
Good! But without the algorithms to do something with them, the functionals or basis sets would not do anything.
Hence, in our opinion, the algorithm design and method developments papers are equally worthy of getting cited

  1. Neese,F.
     An improvement of the resolution of the identity approximation for the formation of the Coulomb matrix
     J. Comp. Chem., 2003 24(14)1740-1747
     doi.org/10.1002/jcc.10318
  2. Garcia-Rates,M.; Neese,F.
     Effect of the Solute Cavity on the Solvation Energy and its Derivatives within the Framework of the Gaussian Charge Scheme
     J. Comput. Chem., 2020 41 922-939
     doi.org/10.1002/jcc.26139
  3. Neese,F.
     The SHARK Integral Generation and Digestion System
     J. Comp. Chem., 2022  1-16
     doi.org/10.1002/jcc.26942
  4. Lehtola,S.; Steigemann,C.; Oliveira,M.; Marques,M.
     Recent developments in Libxc - A comprehensive library of functionals for density functional theory
     Software X, 2018 7 
     doi.org/10.1016/j.softx.2017.11.002
  5. Caldeweyher,E.; Bannwarth,C.; Grimme,S.
     Extension of the D3 dispersion coefficient model
     J. Chem. Phys., 2017 147 034112-XXXX
     doi.org/10.1063/1.4993215
  6. Caldeweyher,E.; Ehlert,S.; Hansen,A.; Neugebauer,H.; Spicher,S.; Bannwarth,C.; Grimme,S.
     A generally applicable atomic-charge dependent London dispersion correction
     J. Chem. Phys., 2019 150 154122-XXXX
     doi.org/10.1063/1.5090222
  7. Caldeweyher,E.; Mewes,J.; Ehlert,S.; Grimme,S.
     Extension and evaluation of the D4 London-dispersion model for periodic systems
     Phys. Chem. Chem. Phys., 2020 22(16)8499-8512
     doi.org/10.1039/D0CP00502A

List of suggested additional citations. These are papers that are important in the 'surrounding' of 
of this run, or papers that preceded the highly important papers. If you like your results we are grateful for a citation.

  1. Neese,F.
     The ORCA program system
     WIRES Comput. Molec. Sci., 2012 2(1)73-78
     doi.org/10.1002/wcms.81
  2. Neese,F.
     Software update: the ORCA program system, version 4.0
     WIRES Comput. Molec. Sci., 2018 8(1)1-6
     doi.org/10.1002/wcms.1327
  3. Neese,F.; Wennmohs,F.; Becker,U.; Riplinger,C.
     The ORCA quantum chemistry program package
     J. Chem. Phys., 2020 152 Art. No. L224108
     doi.org/10.1063/5.0004608

List of optional additional citations

  1. Neese,F.
     Approximate second-order SCF convergence for spin unrestricted wavefunctions
     Chem. Phys. Lett., 2000 325(1-3)93-98
     doi.org/10.1016/s0009-2614(00)00662-x

Timings for individual modules:

Sum of individual times          ...       28.391 sec (=   0.473 min)
Startup calculation              ...        1.435 sec (=   0.024 min)   5.1 %
SCF iterations                   ...       12.992 sec (=   0.217 min)  45.8 %
Property calculations            ...        0.100 sec (=   0.002 min)   0.4 %
SCF Gradient evaluation          ...       13.864 sec (=   0.231 min)  48.8 %
                             ****ORCA TERMINATED NORMALLY****
TOTAL RUN TIME: 0 days 0 hours 0 minutes 29 seconds 183 msec
  ------------------------------------------------------------------------
          * successful ORCA run, taking over control again...

         :::::::::::::::::::::::::::::::::::::::::::::::::::::
         ::                  ORCA SUMMARY                   ::
         :::::::::::::::::::::::::::::::::::::::::::::::::::::
         :: total energy            -463.642534338723 Eh    ::
         :: gradient norm              0.000860525137 Eh/a0 ::
         :: HOMO-LUMO gap              0.000000000000 eV    ::
         :::::::::::::::::::::::::::::::::::::::::::::::::::::

           -------------------------------------------------
          |                Property Printout                |
           -------------------------------------------------
           -------------------------------------------------
          |                Geometry Summary                 |
           -------------------------------------------------

      molecular mass/u    :      142.1958675
   center of mass at/Å    :        0.0370343      -0.0103421       0.1183379
  moments of inertia/u·Å² :        0.2251998E+03   0.5221735E+03   0.6006201E+03
rotational constants/cm⁻¹ :        0.7485633E-01   0.3228359E-01   0.2806705E-01

 * 22 selected distances

     #   Z          #   Z                                           value/Å
     2   8 O        3   6 C                                       1.3455865
     3   6 C        4   8 O                                       1.2207878
     5   6 C        6   6 C                                       1.5346475
     6   6 C        7   6 C                                       1.5312109
     7   6 C        8   6 C                                       1.5304496
     8   6 C        9   6 C                                       1.5302461
     5   6 C       10   6 C                                       1.5379024 (max)
     9   6 C       10   6 C                                       1.5300248
     1   6 C       11   1 H                                       1.0925560
     1   6 C       12   1 H                                       1.0893085 (min)
     1   6 C       13   1 H                                       1.0925115
     5   6 C       14   1 H                                       1.1004754
     6   6 C       15   1 H                                       1.0940989
     6   6 C       16   1 H                                       1.0968301
     7   6 C       17   1 H                                       1.0984700
     7   6 C       18   1 H                                       1.0959265
     8   6 C       19   1 H                                       1.0961265
     8   6 C       20   1 H                                       1.0989224
     9   6 C       21   1 H                                       1.0997490
     9   6 C       22   1 H                                       1.0958513
    10   6 C       23   1 H                                       1.0929765
    10   6 C       24   1 H                                       1.0971960

 * 3 distinct bonds (by element types)

   Z      Z             #   av. dist./Å        max./Å        min./Å
   1 H    6 C          14     1.0957856     1.1004754     1.0893085
   6 C    6 C           6     1.5324135     1.5379024     1.5300248
   6 C    8 O           2     1.2831872     1.3455865     1.2207878


optimized geometry written to: xtbopt.coord


           -------------------------------------------------
          | TOTAL ENERGY             -463.642534338723 Eh   |
          | GRADIENT NORM               0.000860525137 Eh/α |
           -------------------------------------------------

------------------------------------------------------------------------
 * finished run on 2025/04/06 at 09:31:10.847     
------------------------------------------------------------------------
 total:
 * wall-time:     0 d,  0 h,  2 min, 37.004 sec
 *  cpu-time:     0 d,  0 h,  0 min,  6.034 sec
 * ratio c/w:     0.038 speedup
 SCF:
 * wall-time:     0 d,  0 h,  0 min, 26.259 sec
 *  cpu-time:     0 d,  0 h,  0 min,  2.964 sec
 * ratio c/w:     0.113 speedup
 ANC optimizer:
 * wall-time:     0 d,  0 h,  2 min, 10.727 sec
 *  cpu-time:     0 d,  0 h,  0 min,  3.050 sec
 * ratio c/w:     0.023 speedup

