21
 energy: -350.083547741993 gnorm: 0.021214031964 xtb: 6.7.1 (edcfbbe)
C           -3.15899875509984        0.00251692760112        0.84131352857281
C           -2.45475176158777       -0.00157049540070       -0.51751113132932
C           -0.96304385472675       -0.00117097840052       -0.33880084395013
C           -0.25864427611461       -1.19295087692863       -0.22921825880157
C            1.10857653289124       -1.19245068772841       -0.02241048750993
C            1.81316959360346        0.00007993320004        0.08370122703709
C            1.10769679699085        1.19207821682824       -0.02418680251072
C           -0.25941906101496        1.19134766332792       -0.23091141810232
C            3.29860961606170        0.00141604430063        0.28339427272558
H           -2.87518514737407        0.88470501879204        1.41072243262513
H           -2.87826203667543       -0.87839293958924        1.41419009832667
H           -4.23821896657807        0.00411021950182        0.71015625731469
H           -2.75887003872253        0.88173333639072       -1.08245422057966
H           -2.75913497122265       -0.88795275359348       -1.07750808227747
H           -0.78720639804883       -2.13259049134501       -0.30835762593664
H            1.63725561772551       -2.13177716934465        0.05820331232579
H            1.63590568212491        2.13179350144465        0.05516673902445
H           -0.78868105854949        2.13048191044407       -0.31156606483806
H            3.61798499470322       -0.89073986379471        0.81634960026175
H            3.80263264848505        0.01663352880737       -0.68312637370271
H            3.61283025780094        0.88038818759012        0.84092647257264
21
 energy: -350.084486344341 gnorm: 0.005627756013 xtb: 6.7.1 (edcfbbe)
C           -3.17232850667900        0.00246359128110        0.84379444849784
C           -2.46355037027103       -0.00150539768675       -0.51575697145592
C           -0.96828254670729       -0.00118849059483       -0.35467492863265
C           -0.25995875978304       -1.19757564218335       -0.23831215073935
C            1.11287895229979       -1.19703538789727       -0.01990823874481
C            1.82223192589623        0.00008142979797        0.08927464856215
C            1.11197868335172        1.19666703621947       -0.02164589024598
C           -0.26069802304150        1.19595472933302       -0.24008825578947
C            3.31159271557454        0.00140873832232        0.28358681754543
H           -2.88904344466021        0.88796105386491        1.41949755780672
H           -2.89181656231787       -0.88147811781789        1.42323265499512
H           -4.25831144445311        0.00391584974992        0.72052774940329
H           -2.76960150732961        0.88056101236925       -1.08684834990013
H           -2.76984705102133       -0.88670057923447       -1.08184182691762
H           -0.79167576743761       -2.14143821768476       -0.31506834675640
H            1.64383615466113       -2.14050155481276        0.06319569977896
H            1.64241214553614        2.14057204773278        0.06003020143398
H           -0.79310593840511        2.13931947529028       -0.31825179315945
H            3.63821056684339       -0.89314341934910        0.81778323196793
H            3.82607573435548        0.01671470158003       -0.68298174352589
H            3.63324825803460        0.88263563390275        0.84252825941076
21
 energy: -350.084571511187 gnorm: 0.000766816698 xtb: 6.7.1 (edcfbbe)
C           -3.17854412653483        0.00243854559676        0.84438176991273
C           -2.46840141998946       -0.00148880956620       -0.51498080399839
C           -0.97156971876743       -0.00116697288743       -0.35353598023281
C           -0.25987581567432       -1.19877380786989       -0.23901333900441
C            1.11566238450629       -1.19825406767766       -0.02188049362697
C            1.82771188713122        0.00010380127805        0.08787812401551
C            1.11476334519923        1.19794009592119       -0.02364733393027
C           -0.26059924692104        1.19720460978915       -0.24079652072682
C            3.31801204204386        0.00136775453201        0.28401132044664
H           -2.89922052221853        0.88902655442654        1.42405563394108
H           -2.90155911444715       -0.88233911527802        1.42792251664062
H           -4.26625719897311        0.00363055366549        0.72023281491044
H           -2.77626895945007        0.87999608655937       -1.08842810005381
H           -2.77647784295473       -0.88607802799764       -1.08349393650167
H           -0.79171061470437       -2.14420582213653       -0.31802113390638
H            1.64665428327725       -2.14324068631151        0.06387361489091
H            1.64518717545587        2.14339453267890        0.06067020402149
H           -0.79311022956656        2.14213553401534       -0.32126155106797
H            3.64848456673558       -0.89367799640916        0.81853548061482
H            3.83767821491620        0.01667468138178       -0.68178941726781
H            3.64368600623021        0.88300122837637        0.84335995268603
21
 energy: -350.084577890895 gnorm: 0.000479329347 xtb: 6.7.1 (edcfbbe)
C           -3.18323837951788        0.00240041253562        0.84420920946802
C           -2.46878608937929       -0.00145457315901       -0.51253330312155
C           -0.97129956568130       -0.00112391948675       -0.35182311551662
C           -0.25858375630235       -1.19842642005090       -0.23837870852030
C            1.11709441768335       -1.19798337244236       -0.02227465352030
C            1.83000948239381        0.00012714199138        0.08710045500043
C            1.11621868569344        1.19773255449765       -0.02407087063469
C           -0.25928041205281        1.19693625488775       -0.24019001548582
C            3.32021265506183        0.00132217180867        0.28335855839369
H           -2.90683554032918        0.88906421505964        1.42500878219890
H           -2.90873404661066       -0.88222016215451        1.42899880028519
H           -4.27066402621509        0.00330647881855        0.71662296637527
H           -2.77669002501372        0.87976813051142       -1.08651377550403
H           -2.77687179891004       -0.88576058141423       -1.08163393060266
H           -0.78980277816594       -2.14412300519137       -0.31748769692968
H            1.64783718988274       -2.14321636163127        0.06134284068905
H            1.64638986509148        2.14343361162330        0.05808199513641
H           -0.79116419491733        2.14213593390511       -0.32077355733174
H            3.65101069798301       -0.89358924566010        0.81803755825829
H            3.84110336373946        0.01661747123636       -0.68192520855852
H            3.64631934012279        0.88274202489803        0.84291646999156
21
 energy: -350.084581269436 gnorm: 0.000375478612 xtb: 6.7.1 (edcfbbe)
C           -3.18715817143343        0.00234510370545        0.84381661489632
C           -2.46840746629659       -0.00140394972050       -0.51050311330953
C           -0.97096121556944       -0.00105690281334       -0.34762953989180
C           -0.25759294370418       -1.19810075043395       -0.23605709551223
C            1.11833214154704       -1.19764149002334       -0.02290439508384
C            1.83159537491449        0.00014685524490        0.08596834841865
C            1.11750860965314        1.19745820543646       -0.02474712968588
C           -0.25824304480990        1.19672121562463       -0.23791136753982
C            3.32166825392636        0.00126593084481        0.28168479995838
H           -2.91457359564205        0.88919512443057        1.42585740359455
H           -2.91587181236869       -0.88215920156033        1.43000221503374
H           -4.27383476286778        0.00285468751014        0.71039560953038
H           -2.77469203030056        0.87978708668586       -1.08530840092594
H           -2.77482981596284       -0.88564152607269       -1.08051931242125
H           -0.78809650468756       -2.14403611939785       -0.31511483391858
H            1.64876369157788       -2.14301741253314        0.05924590319084
H            1.64739088505741        2.14329054552163        0.05589562185011
H           -0.78938149121826        2.14217446921379       -0.31848359757678
H            3.65226833442591       -0.89354945384989        0.81640957503345
H            3.84266889688782        0.01656582208943       -0.68339358408413
H            3.64769186272966        0.88249056149178        0.84136900081966
21
 energy: -350.084581269436 gnorm: 0.000375478612 xtb: 6.7.1 (edcfbbe)
C           -3.18715817143343        0.00234510370545        0.84381661489632
C           -2.46840746629659       -0.00140394972050       -0.51050311330953
C           -0.97096121556944       -0.00105690281334       -0.34762953989180
C           -0.25759294370418       -1.19810075043395       -0.23605709551223
C            1.11833214154704       -1.19764149002334       -0.02290439508384
C            1.83159537491449        0.00014685524490        0.08596834841865
C            1.11750860965314        1.19745820543646       -0.02474712968588
C           -0.25824304480990        1.19672121562463       -0.23791136753982
C            3.32166825392636        0.00126593084481        0.28168479995838
H           -2.91457359564205        0.88919512443057        1.42585740359455
H           -2.91587181236869       -0.88215920156033        1.43000221503374
H           -4.27383476286778        0.00285468751014        0.71039560953038
H           -2.77469203030056        0.87978708668586       -1.08530840092594
H           -2.77482981596284       -0.88564152607269       -1.08051931242125
H           -0.78809650468756       -2.14403611939785       -0.31511483391858
H            1.64876369157788       -2.14301741253314        0.05924590319084
H            1.64739088505741        2.14329054552163        0.05589562185011
H           -0.78938149121826        2.14217446921379       -0.31848359757678
H            3.65226833442591       -0.89354945384989        0.81640957503345
H            3.84266889688782        0.01656582208943       -0.68339358408413
H            3.64769186272966        0.88249056149178        0.84136900081966
