24
 energy: -43.383920932418 gnorm: 0.058417900214 xtb: 6.7.1 (edcfbbe)
C           -2.57208644792042       -0.64533944390655       -0.29775475453361
C           -1.19884494324397       -0.27238195178457        0.22251987125093
H           -1.21320538629625       -0.23471545526170        1.32396847011486
C           -0.70684869811066        1.06575396997897       -0.32708350433944
H           -0.72424321871152        1.02770902034398       -1.42913400386088
C            0.72466707146882        1.30626734173022        0.14478459110235
H            0.71675006091703        1.43141546269254        1.23530153557554
C            1.63044616743659        0.12807577054687       -0.20713492322000
H            1.71017081697762        0.03682573147496       -1.30295080669728
C            1.01709806640976       -1.15709014903290        0.33156625649519
H            0.95211749501002       -1.12719194847431        1.43172171726126
O           -0.29883487365469       -1.30603046255504       -0.21516495511244
O            1.78722440818836       -2.24446811102991       -0.10415867183442
O            2.92289077989640        0.28115122591002        0.38145437722503
O            1.24942835504460        2.53419270655546       -0.37613456899236
O           -1.57885713570040        2.09322594874442        0.15085429415664
O           -3.05343714054024       -1.86215695648450        0.28471367367692
H           -2.53543473534047       -0.72422579803621       -1.39404910848193
H           -3.28659589113466        0.13546926860991       -0.02757257409290
H            1.57390755137017       -3.00686406494852        0.45071222840519
H            3.24360220301026        1.15926321199592        0.13257638001297
H            1.26003188029541        2.46308732761898       -1.34253914854503
H           -1.18150120151311        2.93851768724372       -0.10212816817007
H           -2.44080564109248       -2.56344606404418        0.02648275480013
24
 energy: -43.386688503241 gnorm: 0.029834716175 xtb: 6.7.1 (edcfbbe)
C           -2.57477164853442       -0.64485419955630       -0.30142068858272
C           -1.19082213167022       -0.28197370553212        0.22039620467357
H           -1.21106957062853       -0.23721699566614        1.31908260699180
C           -0.70764232866051        1.06451591331388       -0.32430799466135
H           -0.73206491984480        1.02445806497547       -1.42462852514810
C            0.72709669942111        1.31562135138994        0.14694777056645
H            0.72601473558965        1.45603872434017        1.23431387190280
C            1.63368711874456        0.13191688237197       -0.20189552363719
H            1.72494297629494        0.02791817502494       -1.29389434580643
C            1.01726263467043       -1.16174363953861        0.32664226298765
H            0.96706590264350       -1.11668088959490        1.42643379537961
O           -0.29909332897195       -1.31984536745744       -0.19260707996529
O            1.77866194654437       -2.23954219613147       -0.10686090043507
O            2.91261162348710        0.28492869021759        0.38361487449246
O            1.24285098893967        2.52830223644541       -0.38255637964636
O           -1.57904398616913        2.07977453429787        0.14075532971310
O           -3.05705794123704       -1.84459012974675        0.27589339749639
H           -2.53652464135377       -0.73851784130132       -1.39327684115357
H           -3.28327023004866        0.13814074037122       -0.02679583482644
H            1.56568944334640       -3.01872624138129        0.42749044486467
H            3.24100048572322        1.16570768083115        0.14563132240065
H            1.26093559660956        2.46047166270503       -1.34920275409397
H           -1.18377154608681        2.93538066522118       -0.08848393967504
H           -2.44504833604252       -2.55243984771191        0.02957988835902
24
 energy: -43.387825518233 gnorm: 0.005927420683 xtb: 6.7.1 (edcfbbe)
C           -2.57502735688687       -0.65053529318475       -0.30379156482753
C           -1.18340007280077       -0.28877678889945        0.22421677327209
H           -1.21623507951296       -0.23323745053314        1.32220634125188
C           -0.71065788722631        1.06299912305050       -0.32562887735182
H           -0.73346988814935        1.01559908144371       -1.42615604474024
C            0.72968503579917        1.32549351921042        0.13701151844910
H            0.73328632834651        1.47691916420539        1.22214459304380
C            1.63967116783164        0.13547413870569       -0.19838125587713
H            1.73931907335111        0.02589064786196       -1.28936207595648
C            1.01687573779911       -1.16429800455540        0.32894358863118
H            0.98462593008427       -1.10598624460667        1.43239558699430
O           -0.29865135289576       -1.32542176346543       -0.16614991122746
O            1.77019185117710       -2.22652931300877       -0.11218526797929
O            2.90096948925100        0.28408764559074        0.39461664002826
O            1.23656427244615        2.52301663291845       -0.39924875400460
O           -1.58421089809488        2.06101756018644        0.13100094538589
O           -3.06534923393478       -1.83227947929419        0.26810632434161
H           -2.52705990225333       -0.74458875459603       -1.39385733832179
H           -3.27112693881805        0.14245538886481       -0.03006840222788
H            1.54848994884270       -3.03424298599551        0.38104430963582
H            3.24055133888688        1.16824015369442        0.17623516155595
H            1.26558224230092        2.46168693943511       -1.36641635985098
H           -1.19008052742521        2.92964591215200       -0.06109969894386
H           -2.45290373535211       -2.54958556129272        0.04527473091582
24
 energy: -43.388000159461 gnorm: 0.006086209405 xtb: 6.7.1 (edcfbbe)
C           -2.57388678368484       -0.65258570156366       -0.30370744952620
C           -1.18190465280763       -0.28997492143528        0.22824668389727
H           -1.21994129559057       -0.22635892233557        1.32657656070934
C           -0.71202028404014        1.06087018869075       -0.32702348524048
H           -0.73259306556261        1.00694230358873       -1.42850793599325
C            0.72959136416435        1.32845899950199        0.13173939712221
H            0.73312917332025        1.48340314310052        1.21694576806834
C            1.64224411461224        0.13719367063552       -0.19618823100216
H            1.74470105677154        0.02724865415269       -1.28771763400971
C            1.01929610456786       -1.16484948450807        0.33061551450158
H            0.99413934577788       -1.10603830533051        1.43595523646051
O           -0.29813841037440       -1.32660224723129       -0.15631390108761
O            1.77224752526429       -2.22228227738088       -0.11799921782879
O            2.89859354778769        0.28504691212022        0.40549515785594
O            1.23305694544324        2.52340803391104       -0.41093621999668
O           -1.58750649032657        2.05616494426384        0.12789060218860
O           -3.07163982884366       -1.82969605475868        0.26890130382643
H           -2.51892241958441       -0.74467020117013       -1.39462805283826
H           -3.26587020300936        0.14676997974208       -0.03658449273122
H            1.53809955322379       -3.04153737507687        0.35135233894357
H            3.24065063354040        1.17033725302304        0.19623331142882
H            1.26562539241642        2.46008168309366       -1.37794016731344
H           -1.19148605535631        2.92679525714949       -0.04916581419552
H           -2.45982572494326       -2.55108126429503        0.05761168895737
24
 energy: -43.388166540526 gnorm: 0.006585396867 xtb: 6.7.1 (edcfbbe)
C           -2.57132330045091       -0.65481647180128       -0.30267976258227
C           -1.18044729895029       -0.29131809387269        0.23501311111642
H           -1.22435239126521       -0.21637815468768        1.33348050690050
C           -0.71333124720750        1.05631569614665       -0.32988145138686
H           -0.73185037209095        0.99321228288822       -1.43241948775451
C            0.72829354852068        1.33171477560427        0.12485182808355
H            0.73083514948361        1.49372599959249        1.20985007887293
C            1.64579035793506        0.14050166404972       -0.19152538655901
H            1.75683831177694        0.03079213450905       -1.28323892451712
C            1.02430990783670       -1.16456268204833        0.33332387528511
H            1.01028371012984       -1.11120852349425        1.44096195965726
O           -0.29697812155421       -1.32878832605393       -0.14217629032024
O            1.77807043116711       -2.21564582048683       -0.12913044077128
O            2.89568534093213        0.28921477756039        0.42531881933104
O            1.22678349857808        2.52473362637435       -0.42871671260497
O           -1.59170703397552        2.05144276998388        0.12045584642086
O           -3.08191080895055       -1.82496301852177        0.27355462451892
H           -2.50665764495840       -0.74929127439138       -1.39448580116231
H           -3.25935476292778        0.15318109688573       -0.04878952289575
H            1.51627783978337       -3.05067334360431        0.29847851576695
H            3.23925885703808        1.17584093026250        0.22811897282494
H            1.26406177731003        2.45425750399304       -1.39509860347176
H           -1.18878520288370        2.92209388067497       -0.03369442549338
H           -2.47215100251045       -2.55233716167524        0.07927963293765
24
 energy: -43.388258055805 gnorm: 0.005600762628 xtb: 6.7.1 (edcfbbe)
C           -2.56939340967630       -0.65624157951830       -0.30152034514725
C           -1.17985262762916       -0.29195694828582        0.23824619381863
H           -1.22557477186418       -0.21169311134250        1.33626993502672
C           -0.71339119551174        1.05300222973838       -0.33273108573224
H           -0.73137867156112        0.98488227369517       -1.43523604983004
C            0.72666982637984        1.33315881701285        0.12156958815468
H            0.72774279559716        1.50106117304000        1.20583158919947
C            1.64777158033926        0.14328122463423       -0.18700861299638
H            1.76857958285240        0.03398908426606       -1.27782380366355
C            1.02788724824024       -1.16387907977741        0.33395670928470
H            1.02148043315294       -1.11773904994184        1.44238832835840
O           -0.29580675138468       -1.33053932989710       -0.13464256048134
O            1.78190891904424       -2.21158658533278       -0.13847047540879
O            2.89332370228729        0.29394523007962        0.44060066890960
O            1.22219759543725        2.52564797354235       -0.43841624397788
O           -1.59358723914917        2.05033298310845        0.11189068966290
O           -3.08806007223821       -1.82042035632305        0.28077917663214
H           -2.50023473016771       -0.75827968835985       -1.39287947775802
H           -3.25592556118784        0.15634704122182       -0.05755765960160
H            1.49705610621197       -3.05354263975346        0.25911780510580
H            3.23647413348380        1.18142408173179        0.24947228745239
H            1.26255611436359        2.44854492803022       -1.40418865358671
H           -1.18206872425192        2.91919018941941       -0.02567522225175
H           -2.48073474000178       -2.55188459310067        0.09687818102677
24
 energy: -43.388356309567 gnorm: 0.003436032359 xtb: 6.7.1 (edcfbbe)
C           -2.56735685163549       -0.65831914419375       -0.29978464517924
C           -1.17941954934008       -0.29231597554903        0.23959215747762
H           -1.22469748396302       -0.20897976518112        1.33674147248060
C           -0.71262954552822        1.04952238708960       -0.33737956257927
H           -0.72993217763071        0.97658348341281       -1.43908879198353
C            0.72411311592972        1.33414358874701        0.11968297584597
H            0.72229108434300        1.50865997122534        1.20263867085011
C            1.64962680609346        0.14695376869352       -0.18045791548608
H            1.78487379503427        0.03864459986435       -1.26924092658019
C            1.03156194898577       -1.16284210930763        0.33304610724746
H            1.03287686547362       -1.12763760047859        1.44155559584979
O           -0.29369536625571       -1.33214616758003       -0.12971205250642
O            1.78530216883773       -2.20749019817667       -0.15085750545012
O            2.88976505706912        0.30100510193848        0.45965724192424
O            1.21721577372790        2.52651360094242       -0.44520260143058
O           -1.59452476622785        2.05141412517653        0.09764371168112
O           -3.09340491070714       -1.81365326172402        0.29487716420612
H           -2.49572604631763       -0.77575933824487       -1.38928346701974
H           -3.25282822879464        0.15850884158436       -0.06789613975514
H            1.47118249478739       -3.05322777146725        0.21130856263956
H            3.23138629916783        1.18943445804505        0.27234763894071
H            1.26098251173071        2.44177635884127       -1.41017433446082
H           -1.16921336141481        2.91641154240417       -0.02021041359018
H           -2.49011009059907       -2.55015622817436        0.12104801907467
24
 energy: -43.388407555250 gnorm: 0.002722677164 xtb: 6.7.1 (edcfbbe)
C           -2.56636799141599       -0.66076991970688       -0.29798053716944
C           -1.17877476457788       -0.29225030641117        0.23828231212755
H           -1.22194268332085       -0.20855765745768        1.33492147688910
C           -0.71160192851844        1.04782341242959       -0.34209839324182
H           -0.72685041177446        0.97110238854917       -1.44297521312564
C            0.72213371736858        1.33486812803661        0.11995824667406
H            0.71655496128192        1.51226458489699        1.20206369203189
C            1.65112304586249        0.14987419431247       -0.17468219463546
H            1.79716122588020        0.04295620124727       -1.26166127263025
C            1.03342470092408       -1.16236686341276        0.33112788559594
H            1.03800863685293       -1.13576711602072        1.43933234601790
O           -0.29131772668326       -1.33221742141025       -0.13022930432246
O            1.78679953751222       -2.20466448010690       -0.16054518493230
O            2.88655841323805        0.30670719498699        0.47424479167471
O            1.21477307012035        2.52729445268706       -0.44510407705817
O           -1.59451737964087        2.05342524181034        0.08382352604099
O           -3.09560423807170       -1.80755974952692        0.31071422226243
H           -2.49491714132113       -0.79364939454769       -1.38514648712850
H           -3.25076952603583        0.15922217460467       -0.07546823312965
H            1.45034860671070       -3.05237255553687        0.17424875279464
H            3.22732693209237        1.19558842007861        0.28661171190371
H            1.26120263072366        2.43962766106558       -1.40961757381829
H           -1.15902776369234        2.91490130250474       -0.02175976013499
H           -2.49608438074866       -2.54843562518469        0.14279022951070
24
 energy: -43.388436841287 gnorm: 0.001896598979 xtb: 6.7.1 (edcfbbe)
C           -2.56631089573240       -0.66300570876629       -0.29613301487934
C           -1.17804265003208       -0.29195367160902        0.23577341583628
H           -1.21839011667013       -0.20906557999580        1.33238752093190
C           -0.71067038092484        1.04732415977209       -0.34627681433509
H           -0.72233306275448        0.96755485920789       -1.44667224172507
C            0.72089933375433        1.33520962113136        0.12141811029471
H            0.71110933076815        1.51171890619312        1.20345280974015
C            1.65241735548937        0.15170971101288       -0.17085131969413
H            1.80443992953566        0.04677119992878       -1.25682999857020
C            1.03394790842043       -1.16254044151155        0.32849565845146
H            1.03859533129133       -1.14137280116769        1.43657274436069
O           -0.28949416633265       -1.33132725054052       -0.13432319212185
O            1.78724830050303       -2.20330882137513       -0.16719294796182
O            2.88427569155394        0.31007948182369        0.48391318266920
O            1.21448707349659        2.52832079599010       -0.44033644036959
O           -1.59448635621070        2.05505933052854        0.07260572892305
O           -3.09637979921479       -1.80252803672586        0.32563943488317
H           -2.49621834682391       -0.80847130042848       -1.38121300903990
H           -3.24943246289495        0.15974764742841       -0.08084583022095
H            1.43828234918563       -3.05083557216615        0.15039322985726
H            3.22545616876992        1.19868008636345        0.29365314939936
H            1.26294633022609        2.44195190617769       -1.40478950644251
H           -1.15417194415473        2.91436225234490       -0.02797549998334
H           -2.50053537848268       -2.54703650572885        0.15998579219320
24
 energy: -43.388461442923 gnorm: 0.003394039098 xtb: 6.7.1 (edcfbbe)
C           -2.56621228580312       -0.66688790535249       -0.29271478448697
C           -1.17587163562818       -0.29193549441469        0.23170909181522
H           -1.21202396938851       -0.20908559848024        1.32860631682366
C           -0.70938710737604        1.04649142888083       -0.35324356302770
H           -0.71323282302433        0.96069926313928       -1.45330143013891
C            0.71917538119585        1.33656630138957        0.12385095441243
H            0.70205227930697        1.51026178879905        1.20634334816318
C            1.65517420642354        0.15487671791063       -0.16463027687298
H            1.81445699231221        0.05311214801765       -1.24978135842602
C            1.03516685479644       -1.16287715261776        0.32526603442849
H            1.03787021608350       -1.14904301796098        1.43372745722157
O           -0.28596586242507       -1.32960470374739       -0.14118295825440
O            1.79018647570676       -2.19969722118906       -0.17563687659436
O            2.88115683283137        0.31473491530283        0.49903440724603
O            1.21413317592780        2.53091974416723       -0.43201979062234
O           -1.59595169745619        2.05554130990357        0.05432626734599
O           -3.09843903967560       -1.79366387705391        0.35026468738794
H           -2.49780880213500       -0.83153436982030       -1.37471288465822
H           -3.24610131194530        0.16176106789526       -0.08991306864886
H            1.41863357382230       -3.05236982084730        0.10893889747136
H            3.22527125591085        1.20173270886716        0.30381055118071
H            1.26654048768250        2.44853097254290       -1.39665298973655
H           -1.15141386441338        2.91363498567095       -0.03933663860343
H           -2.50976978996324       -2.54511992311522        0.18809956877081
24
 energy: -43.388476549697 gnorm: 0.002218802186 xtb: 6.7.1 (edcfbbe)
C           -2.56704654716844       -0.66811685315397       -0.29052408899352
C           -1.17482272263697       -0.29199496041785        0.22847351020075
H           -1.20762660694738       -0.20983674765309        1.32575293205361
C           -0.70856027103100        1.04635531063526       -0.35686274669326
H           -0.70678136428427        0.95826449461497       -1.45695243518883
C            0.71848609651605        1.33642245696772        0.12636081243525
H            0.69687080806907        1.50517154768123        1.20973092589428
C            1.65599986101271        0.15561118849816       -0.16353905171302
H            1.81592681955874        0.05715303017701       -1.24897888503460
C            1.03492061938993       -1.16382793800808        0.32163025403309
H            1.03468474788141       -1.15195440702151        1.43046861647143
O           -0.28527362544474       -1.32878281664009       -0.14804834908417
O            1.79114781350406       -2.19957683193663       -0.17941374385525
O            2.88013362344089        0.31440574795330        0.50316355163834
O            1.21527562159554        2.53298750448093       -0.42271136965624
O           -1.59705475806832        2.05512294998528        0.04582143585367
O           -3.09981984153541       -1.78856555739016        0.36340382980974
H           -2.50097520031027       -0.84132026520824       -1.37111666748824
H           -3.24465309288090        0.16368538841752       -0.09316580917046
H            1.42049485115992       -3.05000902253659        0.09986165183548
H            3.22723300251687        1.19992546541573        0.30526579882212
H            1.26988979215578        2.45584654190600       -1.38772752792936
H           -1.15482936392706        2.91381271087229       -0.05058444058179
H           -2.51598071980010       -2.54373466975164        0.20054275853761
24
 energy: -43.388483715096 gnorm: 0.001303141456 xtb: 6.7.1 (edcfbbe)
C           -2.56692987464767       -0.66821097054888       -0.28954791476344
C           -1.17406971860673       -0.29261156089090        0.22810999778818
H           -1.20623562534240       -0.20950215789619        1.32537949433730
C           -0.70821954322668        1.04546750789994       -0.35807693331722
H           -0.70455083472380        0.95615763129790       -1.45818593257458
C            0.71803984350275        1.33665588237371        0.12676336444986
H            0.69519437421793        1.50473701562556        1.21025676628391
C            1.65637602057675        0.15631613053140       -0.16292094942528
H            1.81721857763444        0.05913179301350       -1.24856478902074
C            1.03567147869632       -1.16392531389689        0.32073865518296
H            1.03506748435977       -1.15316696369821        1.42984360311461
O           -0.28493045958667       -1.32924139240476       -0.14879493069909
O            1.79308509811433       -2.19842833042246       -0.18110848302960
O            2.87987948133638        0.31406584834059        0.50553626613098
O            1.21446970373926        2.53413166392988       -0.42116370090367
O           -1.59825474927361        2.05365367432011        0.04243317963315
O           -3.10186794189387       -1.78578849764442        0.36727801905110
H           -2.50118013217687       -0.84384678824020       -1.36987757615006
H           -3.24301564318844        0.16542105899976       -0.09462368444266
H            1.42029910782324       -3.05061770449373        0.09237542341039
H            3.22871184896619        1.19897424078460        0.30913703673257
H            1.27068444038856        2.45750889197824       -1.38615843022954
H           -1.15742102319995        2.91321567396716       -0.05422588294089
H           -2.52038237072314       -2.54305306503811        0.20624836357839
24
 energy: -43.388489137699 gnorm: 0.000828547675 xtb: 6.7.1 (edcfbbe)
C           -2.56669804491333       -0.66786439077782       -0.28782392276350
C           -1.17238471791247       -0.29440896426362        0.22737461547942
H           -1.20315155772009       -0.20997626414826        1.32462383877461
C           -0.70730048079818        1.04345402292260       -0.35982473130257
H           -0.70013483934565        0.95213910094417       -1.45987642206826
C            0.71721488418438        1.33706668861545        0.12827202373983
H            0.69237231398371        1.50393827050523        1.21191188292780
C            1.65672458719727        0.15780626001632       -0.16198836703635
H            1.81885902192689        0.06345016634010       -1.24796216781104
C            1.03730798839355       -1.16404938552329        0.31880731466443
H            1.03566269844455       -1.15532521189865        1.42819601406479
O           -0.28412652225580       -1.33052532871654       -0.15057613399152
O            1.79719757944678       -2.19583240939443       -0.18434742031726
O            2.87967188658502        0.31252482213326        0.50851306557418
O            1.21254599734605        2.53647657237452       -0.41753477370466
O           -1.60071086127152        2.04995515059059        0.03673152463298
O           -3.10686526557843       -1.77960450426965        0.37363143871319
H           -2.50191772252908       -0.84747070616862       -1.36782700141578
H           -3.23902537094640        0.16962576451383       -0.09673629001490
H            1.42287001574972       -3.05134948396144        0.08010925923948
H            3.23215712094728        1.19626132995849        0.31635544537046
H            1.27252018812424        2.46035820537224       -1.38232541850648
H           -1.16472750736025        2.91172852213424       -0.06409505788369
H           -2.53042184893213       -2.54133395941115        0.21724224583145
24
 energy: -43.388490513188 gnorm: 0.000417920323 xtb: 6.7.1 (edcfbbe)
C           -2.56679779701652       -0.66796476818484       -0.28792981569328
C           -1.17244025087768       -0.29451083143944        0.22702676032830
H           -1.20285841116232       -0.21084729883494        1.32432740499034
C           -0.70723938043136        1.04353371208585       -0.35978640164668
H           -0.69991547951348        0.95234239672055       -1.45975650909231
C            0.71716230564688        1.33695494731673        0.12868166134011
H            0.69206038953233        1.50381510878711        1.21226792442824
C            1.65678067481472        0.15792753637068       -0.16175628444335
H            1.81923319867613        0.06380362320521       -1.24758253768938
C            1.03726978730942       -1.16413697278807        0.31826240641942
H            1.03566972782473       -1.15594305882611        1.42750837805716
O           -0.28390613748223       -1.33045536632257       -0.15143720601832
O            1.79695410276013       -2.19583672580185       -0.18533815348595
O            2.87960790666455        0.31285829301752        0.50890256278709
O            1.21265786395683        2.53633968641333       -0.41687656808499
O           -1.60058249683158        2.05019426883113        0.03664178505961
O           -3.10720267793386       -1.77904558896192        0.37467859969852
H           -2.50219099062143       -0.84873941900069       -1.36776347172558
H           -3.23885419946467        0.16986569114037       -0.09719063288973
H            1.42294207482851       -3.05068259674933        0.07970778362367
H            3.23163759893121        1.19684407366575        0.31659571159531
H            1.27313863018793        2.45999332188389       -1.38158878556985
H           -1.16454087980459        2.91177593328133       -0.06570528904624
H           -2.53094601722755       -2.54104169792210        0.21896163925450
24
 energy: -43.388491781819 gnorm: 0.000399469203 xtb: 6.7.1 (edcfbbe)
C           -2.56679974148682       -0.66803219335642       -0.28799719482087
C           -1.17241765717987       -0.29483223756453        0.22687698963851
H           -1.20253540531771       -0.21204743227709        1.32421886155526
C           -0.70719265780760        1.04343188000208       -0.35955087682720
H           -0.69999732214584        0.95236723133975       -1.45942454592045
C            0.71706801647795        1.33696039415227        0.12910061109158
H            0.69175977024240        1.50427365498549        1.21253218377581
C            1.65688317739727        0.15825048623091       -0.16119405529143
H            1.82037651563121        0.06465183847818       -1.24680019128774
C            1.03752639315832       -1.16437067308419        0.31742376699094
H            1.03652336361712       -1.15752935029113        1.42652579331903
O           -0.28349784868686       -1.33050321717454       -0.15216687757753
O            1.79691009361652       -2.19554130256573       -0.18780596840869
O            2.87931340425540        0.31338271087484        0.51023438522380
O            1.21248146687299        2.53621532351113       -0.41673705884709
O           -1.60037093109040        2.05022752113943        0.03700477572317
O           -3.10836491023066       -1.77766541770499        0.37606938619178
H           -2.50220146299477       -0.85068802538782       -1.36745424910106
H           -3.23828998107862        0.17050318722706       -0.09836668038635
H            1.42288092265629       -3.05021154177323        0.07716790617168
H            3.23041367820157        1.19803722220683        0.31887296159787
H            1.27449023138031        2.45875474949097       -1.38122608830616
H           -1.16492179975735        2.91165152478111       -0.06904766603168
H           -2.53239777296472       -2.54024206535282        0.22259479372345
24
 energy: -43.388492598490 gnorm: 0.000363671247 xtb: 6.7.1 (edcfbbe)
C           -2.56673869490203       -0.66815642952255       -0.28798242518138
C           -1.17233434958109       -0.29504479416346        0.22685054161403
H           -1.20230777734407       -0.21252912385986        1.32421520622458
C           -0.70729134235068        1.04334532685572       -0.35939127546850
H           -0.70012263242883        0.95235767913123       -1.45925066808089
C            0.71696557809595        1.33697197524778        0.12931590281270
H            0.69136260198807        1.50459900882545        1.21267788693257
C            1.65713137328502        0.15853866571040       -0.16068127697066
H            1.82178630829164        0.06564725432364       -1.24616893321566