 Entering Gaussian System
 *********************************************
 Gaussian 98:
 frequency output generated by the xtb code
 *********************************************
                         Standard orientation:
 --------------------------------------------------------------------
  Center     Atomic     Atomic              Coordinates (Angstroms)
  Number     Number      Type              X           Y           Z
 --------------------------------------------------------------------
    1          6             0        2.497686    0.057581   -0.057792
    2          6             0        0.999155    0.082071   -0.022526
    3          6             0        0.302762    1.209640    0.004443
    4          6             0       -1.194340    1.280012    0.029850
    5          6             0       -1.825146   -0.056023   -0.352223
    6          6             0       -1.127870   -1.183396    0.400195
    7          6             0        0.331770   -1.266663   -0.036956
    8          1             0        2.888194   -0.426787    0.836801
    9          1             0        2.904224    1.063916   -0.114621
   10          1             0        2.843954   -0.511205   -0.919936
   11          1             0        0.816435    2.162453    0.023834
   12          1             0       -1.516973    1.566855    1.036936
   13          1             0       -1.533279    2.066066   -0.649911
   14          1             0       -2.892238   -0.044846   -0.122882
   15          1             0       -1.711442   -0.218313   -1.426123
   16          1             0       -1.175987   -0.981850    1.472401
   17          1             0       -1.627969   -2.135204    0.211728
   18          1             0        0.880935   -1.950175    0.615208
   19          1             0        0.388609   -1.674632   -1.051703
 --------------------------------------------------------------------
     1 basis functions        1 primitive gaussians
     1 alpha electrons        1 beta electrons
 
 Harmonic frequencies (cm**-1), IR intensities (km*mol⁻¹),
 Raman scattering activities (A**4/amu), Raman depolarization ratios,
 reduced masses (AMU), force constants (mDyne/A) and normal coordinates:
                      1                      2                      3
                        a                      a                      a 
 Frequencies --   113.3128               137.6874               238.1261
 Red. masses --     7.2116                 1.4347                 7.3076
 Frc consts  --     0.0000                 0.0000                 0.0000
 IR Inten    --     0.1765                 0.8107                 1.3600
 Raman Activ --     0.0000                 0.0000                 0.0000
 Depolar     --     0.0000                 0.0000                 0.0000
 Atom AN      X      Y      Z        X      Y      Z        X      Y      Z
   1   6    -0.03   0.02  -0.36     0.00   0.01  -0.04    -0.04  -0.03  -0.24
   2   6    -0.02   0.01   0.11     0.01  -0.01   0.07    -0.03  -0.02   0.12
   3   6    -0.01   0.02   0.08     0.00  -0.02   0.03    -0.04  -0.04   0.57
   4   6    -0.01  -0.03   0.21    -0.00   0.01  -0.14    -0.06   0.01  -0.20
   5   6     0.15   0.05  -0.30    -0.00  -0.03  -0.01     0.12  -0.08  -0.18
   6   6    -0.15  -0.03  -0.14     0.01   0.04   0.09     0.07   0.14   0.19
   7   6     0.04  -0.02   0.46    -0.01  -0.01   0.04    -0.04  -0.01  -0.11
   8   1     0.08  -0.01  -0.15     0.02  -0.49  -0.29     0.08   0.08  -0.06
   9   1    -0.02   0.01  -0.13     0.01   0.03   0.52    -0.01  -0.01  -0.21
  10   1    -0.09   0.02  -0.15    -0.02   0.48  -0.34    -0.10  -0.09  -0.05
  11   1     0.00   0.01  -0.05    -0.00  -0.00   0.02    -0.01  -0.01   0.28
  12   1    -0.01  -0.13   0.10    -0.03   0.05  -0.06    -0.19   0.11  -0.14
  13   1    -0.02   0.06   0.15     0.03  -0.02  -0.08     0.12  -0.05  -0.19
  14   1     0.01  -0.00  -0.22    -0.00  -0.00   0.00     0.02  -0.03  -0.14
  15   1     0.19   0.07  -0.08    -0.00  -0.04   0.00     0.13  -0.08  -0.03
  16   1    -0.17  -0.04  -0.04     0.02   0.04   0.02     0.09   0.17   0.03
  17   1    -0.02  -0.00  -0.12    -0.00   0.01   0.06    -0.00   0.03   0.19
  18   1    -0.04   0.09   0.28    -0.01  -0.01   0.00     0.01  -0.05  -0.10
  19   1     0.14  -0.13   0.19    -0.02   0.00   0.01    -0.09   0.06  -0.06
                      4                      5                      6
                        a                      a                      a 
 Frequencies --   298.3325               330.0149               408.8005
 Red. masses --     6.1862                 8.2945                 8.5162
 Frc consts  --     0.0000                 0.0000                 0.0000
 IR Inten    --     1.0105                 0.6350                 0.2546
 Raman Activ --     0.0000                 0.0000                 0.0000
 Depolar     --     0.0000                 0.0000                 0.0000
 Atom AN      X      Y      Z        X      Y      Z        X      Y      Z
   1   6    -0.08  -0.09   0.14    -0.04  -0.50  -0.02     0.28   0.06  -0.05
   2   6    -0.07   0.02  -0.25    -0.01   0.34   0.12     0.25   0.02   0.46
   3   6    -0.07   0.03  -0.16    -0.06   0.32  -0.02     0.08  -0.07  -0.17
   4   6    -0.07  -0.09   0.26    -0.12  -0.03  -0.04     0.03  -0.27   0.02
   5   6     0.23  -0.06  -0.24     0.02  -0.15   0.03    -0.25  -0.09  -0.14
   6   6     0.09   0.20   0.26     0.11  -0.11  -0.03    -0.18   0.12   0.05
   7   6    -0.07   0.01  -0.13     0.10   0.31   0.02    -0.16   0.20  -0.04
   8   1    -0.13  -0.07   0.06    -0.09  -0.24  -0.03     0.21   0.04  -0.06
   9   1     0.01  -0.04   0.12     0.21  -0.23  -0.02     0.05   0.03  -0.09
  10   1     0.05  -0.01   0.06    -0.17  -0.22  -0.02    -0.03   0.01  -0.05
  11   1    -0.02   0.01  -0.05    -0.06   0.12  -0.02    -0.04   0.01  -0.11
  12   1     0.05  -0.23   0.16    -0.05  -0.01  -0.02     0.07  -0.19   0.06
  13   1    -0.12   0.07   0.24    -0.08  -0.04  -0.02    -0.03   0.00   0.12
  14   1     0.02  -0.06  -0.27     0.01  -0.06   0.02    -0.07   0.02  -0.02
  15   1     0.28  -0.01  -0.05    -0.01  -0.04   0.01    -0.09  -0.05  -0.04
  16   1     0.11   0.24   0.04    -0.01  -0.09  -0.00    -0.05   0.10   0.00
  17   1    -0.01   0.04   0.26     0.10  -0.05  -0.07    -0.00  -0.01   0.08
  18   1     0.03  -0.00  -0.09     0.07   0.09  -0.02    -0.08  -0.12  -0.17
  19   1    -0.12   0.00  -0.04     0.06   0.13  -0.01    -0.12   0.26  -0.10
                      7                      8                      9
                        a                      a                      a 
 Frequencies --   430.6584               484.2085               625.0278
 Red. masses --     8.3360                 9.7112                 7.4879
 Frc consts  --     0.0000                 0.0000                 0.0000
 IR Inten    --     2.1340                 0.0871                 2.4384
 Raman Activ --     0.0000                 0.0000                 0.0000
 Depolar     --     0.0000                 0.0000                 0.0000
 Atom AN      X      Y      Z        X      Y      Z        X      Y      Z
   1   6    -0.27   0.10  -0.01    -0.11  -0.09   0.00     0.42  -0.04  -0.01
   2   6    -0.21  -0.03   0.35    -0.07  -0.13   0.39     0.20  -0.02  -0.08
   3   6     0.07   0.15  -0.22    -0.23  -0.19  -0.17    -0.26  -0.22  -0.05
   4   6     0.15   0.16  -0.03    -0.23   0.20   0.03    -0.36   0.24   0.09
   5   6     0.39  -0.01   0.10    -0.04   0.17  -0.03     0.06   0.10   0.12
   6   6    -0.03  -0.28   0.11     0.35   0.24  -0.17    -0.08  -0.05   0.10
   7   6    -0.12  -0.09  -0.08     0.30  -0.23  -0.03    -0.02   0.02   0.02
   8   1     0.03   0.05  -0.04     0.06  -0.03  -0.04     0.07  -0.02   0.01
   9   1    -0.12   0.05  -0.05    -0.02  -0.04  -0.06     0.14  -0.02   0.02
  10   1    -0.14   0.04  -0.04    -0.14  -0.04  -0.04     0.14  -0.02   0.01
  11   1     0.08   0.01  -0.14    -0.03  -0.07  -0.12    -0.09  -0.04  -0.12
  12   1     0.06   0.08  -0.01    -0.02   0.02   0.04    -0.13   0.22  -0.03
  13   1    -0.02  -0.01  -0.04    -0.06   0.09   0.05    -0.03  -0.01  -0.11
  14   1     0.08   0.02  -0.11     0.01  -0.07   0.08    -0.04  -0.08  -0.23
  15   1     0.23  -0.01   0.04    -0.08   0.10  -0.02     0.29   0.06   0.05
  16   1    -0.03  -0.18   0.05     0.18   0.16  -0.06    -0.10  -0.19   0.05
  17   1    -0.05  -0.04  -0.09     0.03   0.08   0.07    -0.01   0.02  -0.17
  18   1     0.03  -0.14  -0.21     0.02  -0.11   0.00     0.00  -0.08  -0.09
  19   1    -0.11   0.18  -0.11     0.15  -0.00  -0.03    -0.10   0.07  -0.03
                     10                     11                     12
                        a                      a                      a 
 Frequencies --   790.9449               817.8635               841.7706
 Red. masses --     5.1604                 5.6057                 5.4080
 Frc consts  --     0.0000                 0.0000                 0.0000
 IR Inten    --     6.8498                 2.2928                 2.3925
 Raman Activ --     0.0000                 0.0000                 0.0000
 Depolar     --     0.0000                 0.0000                 0.0000
 Atom AN      X      Y      Z        X      Y      Z        X      Y      Z
   1   6     0.26   0.01   0.05     0.18   0.02  -0.01    -0.13  -0.01   0.04
   2   6    -0.00   0.08   0.12    -0.02   0.11   0.04     0.03  -0.02   0.12
   3   6    -0.01   0.21  -0.23     0.13   0.31   0.16     0.01  -0.14  -0.19
   4   6    -0.11   0.16  -0.11    -0.05   0.09   0.16     0.12  -0.23   0.21
   5   6     0.01  -0.00   0.04    -0.08  -0.09  -0.03    -0.06  -0.03   0.20
   6   6    -0.13  -0.16   0.05    -0.14  -0.22  -0.12    -0.03   0.09  -0.14
   7   6    -0.06  -0.25  -0.17    -0.06  -0.29  -0.10    -0.07   0.27  -0.21
   8   1     0.19  -0.01  -0.05     0.00  -0.00   0.01     0.03   0.01  -0.01
   9   1     0.10  -0.01  -0.07     0.09  -0.01   0.02    -0.08   0.01  -0.02
  10   1    -0.06  -0.00  -0.04     0.08  -0.00   0.01    -0.07   0.01  -0.01
  11   1    -0.01   0.05   0.59     0.04   0.10  -0.50    -0.05  -0.02   0.09
  12   1     0.10  -0.07   0.05    -0.14   0.14  -0.03     0.04   0.29  -0.05
  13   1    -0.19   0.08   0.09     0.02  -0.08  -0.09     0.13  -0.24  -0.20
  14   1    -0.01   0.02  -0.03    -0.02  -0.01  -0.02    -0.08  -0.02  -0.24
  15   1     0.04  -0.04   0.02    -0.02   0.07  -0.02     0.29   0.11   0.07
  16   1     0.09   0.02   0.01     0.17   0.23  -0.07     0.16   0.07  -0.04
  17   1    -0.14  -0.01   0.12    -0.15  -0.07   0.31     0.03  -0.02   0.09
  18   1    -0.03   0.08   0.12    -0.07  -0.05   0.05    -0.13   0.22   0.19
  19   1     0.08  -0.25   0.04     0.13  -0.08  -0.02     0.22  -0.12   0.04
                     13                     14                     15
                        a                      a                      a 
 Frequencies --   920.6240               940.3672               950.6345
 Red. masses --     7.9663                 4.2943                 6.9694
 Frc consts  --     0.0000                 0.0000                 0.0000
 IR Inten    --     3.2410                 0.5635                 0.8935
 Raman Activ --     0.0000                 0.0000                 0.0000
 Depolar     --     0.0000                 0.0000                 0.0000
 Atom AN      X      Y      Z        X      Y      Z        X      Y      Z
   1   6    -0.15  -0.01  -0.02    -0.01  -0.04   0.07    -0.06   0.22  -0.00
   2   6     0.03  -0.05  -0.03    -0.00  -0.05   0.03     0.05   0.20  -0.01
   3   6     0.21   0.02  -0.06     0.06  -0.03   0.24    -0.17  -0.02   0.02
   4   6     0.03   0.25   0.06    -0.03   0.08  -0.27     0.19  -0.31  -0.06
   5   6    -0.54  -0.01  -0.16    -0.15   0.02   0.11    -0.09   0.23   0.06
   6   6    -0.01  -0.23   0.15     0.03   0.06   0.15    -0.16   0.06   0.12
   7   6     0.30   0.01   0.08    -0.00   0.08  -0.28     0.28  -0.30  -0.04
   8   1    -0.06   0.01   0.01     0.13   0.02  -0.03    -0.20  -0.11  -0.01
   9   1    -0.07   0.01   0.01    -0.08   0.02  -0.04     0.34  -0.09  -0.01
  10   1     0.00   0.01   0.01    -0.06   0.02  -0.03    -0.23  -0.11   0.02
  11   1     0.14  -0.04   0.13     0.05  -0.02  -0.36    -0.17   0.06  -0.03
  12   1     0.08   0.12   0.02     0.05  -0.26   0.04     0.05  -0.04  -0.03
  13   1     0.11   0.12   0.03    -0.06   0.20   0.17     0.11  -0.07  -0.03
  14   1    -0.20  -0.03  -0.29    -0.08   0.07  -0.18    -0.05   0.24  -0.13
  15   1     0.11   0.05  -0.03     0.16  -0.26   0.09     0.09   0.00   0.04
  16   1    -0.02  -0.01   0.03     0.16  -0.26   0.10    -0.02  -0.08   0.05
  17   1     0.16  -0.16   0.11    -0.00   0.05  -0.13    -0.16   0.10  -0.05
  18   1     0.20  -0.03  -0.11    -0.08   0.17   0.15     0.09  -0.12  -0.07
  19   1     0.01   0.11  -0.03     0.20  -0.17   0.02     0.03  -0.02  -0.04
                     16                     17                     18
                        a                      a                      a 
 Frequencies --   975.6273              1020.7027              1031.5833
 Red. masses --     7.9640                 3.7637                 4.8451
 Frc consts  --     0.0000                 0.0000                 0.0000
 IR Inten    --     2.1146                 5.5573                 6.8064
 Raman Activ --     0.0000                 0.0000                 0.0000
 Depolar     --     0.0000                 0.0000                 0.0000
 Atom AN      X      Y      Z        X      Y      Z        X      Y      Z
   1   6     0.02   0.05   0.02     0.00  -0.12  -0.38     0.04  -0.33   0.13
   2   6     0.03   0.03  -0.00    -0.01   0.00   0.24    -0.06   0.03  -0.10
   3   6    -0.32  -0.35   0.03    -0.04   0.03  -0.03    -0.09   0.11   0.01
   4   6     0.14   0.17  -0.06    -0.01  -0.05  -0.10    -0.02  -0.22   0.00
   5   6     0.18   0.10  -0.11     0.02   0.08   0.08     0.02   0.25  -0.02
   6   6    -0.13  -0.42   0.06    -0.06  -0.02  -0.01    -0.09  -0.06   0.08
   7   6    -0.02   0.31  -0.05     0.05   0.02   0.02     0.23  -0.03   0.01
   8   1    -0.02  -0.03  -0.01    -0.40   0.08   0.15     0.39   0.12  -0.03
   9   1     0.09  -0.02  -0.01    -0.13   0.04   0.20    -0.44   0.10  -0.05
  10   1    -0.08  -0.03  -0.00     0.55   0.01   0.11     0.11   0.14  -0.08
  11   1    -0.07  -0.10  -0.07    -0.06   0.03   0.13    -0.18   0.12  -0.04
  12   1     0.08  -0.04   0.02    -0.03  -0.11  -0.01    -0.06  -0.01  -0.03
  13   1     0.12   0.16   0.08    -0.03   0.03   0.03    -0.02  -0.11  -0.05
  14   1     0.08   0.21   0.11    -0.01   0.12  -0.04     0.01   0.22  -0.01
  15   1    -0.13   0.04  -0.05     0.05  -0.09   0.04    -0.03   0.11  -0.02
  16   1     0.10   0.13  -0.02     0.16  -0.03   0.01    -0.03   0.02   0.02
  17   1    -0.02  -0.16   0.28    -0.11   0.04   0.04    -0.12   0.04   0.03
  18   1     0.08   0.19   0.03    -0.07  -0.05   0.01     0.27   0.07  -0.09
  19   1     0.12   0.05   0.01     0.23   0.14  -0.04     0.02   0.04  -0.02
                     19                     20                     21
                        a                      a                      a 
 Frequencies --  1078.1669              1106.2445              1138.3853
 Red. masses --     5.7262                 6.7458                 3.2450
 Frc consts  --     0.0000                 0.0000                 0.0000
 IR Inten    --     0.5656                11.9286                 0.3951
 Raman Activ --     0.0000                 0.0000                 0.0000
 Depolar     --     0.0000                 0.0000                 0.0000
 Atom AN      X      Y      Z        X      Y      Z        X      Y      Z
   1   6    -0.05   0.00   0.06     0.14  -0.05  -0.03    -0.03  -0.04   0.12
   2   6     0.06  -0.00  -0.21    -0.15   0.10   0.04     0.06   0.09  -0.22
   3   6     0.01  -0.05   0.19    -0.22   0.10   0.05    -0.06   0.02  -0.14
   4   6    -0.02  -0.02  -0.30     0.22  -0.07  -0.09     0.08   0.08   0.15
   5   6     0.01  -0.01   0.29    -0.16   0.13  -0.05    -0.03  -0.08  -0.02
   6   6    -0.06  -0.03  -0.29     0.39  -0.10  -0.01     0.03  -0.00  -0.09
   7   6     0.01   0.04   0.27    -0.32  -0.13   0.09    -0.08  -0.03   0.21
   8   1     0.06  -0.01  -0.03     0.04   0.03   0.01     0.14  -0.00  -0.04
   9   1    -0.03   0.00  -0.05    -0.01   0.01   0.02    -0.08   0.01  -0.07
  10   1    -0.09   0.01  -0.02     0.11   0.02   0.00    -0.11   0.03  -0.04
  11   1    -0.01  -0.00   0.01    -0.30   0.15  -0.03    -0.10   0.05   0.12
  12   1     0.36  -0.04   0.06     0.22   0.05   0.01    -0.25  -0.05  -0.03
  13   1    -0.34  -0.03   0.06     0.18   0.09   0.04     0.39   0.18   0.03
  14   1    -0.04  -0.08  -0.11    -0.05   0.00  -0.09    -0.01  -0.03  -0.01
  15   1     0.20   0.14   0.07     0.06   0.17  -0.02    -0.00  -0.33   0.04
  16   1     0.12   0.17  -0.10     0.12  -0.09   0.01     0.32  -0.11   0.01
  17   1    -0.08  -0.02   0.15     0.30  -0.13  -0.00    -0.18   0.09  -0.01
  18   1    -0.10  -0.20  -0.07    -0.14  -0.07   0.04    -0.22  -0.22  -0.01
  19   1     0.06   0.27  -0.04    -0.21  -0.11   0.05     0.19   0.26  -0.05
                     22                     23                     24
                        a                      a                      a 
 Frequencies --  1139.3178              1175.8795              1182.1030
 Red. masses --     3.6479                 8.0448                 5.1800
 Frc consts  --     0.0000                 0.0000                 0.0000
 IR Inten    --     4.8913                25.7758                 5.4877
 Raman Activ --     0.0000                 0.0000                 0.0000
 Depolar     --     0.0000                 0.0000                 0.0000
 Atom AN      X      Y      Z        X      Y      Z        X      Y      Z
   1   6    -0.03  -0.08  -0.04    -0.26   0.03  -0.01     0.21   0.09  -0.01
   2   6     0.06   0.14   0.07     0.48   0.06   0.03    -0.40  -0.15   0.02
   3   6    -0.13  -0.04   0.05     0.28  -0.06  -0.03     0.06   0.02  -0.02
   4   6     0.18   0.13  -0.03    -0.26  -0.10  -0.11    -0.01  -0.18  -0.06
   5   6    -0.00  -0.26   0.03     0.03   0.27  -0.01    -0.09   0.14   0.02
   6   6    -0.16   0.11  -0.01     0.10  -0.22   0.07     0.13  -0.05  -0.06
   7   6     0.09  -0.06  -0.10    -0.14   0.01   0.00    -0.15   0.11   0.15
   8   1    -0.01   0.04   0.02    -0.13  -0.01   0.01     0.03  -0.02  -0.01
   9   1    -0.11   0.02   0.03    -0.11   0.02   0.01     0.21  -0.04   0.00
  10   1     0.08   0.02   0.00    -0.10  -0.02   0.01     0.03  -0.01   0.01
  11   1    -0.23   0.10  -0.05    -0.17   0.12  -0.00     0.22  -0.11   0.01
  12   1     0.32   0.12   0.06    -0.15  -0.12  -0.03    -0.06  -0.08  -0.03
  13   1     0.25   0.19   0.08     0.07   0.08   0.02     0.12   0.02   0.00
  14   1     0.01  -0.50   0.06     0.01  -0.24   0.05    -0.03  -0.25  -0.02
  15   1     0.03  -0.02   0.00    -0.01   0.28  -0.03     0.05   0.13  -0.00
  16   1    -0.20   0.09  -0.02     0.13  -0.05   0.02     0.23  -0.06   0.00
  17   1    -0.28   0.16  -0.05    -0.17   0.04   0.04    -0.30   0.17  -0.03
  18   1     0.17   0.11  -0.02    -0.01   0.04   0.03     0.38   0.25  -0.08
  19   1    -0.02  -0.07  -0.00    -0.13  -0.11   0.05    -0.00   0.11   0.00
                     25                     26                     27
                        a                      a                      a 
 Frequencies --  1227.6745              1248.9252              1303.1731
 Red. masses --     4.1662                 3.2827                 3.8247
 Frc consts  --     0.0000                 0.0000                 0.0000
 IR Inten    --     0.8105                 2.1352                12.5392
 Raman Activ --     0.0000                 0.0000                 0.0000
 Depolar     --     0.0000                 0.0000                 0.0000
 Atom AN      X      Y      Z        X      Y      Z        X      Y      Z
   1   6    -0.00  -0.01  -0.01    -0.07  -0.01  -0.03    -0.02  -0.11  -0.00
   2   6     0.02   0.01   0.07     0.19   0.06   0.07     0.07   0.30   0.02
   3   6    -0.02   0.01  -0.07    -0.02  -0.08   0.04    -0.28   0.04   0.00
   4   6     0.04   0.04  -0.08     0.02   0.12   0.14     0.08  -0.08  -0.04
   5   6     0.01  -0.03   0.38    -0.06  -0.10  -0.14    -0.05  -0.10  -0.01
   6   6    -0.05   0.01  -0.34     0.12  -0.01  -0.19     0.05  -0.07   0.05
   7   6     0.07   0.00   0.04    -0.09   0.02   0.14     0.17   0.08  -0.03
   8   1    -0.01   0.01   0.01    -0.06   0.01   0.02     0.04   0.06   0.02
   9   1    -0.01   0.00   0.02    -0.05   0.01   0.03    -0.10   0.02   0.01
  10   1     0.01  -0.00   0.00    -0.01  -0.01   0.00     0.06   0.05  -0.02
  11   1     0.01  -0.00  -0.01    -0.05   0.01  -0.03     0.53  -0.31  -0.00
  12   1    -0.35  -0.27  -0.05     0.18   0.19   0.05     0.00  -0.04  -0.01
  13   1     0.20   0.17   0.07    -0.23  -0.15  -0.05     0.07   0.01   0.00
  14   1    -0.04   0.11  -0.11    -0.02   0.28  -0.06    -0.01   0.01  -0.01
  15   1     0.17  -0.14   0.13    -0.05  -0.36   0.01     0.00   0.26  -0.04
  16   1    -0.13   0.25  -0.13     0.32  -0.09  -0.02     0.06  -0.06   0.02
  17   1     0.13  -0.11   0.11    -0.24   0.14  -0.03    -0.22   0.11  -0.01
  18   1     0.17   0.06  -0.06     0.24   0.12  -0.06    -0.28  -0.18   0.05
  19   1    -0.37  -0.18   0.06    -0.37  -0.14   0.08    -0.25  -0.16   0.05
                     28                     29                     30
                        a                      a                      a 
 Frequencies --  1334.7837              1341.0173              1351.3470
 Red. masses --     4.7343                 5.4634                 5.2200
 Frc consts  --     0.0000                 0.0000                 0.0000
 IR Inten    --     4.0575                14.1762                 4.3149
 Raman Activ --     0.0000                 0.0000                 0.0000
 Depolar     --     0.0000                 0.0000                 0.0000
 Atom AN      X      Y      Z        X      Y      Z        X      Y      Z
   1   6    -0.01   0.02   0.01    -0.01  -0.02  -0.01    -0.01  -0.02   0.00
   2   6     0.01  -0.01  -0.01    -0.04   0.05   0.02     0.05   0.11  -0.01
   3   6     0.12   0.03  -0.00     0.05   0.08   0.02    -0.08  -0.02   0.01
   4   6    -0.37  -0.11  -0.04    -0.38  -0.26  -0.00     0.12  -0.05   0.06
   5   6     0.03  -0.20   0.08     0.16   0.28  -0.05    -0.11   0.41  -0.02
   6   6     0.31  -0.08   0.02    -0.25   0.03  -0.08     0.30  -0.23   0.02
   7   6    -0.13  -0.03  -0.02     0.10   0.00   0.01    -0.11  -0.02  -0.05
   8   1    -0.00  -0.00  -0.00     0.02   0.02   0.00     0.00   0.01   0.01
   9   1     0.02  -0.01  -0.01     0.01  -0.01   0.00    -0.03   0.01  -0.01
  10   1    -0.01   0.00   0.00     0.03   0.02  -0.00     0.01   0.02  -0.01
  11   1     0.05   0.00  -0.00     0.19  -0.08  -0.02     0.13  -0.09  -0.00
  12   1     0.22   0.15   0.05     0.36   0.18   0.07    -0.01   0.01  -0.01
  13   1     0.30   0.20   0.06     0.29   0.09  -0.00    -0.15  -0.14  -0.04
  14   1    -0.01   0.47  -0.07     0.06  -0.14   0.10    -0.03  -0.23  -0.03
  15   1     0.01   0.05   0.00    -0.00  -0.32   0.05     0.04  -0.47   0.09
  16   1    -0.31   0.19  -0.06     0.17  -0.05   0.00    -0.41   0.24  -0.07
  17   1    -0.19   0.14  -0.08     0.24  -0.17   0.09    -0.12   0.04   0.04
  18   1    -0.01   0.05   0.03    -0.00  -0.05  -0.03    -0.08  -0.01   0.02
  19   1     0.12   0.08  -0.03    -0.11  -0.08   0.03     0.10   0.03  -0.02
                     31                     32                     33
                        a                      a                      a 
 Frequencies --  1356.2157              1401.5425              1467.7526
 Red. masses --     6.8693                 3.3683                 1.9214
 Frc consts  --     0.0000                 0.0000                 0.0000
 IR Inten    --     4.5366                 1.7424                 0.8855
 Raman Activ --     0.0000                 0.0000                 0.0000
 Depolar     --     0.0000                 0.0000                 0.0000
 Atom AN      X      Y      Z        X      Y      Z        X      Y      Z
   1   6     0.08   0.06  -0.00    -0.45   0.03   0.01     0.01  -0.00  -0.05
   2   6    -0.30  -0.31   0.00     0.08   0.02  -0.00    -0.03   0.03  -0.01
   3   6     0.15   0.05   0.00    -0.01  -0.01  -0.00     0.03  -0.03   0.00
   4   6    -0.04   0.00   0.02     0.01   0.02   0.00    -0.06   0.10   0.03
   5   6     0.00   0.05  -0.03     0.00  -0.00   0.00     0.05   0.02   0.04
   6   6     0.04  -0.17   0.02     0.00  -0.01  -0.00     0.03   0.03  -0.04
   7   6     0.38   0.37  -0.05    -0.01  -0.01  -0.00     0.12  -0.19  -0.07
   8   1     0.01  -0.05  -0.03     0.48   0.02  -0.22     0.06   0.06   0.00
   9   1     0.08  -0.01  -0.01     0.44  -0.19   0.00    -0.02   0.02   0.16
  10   1     0.01  -0.04   0.03     0.49   0.03   0.19    -0.06  -0.09   0.03
  11   1    -0.27   0.17  -0.00    -0.03   0.01   0.00    -0.01   0.00   0.00
  12   1     0.02   0.04   0.00    -0.02   0.00  -0.00     0.11  -0.22   0.10
  13   1    -0.00   0.01   0.01    -0.02  -0.00   0.00     0.10  -0.14  -0.21
  14   1    -0.01  -0.02  -0.02    -0.00   0.00  -0.00    -0.03  -0.03  -0.17
  15   1    -0.04  -0.08  -0.00    -0.00   0.00  -0.00    -0.17  -0.00  -0.02
  16   1    -0.02   0.05  -0.01     0.00  -0.00  -0.00    -0.07  -0.15   0.02
  17   1    -0.25   0.09   0.02    -0.01   0.00   0.01    -0.03  -0.02   0.16
  18   1    -0.35  -0.20   0.06    -0.01   0.01   0.01    -0.13   0.31   0.44
  19   1    -0.27  -0.15   0.07    -0.02   0.00  -0.00    -0.30   0.42  -0.19
                     34                     35                     36
                        a                      a                      a 
 Frequencies --  1474.4853              1479.9885              1483.2321
 Red. masses --     1.8963                 1.6130                 1.8686
 Frc consts  --     0.0000                 0.0000                 0.0000
 IR Inten    --     0.3794                 2.6148                 1.1790
 Raman Activ --     0.0000                 0.0000                 0.0000
 Depolar     --     0.0000                 0.0000                 0.0000
 Atom AN      X      Y      Z        X      Y      Z        X      Y      Z
   1   6     0.01   0.03  -0.06     0.00   0.01  -0.21     0.03   0.11   0.01
   2   6     0.02  -0.02  -0.01    -0.00  -0.00  -0.04     0.00  -0.01   0.00
   3   6    -0.01   0.01  -0.00    -0.01   0.01  -0.00    -0.02   0.02   0.00
   4   6     0.10  -0.21  -0.06    -0.02   0.04   0.01    -0.02   0.02   0.00
   5   6    -0.02   0.01  -0.03    -0.01  -0.01  -0.00    -0.12  -0.02  -0.12
   6   6    -0.03  -0.02   0.01     0.00  -0.01   0.02     0.08   0.10  -0.13
   7   6     0.07  -0.09  -0.03    -0.05   0.07   0.03    -0.00   0.02   0.00
   8   1     0.08   0.01  -0.03     0.28   0.29   0.02     0.03  -0.29  -0.17
   9   1    -0.06   0.04   0.19    -0.01   0.04   0.67    -0.17   0.08  -0.04
  10   1    -0.07  -0.17   0.08    -0.25  -0.37   0.13     0.07  -0.23   0.18
  11   1     0.03  -0.01  -0.00     0.00   0.00   0.00     0.01  -0.00  -0.00
  12   1    -0.23   0.47  -0.21     0.04  -0.10   0.04     0.02  -0.05   0.02
  13   1    -0.21   0.28   0.44     0.05  -0.06  -0.09     0.03  -0.03  -0.05
  14   1     0.03  -0.00   0.11     0.00   0.01   0.02     0.08   0.08   0.39
  15   1     0.11  -0.03   0.01     0.02   0.01   0.00     0.40   0.01   0.04
  16   1     0.04   0.05  -0.01     0.01   0.04  -0.01    -0.21  -0.36   0.05
  17   1     0.02  -0.01  -0.05     0.00   0.01  -0.04    -0.10  -0.03   0.41
  18   1    -0.06   0.16   0.22     0.03  -0.13  -0.16     0.02  -0.01  -0.03
  19   1    -0.15   0.22  -0.10     0.13  -0.14   0.06     0.02  -0.02   0.01
                     37                     38                     39
                        a                      a                      a 
 Frequencies --  1484.3019              1495.5777              1751.8997
 Red. masses --     1.6964                 2.0559                11.5386
 Frc consts  --     0.0000                 0.0000                 0.0000
 IR Inten    --     1.4769                 0.0183                 8.6579
 Raman Activ --     0.0000                 0.0000                 0.0000
 Depolar     --     0.0000                 0.0000                 0.0000
 Atom AN      X      Y      Z        X      Y      Z        X      Y      Z
   1   6     0.05   0.18   0.01     0.01   0.02  -0.01     0.06  -0.03  -0.00
   2   6     0.02   0.01   0.00     0.01  -0.00  -0.00    -0.38   0.60   0.02
   3   6    -0.06   0.05   0.00    -0.01   0.01  -0.00     0.42  -0.51  -0.02
   4   6     0.01   0.01   0.01     0.03  -0.09  -0.02    -0.06   0.03   0.00
   5   6     0.06   0.02   0.07     0.16   0.01   0.13     0.01  -0.01   0.00
   6   6    -0.05  -0.06   0.08     0.08   0.13  -0.12    -0.00   0.01  -0.00
   7   6    -0.01  -0.01   0.00    -0.05   0.05   0.02     0.01  -0.06   0.00
   8   1     0.04  -0.49  -0.28     0.01  -0.02  -0.02     0.05  -0.02  -0.03
   9   1    -0.31   0.13  -0.08    -0.02   0.01   0.02    -0.05   0.02   0.00
  10   1     0.12  -0.38   0.30    -0.01  -0.04   0.03     0.06  -0.01   0.03
  11   1     0.05  -0.02  -0.00     0.02  -0.01  -0.00    -0.10  -0.04   0.00
  12   1     0.04  -0.05   0.02    -0.07   0.18  -0.07    -0.06   0.01  -0.02
  13   1     0.04  -0.03  -0.05    -0.06   0.11   0.16    -0.07   0.00   0.03
  14   1    -0.05  -0.05  -0.21    -0.08  -0.06  -0.44     0.00   0.02   0.01
  15   1    -0.21  -0.01  -0.02    -0.45  -0.00  -0.04     0.00   0.00  -0.00
  16   1     0.13   0.23  -0.03    -0.20  -0.37   0.06     0.00   0.00   0.00
  17   1     0.07   0.02  -0.26    -0.07  -0.03   0.41     0.02  -0.01  -0.01
  18   1     0.02  -0.00  -0.01     0.05  -0.08  -0.14    -0.04  -0.06  -0.03
  19   1     0.01  -0.01   0.01     0.11  -0.12   0.06    -0.01  -0.05   0.02
                     40                     41                     42
                        a                      a                      a 
 Frequencies --  2914.6649              2924.0229              2957.6521
 Red. masses --     1.8695                 1.8647                 1.5800
 Frc consts  --     0.0000                 0.0000                 0.0000
 IR Inten    --    63.7160                60.2064               106.0779
 Raman Activ --     0.0000                 0.0000                 0.0000
 Depolar     --     0.0000                 0.0000                 0.0000
 Atom AN      X      Y      Z        X      Y      Z        X      Y      Z
   1   6     0.00  -0.00   0.00    -0.00   0.00   0.00    -0.00   0.00   0.00
   2   6    -0.00   0.00  -0.00    -0.00  -0.01  -0.01     0.00  -0.00  -0.00
   3   6     0.01  -0.00  -0.01    -0.00   0.00  -0.00    -0.01  -0.00  -0.00
   4   6     0.04   0.00  -0.28     0.00  -0.00  -0.01    -0.09   0.19  -0.07
   5   6    -0.02   0.00   0.02    -0.00   0.00   0.01     0.04   0.01  -0.01
   6   6     0.00   0.00   0.00     0.01   0.02   0.02     0.01   0.02   0.02
   7   6     0.00  -0.00   0.01    -0.03  -0.03  -0.27    -0.00   0.00   0.00
   8   1    -0.00   0.00  -0.01     0.00   0.00  -0.00     0.00  -0.00   0.01
   9   1    -0.00  -0.00   0.00     0.00   0.00   0.00     0.00   0.00   0.00
  10   1    -0.00   0.00   0.00     0.00  -0.01  -0.01     0.00  -0.01  -0.01
  11   1     0.00   0.00   0.00     0.00   0.00   0.00     0.02   0.04   0.00
  12   1    -0.27   0.23   0.83    -0.01   0.01   0.03     0.08  -0.05  -0.31
  13   1     0.11  -0.24   0.17     0.00  -0.00   0.00     0.27  -0.63   0.58
  14   1     0.06  -0.00  -0.01     0.01   0.00  -0.00    -0.18   0.00   0.04
  15   1     0.01  -0.02  -0.08     0.00  -0.00  -0.02     0.01  -0.00  -0.02
  16   1     0.00  -0.00  -0.01     0.01  -0.02  -0.10     0.00  -0.01  -0.06
  17   1    -0.00  -0.00  -0.00    -0.03  -0.06  -0.01    -0.03  -0.05  -0.01
  18   1    -0.01   0.01  -0.01     0.16  -0.21   0.15     0.00  -0.00   0.00
  19   1     0.00  -0.01  -0.03    -0.04   0.34   0.84    -0.00   0.00  -0.00
                     43                     44                     45
                        a                      a                      a 
 Frequencies --  2961.6498              2963.5754              2965.4886
 Red. masses --     1.8890                 1.6638                 1.9232
 Frc consts  --     0.0000                 0.0000                 0.0000
 IR Inten    --    61.7199                33.7215               183.0948
 Raman Activ --     0.0000                 0.0000                 0.0000
 Depolar     --     0.0000                 0.0000                 0.0000
 Atom AN      X      Y      Z        X      Y      Z        X      Y      Z
   1   6    -0.00   0.01  -0.00     0.00  -0.01   0.00    -0.00   0.00   0.00
   2   6     0.00  -0.00   0.00    -0.00   0.01  -0.00     0.00  -0.00   0.00
   3   6    -0.00   0.00   0.00     0.01   0.00  -0.00    -0.00   0.00   0.00
   4   6     0.01  -0.02  -0.01     0.01  -0.01  -0.01     0.01  -0.01  -0.02
   5   6     0.08  -0.01  -0.13     0.10  -0.02  -0.11     0.15  -0.02  -0.12
   6   6     0.06   0.14   0.14    -0.01  -0.00   0.06    -0.06  -0.14  -0.12
   7   6     0.06  -0.07   0.06    -0.10   0.14  -0.05     0.04  -0.07  -0.00
   8   1     0.00  -0.01   0.01    -0.01   0.01  -0.03     0.00  -0.00   0.01
   9   1    -0.00  -0.00   0.00     0.00   0.01  -0.00    -0.00  -0.00   0.00
  10   1     0.00  -0.00  -0.01    -0.01   0.01   0.02     0.00  -0.01  -0.01
  11   1    -0.00  -0.00  -0.00    -0.01  -0.02   0.00     0.00  -0.00  -0.00
  12   1    -0.02   0.01   0.07    -0.02   0.02   0.07    -0.02   0.02   0.07
  13   1    -0.02   0.05  -0.05    -0.01   0.03  -0.03    -0.01   0.01  -0.02
  14   1    -0.25  -0.00   0.04    -0.32   0.00   0.06    -0.55   0.00   0.12
  15   1    -0.04   0.06   0.43    -0.03   0.05   0.34    -0.02   0.05   0.31
  16   1     0.03  -0.07  -0.44     0.01  -0.06  -0.28    -0.02   0.05   0.33
  17   1    -0.24  -0.45  -0.08     0.04   0.08   0.03     0.24   0.46   0.09
  18   1    -0.21   0.26  -0.26     0.36  -0.45   0.46    -0.14   0.17  -0.18
  19   1     0.00   0.01   0.07    -0.01  -0.08  -0.26    -0.00   0.06   0.18
                     46                     47                     48
                        a                      a                      a 
 Frequencies --  2979.7975              2984.1433              2993.6176
 Red. masses --     1.5492                 1.4965                 1.9234
 Frc consts  --     0.0000                 0.0000                 0.0000
 IR Inten    --   149.9140               133.2149                55.8367
 Raman Activ --     0.0000                 0.0000                 0.0000
 Depolar     --     0.0000                 0.0000                 0.0000
 Atom AN      X      Y      Z        X      Y      Z        X      Y      Z
   1   6    -0.00   0.00  -0.00     0.01  -0.01   0.00     0.02  -0.02   0.29
   2   6     0.00  -0.00   0.00     0.00   0.00  -0.00     0.00  -0.00   0.01
   3   6     0.00   0.00   0.00     0.00   0.01   0.00    -0.00  -0.00   0.00
   4   6     0.01  -0.02   0.02     0.01  -0.02   0.01    -0.00  -0.00   0.00
   5   6     0.06   0.02   0.13     0.13   0.02   0.07    -0.00   0.00   0.00
   6   6    -0.04  -0.04   0.14     0.07   0.10  -0.07    -0.00  -0.00   0.00
   7   6     0.02  -0.02   0.03    -0.02   0.03  -0.01     0.00  -0.00   0.00
   8   1     0.00  -0.01   0.01    -0.01   0.02  -0.03    -0.28   0.36  -0.63
   9   1    -0.00  -0.00  -0.00    -0.00  -0.01   0.00     0.01   0.02   0.04
  10   1    -0.00   0.00   0.00    -0.01   0.01   0.02     0.18  -0.31  -0.43
  11   1    -0.00  -0.01  -0.00    -0.01  -0.03  -0.00     0.00   0.00   0.00
  12   1     0.00  -0.00   0.00    -0.01   0.01   0.04     0.00  -0.00  -0.01
  13   1    -0.03   0.07  -0.06    -0.03   0.08  -0.07    -0.00   0.00  -0.00
  14   1    -0.30   0.01   0.09    -0.54   0.01   0.14     0.01  -0.00  -0.00
  15   1     0.08  -0.09  -0.56     0.07  -0.06  -0.42    -0.00  -0.00  -0.00
  16   1     0.02  -0.13  -0.60    -0.00   0.09   0.38     0.00  -0.00  -0.01
  17   1     0.15   0.29   0.09    -0.23  -0.44  -0.11     0.00   0.00   0.00
  18   1    -0.07   0.09  -0.09     0.07  -0.08   0.08    -0.01   0.01  -0.01
  19   1     0.00  -0.00   0.01     0.00  -0.01  -0.04    -0.00  -0.00  -0.00
                     49                     50                     51
                        a                      a                      a 
 Frequencies --  3011.0094              3037.7439              3041.3384
 Red. masses --     1.5638                 1.7657                 1.6823
 Frc consts  --     0.0000                 0.0000                 0.0000
 IR Inten    --    84.0607                27.3013               181.7524
 Raman Activ --     0.0000                 0.0000                 0.0000
 Depolar     --     0.0000                 0.0000                 0.0000
 Atom AN      X      Y      Z        X      Y      Z        X      Y      Z
   1   6     0.10  -0.20  -0.04    -0.06  -0.13   0.01     0.08   0.17  -0.01
   2   6     0.01  -0.01  -0.00     0.01  -0.01  -0.00     0.01   0.01  -0.00
   3   6    -0.00  -0.00  -0.00     0.09   0.20   0.00     0.07   0.14   0.00
   4   6    -0.00   0.00   0.00    -0.00   0.01  -0.00    -0.00   0.01  -0.00
   5   6    -0.00  -0.00  -0.00    -0.00  -0.00  -0.00    -0.00  -0.00  -0.00
   6   6    -0.00  -0.00   0.00    -0.00  -0.00  -0.00    -0.00  -0.00   0.00
   7   6     0.01  -0.01   0.00     0.00  -0.00   0.00     0.00  -0.00  -0.00
   8   1    -0.19   0.23  -0.49     0.01  -0.04   0.03    -0.02   0.06  -0.06
   9   1     0.05   0.08  -0.01     0.20   0.53  -0.03    -0.28  -0.72   0.04
  10   1    -0.23   0.39   0.64     0.00  -0.04  -0.03    -0.01   0.06   0.05
  11   1     0.01   0.02   0.00    -0.37  -0.69  -0.01    -0.26  -0.50  -0.01
  12   1     0.00  -0.00  -0.01     0.00  -0.00  -0.01     0.00  -0.00  -0.01
  13   1     0.00  -0.01   0.01     0.01  -0.03   0.02     0.01  -0.02   0.02
  14   1     0.02  -0.00  -0.00     0.01   0.00  -0.00     0.02   0.00  -0.00
  15   1    -0.00   0.00   0.01    -0.00   0.00   0.00    -0.00   0.00   0.01
  16   1     0.00  -0.00  -0.01    -0.00   0.00   0.00    -0.00  -0.00  -0.01
  17   1     0.01   0.02   0.00     0.00   0.00   0.00     0.01   0.01   0.00
  18   1    -0.02   0.03  -0.03    -0.01   0.01  -0.01    -0.00   0.01  -0.01
  19   1     0.00   0.01   0.02     0.00   0.00   0.01    -0.00   0.00   0.01
