      -----------------------------------------------------------      
     |                   =====================                   |     
     |                           x T B                           |     
     |                   =====================                   |     
     |                         S. Grimme                         |     
     |          Mulliken Center for Theoretical Chemistry        |     
     |                    University of Bonn                     |     
      -----------------------------------------------------------      

   * xtb version 6.7.1 (edcfbbe) compiled by 'albert@albert-system' on 2024-07-22

   xtb is free software: you can redistribute it and/or modify it under
   the terms of the GNU Lesser General Public License as published by
   the Free Software Foundation, either version 3 of the License, or
   (at your option) any later version.
   
   xtb is distributed in the hope that it will be useful,
   but WITHOUT ANY WARRANTY; without even the implied warranty of
   MERCHANTABILITY or FITNESS FOR A PARTICULAR PURPOSE.  See the
   GNU Lesser General Public License for more details.
   
   Cite this work as:
   * C. Bannwarth, E. Caldeweyher, S. Ehlert, A. Hansen, P. Pracht,
     J. Seibert, S. Spicher, S. Grimme, WIREs Comput. Mol. Sci., 2020, 11,
     e01493. DOI: 10.1002/wcms.1493
   
   for GFN2-xTB:
   * C. Bannwarth, S. Ehlert and S. Grimme., J. Chem. Theory Comput., 2019,
     15, 1652-1671. DOI: 10.1021/acs.jctc.8b01176
   for GFN1-xTB:
   * S. Grimme, C. Bannwarth, P. Shushkov, J. Chem. Theory Comput., 2017,
     13, 1989-2009. DOI: 10.1021/acs.jctc.7b00118
   for GFN0-xTB:
   * P. Pracht, E. Caldeweyher, S. Ehlert, S. Grimme, ChemRxiv, 2019, preprint.
     DOI: 10.26434/chemrxiv.8326202.v1
   for GFN-FF:
   * S. Spicher and S. Grimme, Angew. Chem. Int. Ed., 2020, 59, 15665-15673.
     DOI: 10.1002/anie.202004239
   
   for ALPB and GBSA implicit solvation:
   * S. Ehlert, M. Stahn, S. Spicher, S. Grimme, J. Chem. Theory Comput.,
     2021, 17, 4250-4261. DOI: 10.1021/acs.jctc.1c00471
   
   for ddCOSMO and CPCM-X implicit solvation:
   * M. Stahn, S. Ehlert, S. Grimme, J. Phys. Chem. A,
     2023, XX, XXXX-XXXX. DOI: 10.1021/acs.jpca.3c04382
   
   for DFT-D4:
   * E. Caldeweyher, C. Bannwarth and S. Grimme, J. Chem. Phys., 2017,
     147, 034112. DOI: 10.1063/1.4993215
   * E. Caldeweyher, S. Ehlert, A. Hansen, H. Neugebauer, S. Spicher,
     C. Bannwarth and S. Grimme, J. Chem. Phys., 2019, 150, 154122.
     DOI: 10.1063/1.5090222
   * E. Caldeweyher, J.-M. Mewes, S. Ehlert and S. Grimme, Phys. Chem. Chem. Phys.
     2020, 22, 8499-8512. DOI: 10.1039/D0CP00502A
   
   for sTDA-xTB:
   * S. Grimme and C. Bannwarth, J. Chem. Phys., 2016, 145, 054103.
     DOI: 10.1063/1.4959605
   
   in the mass-spec context:
   * V. Asgeirsson, C. Bauer and S. Grimme, Chem. Sci., 2017, 8, 4879.
     DOI: 10.1039/c7sc00601b
   * J. Koopman and S. Grimme, ACS Omega 2019, 4, 12, 15120-15133.
     DOI: 10.1021/acsomega.9b02011
   
   for metadynamics refer to:
   * S. Grimme, J. Chem. Theory Comput., 2019, 155, 2847-2862
     DOI: 10.1021/acs.jctc.9b00143
   
   for SPH calculations refer to:
   * S. Spicher and S. Grimme, J. Chem. Theory Comput., 2021, 17, 1701-1714
     DOI: 10.1021/acs.jctc.0c01306
   
   for ONIOM refer to:
   * C. Plett, A. Katbashev, S. Ehlert, S. Grimme, M. Bursch,
     Phys. Chem. Chem. Phys., 2023, 25, 17860-17868. DOI: 10.1039/D3CP02178E
   
   for DIPRO refer to:
   * J. Kohn, N. Gildemeister, S. Grimme, D. Fazzi, A. Hansen,
     J. Chem. Phys., 2023, just accepted.
   
   for PTB refer to:
   * S. Grimme, M. Mueller, A. Hansen, J. Chem. Phys., 2023, 158, 124111.
     DOI: 10.1063/5.0137838
   
   with help from (in alphabetical order)
   P. Atkinson, C. Bannwarth, F. Bohle, G. Brandenburg, E. Caldeweyher
   M. Checinski, S. Dohm, S. Ehlert, S. Ehrlich, I. Gerasimov, C. Hölzer
   A. Katbashev, J. Kohn, J. Koopman, C. Lavigne, S. Lehtola, F. März, M. Müller,
   F. Musil, H. Neugebauer, J. Pisarek, C. Plett, P. Pracht, F. Pultar,
   J. Seibert, P. Shushkov, S. Spicher, M. Stahn, M. Steiner, T. Strunk,
   J. Stückrath, T. Rose, and J. Unsleber
   
 * started run on 2025/04/06 at 18:00:45.703     
   ID    Z sym.   atoms
    1    6 C      1, 2, 4, 6, 8, 10
    2    1 H      3, 5, 7, 9, 11, 18-24
    3    8 O      12-17

           -------------------------------------------------
          |                Calculation Setup                |
           -------------------------------------------------

          program call               : /srv/scratch/z5358697/.xtb/bin/xtb solv.coord --gfn2 --sp --chrg 0 --norestart --parallel 1 --alpb water reference -I xtb_sp-xcontrol-inp
          hostname                   : k155
          coordinate file            : solv.coord
          omp threads                :                     1


           -------------------------------------------------
          |                 G F N 2 - x T B                 |
           -------------------------------------------------

        Reference                      10.1021/acs.jctc.8b01176
      * Hamiltonian:
        H0-scaling (s, p, d)           1.850000    2.230000    2.230000
        zeta-weighting                 0.500000
      * Dispersion:
        s8                             2.700000
        a1                             0.520000
        a2                             5.000000
        s9                             5.000000
      * Repulsion:
        kExp                           1.500000    1.000000
        rExp                           1.000000
      * Coulomb:
        alpha                          2.000000
        third order                    shell-resolved
        anisotropic                    true
        a3                             3.000000
        a5                             4.000000
        cn-shift                       1.200000
        cn-exp                         4.000000
        max-rad                        5.000000

      * Solvation model:               ALPB
        Solvent                        water
        Parameter file                 internal GFN2-xTB/ALPB
        Dielectric constant                8.0200E+01
        Reference state                gsolv=reference [X=1]
        Free energy shift                  2.8945E-03 Eh       1.8164E+00 kcal/mol
        Temperature                        2.9815E+02 K
        Density                            1.0000E+00 kg/L
        Solvent mass                       1.8000E+01 g/mol
        Interaction kernel             P16
        Born radius scaling (c1)           1.4744E+00
        Born radii integrator          GBOBC
        Born offset                        0.0000E+00 a0       0.0000E+00 AA
        H-bond correction              true
        Ion screening                  false
        Surface tension                    1.0000E-05 Eh       1.5569E+01 dyn/cm
        Grid points                               974 per atom

          ...................................................
          :                      SETUP                      :
          :.................................................:
          :  # basis functions                  60          :
          :  # atomic orbitals                  60          :
          :  # shells                           36          :
          :  # electrons                        72          :
          :  max. iterations                   250          :
          :  Hamiltonian                  GFN2-xTB          :
          :  restarted?                      false          :
          :  GBSA solvation                   true          :
          :  PC potential                    false          :
          :  electronic temp.          300.0000000     K    :
          :  accuracy                    1.0000000          :
          :  -> integral cutoff          0.2500000E+02      :
          :  -> integral neglect         0.1000000E-07      :
          :  -> SCF convergence          0.1000000E-05 Eh   :
          :  -> wf. convergence          0.1000000E-03 e    :
          :  Broyden damping             0.4000000          :
          :  net charge                          0          :
          :  unpaired electrons                  0          :
          ...................................................

 iter      E             dE          RMSdq      gap      omega  full diag
   1    -43.6538539 -0.436539E+02  0.482E+00   10.85       0.0  T
   2    -43.6843441 -0.304902E-01  0.261E+00   10.70       1.0  T
   3    -43.6865847 -0.224059E-02  0.562E-01   10.71       1.0  T
   4    -43.6868207 -0.235950E-03  0.175E-01   10.70       1.0  T
   5    -43.6868708 -0.501018E-04  0.572E-02   10.73       1.0  T
   6    -43.6868834 -0.126387E-04  0.223E-02   10.72       1.0  T
   7    -43.6868843 -0.887686E-06  0.613E-03   10.72       3.3  T
   8    -43.6868845 -0.190616E-06  0.230E-03   10.72       8.9  T
   9    -43.6868845 -0.125086E-07  0.863E-04   10.72      23.6  T
  10    -43.6868845 -0.299604E-08  0.300E-04   10.72      68.0  T

   *** convergence criteria satisfied after 10 iterations ***

         #    Occupation            Energy/Eh            Energy/eV
      -------------------------------------------------------------
         1        2.0000           -0.7236185             -19.6907
       ...           ...                  ...                  ...
        30        2.0000           -0.4554711             -12.3940
        31        2.0000           -0.4456736             -12.1274
        32        2.0000           -0.4354067             -11.8480
        33        2.0000           -0.4270247             -11.6199
        34        2.0000           -0.4195584             -11.4168
        35        2.0000           -0.4069605             -11.0740
        36        2.0000           -0.4057656             -11.0414 (HOMO)
        37                         -0.0117222              -0.3190 (LUMO)
        38                         -0.0047377              -0.1289
        39                          0.0261793               0.7124
        40                          0.0326656               0.8889
        41                          0.0442188               1.2033
       ...                                ...                  ...
        60                          0.3123257               8.4988
      -------------------------------------------------------------
                  HL-Gap            0.3940434 Eh           10.7225 eV
             Fermi-level           -0.2087439 Eh           -5.6802 eV

 SCC (total)                   0 d,  0 h,  0 min,  0.035 sec
 SCC setup                      ...        0 min,  0.002 sec (  4.349%)
 Dispersion                     ...        0 min,  0.000 sec (  0.404%)
 classical contributions        ...        0 min,  0.000 sec (  0.080%)
 integral evaluation            ...        0 min,  0.003 sec (  7.759%)
 iterations                     ...        0 min,  0.023 sec ( 65.278%)
 molecular gradient             ...        0 min,  0.008 sec ( 21.706%)
 printout                       ...        0 min,  0.000 sec (  0.383%)

         :::::::::::::::::::::::::::::::::::::::::::::::::::::
         ::                     SUMMARY                     ::
         :::::::::::::::::::::::::::::::::::::::::::::::::::::
         :: total energy             -43.383720960974 Eh    ::
         :: total w/o Gsasa/hb       -43.363897262691 Eh    ::
         :: gradient norm              0.000053042534 Eh/a0 ::
         :: HOMO-LUMO gap             10.722466632809 eV    ::
         ::.................................................::
         :: SCC energy               -43.686697410871 Eh    ::
         :: -> isotropic ES            0.175456325283 Eh    ::
         :: -> anisotropic ES         -0.008348033652 Eh    ::
         :: -> anisotropic XC         -0.009952558754 Eh    ::
         :: -> dispersion             -0.019796641895 Eh    ::
         :: -> Gsolv                  -0.039466859371 Eh    ::
         ::    -> Gelec               -0.019643161088 Eh    ::
         ::    -> Gsasa                0.004412775011 Eh    ::
         ::    -> Ghb                 -0.027131022454 Eh    ::
         ::    -> Gshift               0.002894549160 Eh    ::
         :: repulsion energy           0.302976449897 Eh    ::
         :: add. restraining           0.000000000000 Eh    ::
         :: total charge              -0.000000000000 e     ::
         :::::::::::::::::::::::::::::::::::::::::::::::::::::

           -------------------------------------------------
          |                Property Printout                |
           -------------------------------------------------

    * Orbital Energies and Occupations

         #    Occupation            Energy/Eh            Energy/eV
      -------------------------------------------------------------
         1        2.0000           -0.7236185             -19.6907
       ...           ...                  ...                  ...
        24        2.0000           -0.5160097             -14.0413
        25        2.0000           -0.5069172             -13.7939
        26        2.0000           -0.4931124             -13.4183
        27        2.0000           -0.4841496             -13.1744
        28        2.0000           -0.4803313             -13.0705
        29        2.0000           -0.4719064             -12.8412
        30        2.0000           -0.4554711             -12.3940
        31        2.0000           -0.4456736             -12.1274
        32        2.0000           -0.4354067             -11.8480
        33        2.0000           -0.4270247             -11.6199
        34        2.0000           -0.4195584             -11.4168
        35        2.0000           -0.4069605             -11.0740
        36        2.0000           -0.4057656             -11.0414 (HOMO)
        37                         -0.0117222              -0.3190 (LUMO)
        38                         -0.0047377              -0.1289
        39                          0.0261793               0.7124
        40                          0.0326656               0.8889
        41                          0.0442188               1.2033
        42                          0.0649916               1.7685
        43                          0.0682984               1.8585
        44                          0.0891719               2.4265
        45                          0.1029147               2.8005
        46                          0.1137177               3.0944
        47                          0.1238888               3.3712
       ...                                ...                  ...
        60                          0.3123257               8.4988
      -------------------------------------------------------------
                  HL-Gap            0.3940434 Eh           10.7225 eV
             Fermi-level           -0.2087439 Eh           -5.6802 eV

     #   Z          covCN         q      C6AA      α(0)
     1   6 C        3.674     0.070    19.626     6.348
     2   6 C        3.741     0.097    19.055     6.228
     3   1 H        0.923     0.041     2.434     2.440
     4   6 C        3.725     0.102    18.996     6.223
     5   1 H        0.923     0.046     2.368     2.406
     6   6 C        3.728     0.094    19.122     6.243
     7   1 H        0.924     0.065     2.146     2.291
     8   6 C        3.725     0.089    19.200     6.257
     9   1 H        0.923     0.047     2.363     2.404
    10   6 C        3.620     0.243    17.234     5.985
    11   1 H        0.923     0.036     2.500     2.472
    12   8 O        1.700    -0.359    20.056     6.046
    13   8 O        1.657    -0.519    23.297     6.516
    14   8 O        1.656    -0.510    23.107     6.489
    15   8 O        1.655    -0.491    22.705     6.432
    16   8 O        1.656    -0.500    22.895     6.459
    17   8 O        1.655    -0.512    23.149     6.495
    18   1 H        0.924     0.046     2.374     2.410
    19   1 H        0.924     0.053     2.284     2.364
    20   1 H        0.804     0.390     0.503     1.114
    21   1 H        0.804     0.380     0.523     1.136
    22   1 H        0.804     0.352     0.583     1.200
    23   1 H        0.805     0.363     0.558     1.174
    24   1 H        0.805     0.377     0.528     1.141

 Mol. C6AA /au·bohr⁶  :       4728.043121
 Mol. C8AA /au·bohr⁸  :     100775.280443
 Mol. α(0) /au        :         98.275529


Wiberg/Mayer (AO) data.
largest (>0.10) Wiberg bond orders for each atom

 ---------------------------------------------------------------------------
     #   Z sym  total        # sym  WBO       # sym  WBO       # sym  WBO
 ---------------------------------------------------------------------------
     1   6 C    3.960 --    17 O    1.002     2 C    0.986    19 H    0.968
                            18 H    0.968
     2   6 C    3.942 --     1 C    0.986     4 C    0.964     3 H    0.958
                            12 O    0.952
     3   1 H    0.998 --     2 C    0.958
     4   6 C    3.958 --    16 O    0.999     6 C    0.968     2 C    0.964
                             5 H    0.957
     5   1 H    0.998 --     4 C    0.957
     6   6 C    3.958 --    15 O    1.004     4 C    0.968     7 H    0.957
                             8 C    0.956
     7   1 H    0.996 --     6 C    0.957
     8   6 C    3.958 --    14 O    1.002    10 C    0.966     9 H    0.958
                             6 C    0.956
     9   1 H    0.998 --     8 C    0.958
    10   6 C    3.933 --    13 O    0.993    12 O    0.975     8 C    0.966
                            11 H    0.949
    11   1 H    0.999 --    10 C    0.949
    12   8 O    2.069 --    10 C    0.975     2 C    0.952
    13   8 O    1.924 --    10 C    0.993    20 H    0.831
    14   8 O    1.917 --     8 C    1.002    21 H    0.841
    15   8 O    1.937 --     6 C    1.004    22 H    0.854
    16   8 O    1.923 --     4 C    0.999    23 H    0.851
    17   8 O    1.905 --     1 C    1.002    24 H    0.845
    18   1 H    0.998 --     1 C    0.968
    19   1 H    0.997 --     1 C    0.968
    20   1 H    0.848 --    13 O    0.831
    21   1 H    0.856 --    14 O    0.841
    22   1 H    0.876 --    15 O    0.854
    23   1 H    0.868 --    16 O    0.851
    24   1 H    0.857 --    17 O    0.845
 ---------------------------------------------------------------------------

Topologies differ in total number of bonds
Writing topology from bond orders to xtbtopo.mol

molecular dipole:
                 x           y           z       tot (Debye)
 q only:       -0.705      -0.901      -0.052
   full:       -0.771      -1.261      -0.006       3.757
molecular quadrupole (traceless):
                xx          xy          yy          xz          yz          zz
 q only:       11.737       4.968      -9.503       0.956       7.503      -2.234
  q+dip:       14.323       6.185     -10.072       1.563       9.797      -4.251
   full:       14.226       6.294     -10.627       1.450       9.682      -3.599


           -------------------------------------------------
          | TOTAL ENERGY              -43.383720960974 Eh   |
          | GRADIENT NORM               0.000053042534 Eh/α |
          | HOMO-LUMO GAP              10.722466632809 eV   |
           -------------------------------------------------

------------------------------------------------------------------------
 * finished run on 2025/04/06 at 18:00:45.769     
------------------------------------------------------------------------
 total:
 * wall-time:     0 d,  0 h,  0 min,  0.066 sec
 *  cpu-time:     0 d,  0 h,  0 min,  0.029 sec
 * ratio c/w:     0.443 speedup
 SCF:
 * wall-time:     0 d,  0 h,  0 min,  0.035 sec
 *  cpu-time:     0 d,  0 h,  0 min,  0.021 sec
 * ratio c/w:     0.592 speedup

