
                                 *****************
                                 * O   R   C   A *
                                 *****************

                                            #,                                       
                                            ###                                      
                                            ####                                     
                                            #####                                    
                                            ######                                   
                                           ########,                                 
                                     ,,################,,,,,                         
                               ,,#################################,,                 
                          ,,##########################################,,             
                       ,#########################################, ''#####,          
                    ,#############################################,,   '####,        
                  ,##################################################,,,,####,       
                ,###########''''           ''''###############################       
              ,#####''   ,,,,##########,,,,          '''####'''          '####       
            ,##' ,,,,###########################,,,                        '##       
           ' ,,###''''                  '''############,,,                           
         ,,##''                                '''############,,,,        ,,,,,,###''
      ,#''                                            '''#######################'''  
     '                                                          ''''####''''         
             ,#######,   #######,   ,#######,      ##                                
            ,#'     '#,  ##    ##  ,#'     '#,    #''#        ,####,   ,####,        
            ##       ##  ##   ,#'  ##            #'  '#       #'       #'  '#        
            ##       ##  #######   ##           ,######,      #####,   #    #        
            '#,     ,#'  ##    ##  '#,     ,#' ,#      #,     #,   #   #,  ,#        
             '#######'   ##     ##  '#######'  #'      '#     '####' # '####'        



                #########################################################
                #                        -***-                          #
                #          Department of theory and spectroscopy        #
                #                                                       #
                #                      Frank Neese                      #
                #                                                       #
                #     Directorship, Architecture, Infrastructure        #
                #                    SHARK, DRIVERS                     #
                #        Core code/Algorithms in most modules           #
                #                                                       #
                #        Max Planck Institute fuer Kohlenforschung      #
                #                Kaiser Wilhelm Platz 1                 #
                #                 D-45470 Muelheim/Ruhr                 #
                #                      Germany                          #
                #                                                       #
                #                  All rights reserved                  #
                #                        -***-                          #
                #########################################################


                         Program Version 6.0.0  -   RELEASE  -


 With contributions from (in alphabetic order):
   Daniel Aravena         : Magnetic Suceptibility
   Michael Atanasov       : Ab Initio Ligand Field Theory (pilot matlab implementation)
   Alexander A. Auer      : GIAO ZORA, VPT2 properties, NMR spectrum
   Ute Becker             : All parallelization in ORCA, NUMFREQ, NUMCALC
   Giovanni Bistoni       : ED, misc. LED, open-shell LED, HFLD
   Martin Brehm           : Molecular dynamics
   Dmytro Bykov           : pre 5.0 version of the SCF Hessian
   Marcos Casanova-Páez   : Triplet and SCS-CIS(D). UHF-(DLPNO)-IP/EA/STEOM-CCSD. UHF-CVS-IP/STEOM-CCSD
   Vijay G. Chilkuri      : MRCI spin determinant printing, contributions to CSF-ICE
   Pauline Colinet        : FMM embedding
   Dipayan Datta          : RHF DLPNO-CCSD density
   Achintya Kumar Dutta   : EOM-CC, STEOM-CC
   Nicolas Foglia         : Exact transition moments, OPA infrastructure, MCD improvements
   Dmitry Ganyushin       : Spin-Orbit,Spin-Spin,Magnetic field MRCI
   Miquel Garcia          : C-PCM and meta-GGA Hessian, CCSD/C-PCM, Gaussian charge scheme
   Tiago L. C. Gouveia    : GS-ROHF, GS-ROCIS
   Yang Guo               : DLPNO-NEVPT2, F12-NEVPT2, CIM, IAO-localization
   Andreas Hansen         : Spin unrestricted coupled pair/coupled cluster methods
   Ingolf Harden          : AUTO-CI MPn and infrastructure 
   Benjamin Helmich-Paris : MC-RPA, TRAH-(SCF,CASSCF), AVAS, COSX integrals, SCF dyn. polar.
   Lee Huntington         : MR-EOM, pCC
   Robert Izsak           : Overlap fitted RIJCOSX, COSX-SCS-MP3, EOM
   Riya Kayal             : Wick's Theorem for AUTO-CI, AUTO-CI UHF-CCSDT
   Emily Kempfer          : AUTO-CI, RHF CISDT and CCSDT
   Christian Kollmar      : KDIIS, OOCD, Brueckner-CCSD(T), CCSD density, CASPT2, CASPT2-K, improved NEVPT2
   Axel Koslowski         : Symmetry handling
   Simone Kossmann        : Meta GGA functionals, TD-DFT gradient, OOMP2, (MP2 Hessian; deprecated post 5.0)
   Lucas Lang             : DCDCAS
   Marvin Lechner         : AUTO-CI (C++ implementation), FIC-MRCC
   Spencer Leger          : CASSCF response
   Dagmar Lenk            : GEPOL surface, SMD, ORCA-2-JSON
   Dimitrios Liakos       : Extrapolation schemes; Compound Job, initial MDCI parallelization
   Dimitrios Manganas     : Further ROCIS development; embedding schemes. LFT, Crystal Embedding
   Dimitrios Pantazis     : SARC Basis sets
   Anastasios Papadopoulos: AUTO-CI, single reference methods and gradients
   Taras Petrenko         : pre 6.0 DFT Hessian and TD-DFT gradient, (ASA, deprecated), ECA, 1-Electron XAS/XES, NRVS
   Peter Pinski           : DLPNO-MP2, DLPNO-MP2 Gradient
   Christoph Reimann      : Effective Core Potentials
   Marius Retegan         : Local ZFS, SOC
   Christoph Riplinger    : Optimizer, TS searches, QM/MM, DLPNO-CCSD(T), (RO)-DLPNO pert. Triples
   Michael Roemelt        : Original ROCIS implementation
   Masaaki Saitow         : Open-shell DLPNO-CCSD energy and density
   Barbara Sandhoefer     : DKH picture change effects
   Kantharuban Sivalingam : CASSCF convergence/infrastructure, NEVPT2 and variants, FIC-MRCI
   Bernardo de Souza      : ESD, SOC TD-DFT
   Georgi Stoychev        : AutoAux, RI-MP2 NMR, DLPNO-MP2 response, X2C
   Van Anh Tran           : RI-MP2 g-tensors
   Willem Van den Heuvel  : Paramagnetic NMR
   Zikuan Wang            : NOTCH, Electric field optimization 
   Frank Wennmohs         : Technical directorship and infrastructure
   Hang Xu                : AUTO-CI-Response properties 


 We gratefully acknowledge several colleagues who have allowed us to
 interface, adapt or use parts of their codes:
   Stefan Grimme, W. Hujo, H. Kruse, P. Pracht,  : VdW corrections, initial TS optimization,
                  C. Bannwarth, S. Ehlert,         DFT functionals, gCP, sTDA/sTD-DF
                  L. Wittmann, M. Mueller
   Ed Valeev, F. Pavosevic, A. Kumar             : LibInt (2-el integral package), F12 methods
   Garnet Chan, S. Sharma, J. Yang, R. Olivares  : DMRG
   Ulf Ekstrom                                   : XCFun DFT Library
   Mihaly Kallay                                 : mrcc  (arbitrary order and MRCC methods)
   Frank Weinhold                                : gennbo (NPA and NBO analysis)
   Simon Mueller                                 : openCOSMO-RS
   Christopher J. Cramer and Donald G. Truhlar   : smd solvation model
   Lars Goerigk                                  : TD-DFT with DH, B97 family of functionals
   V. Asgeirsson, H. Jonsson                     : NEB implementation
   FAccTs GmbH                                   : IRC, NEB, NEB-TS, DLPNO-Multilevel, CI-OPT
                                                   MM, QMMM, 2- and 3-layer-ONIOM, Crystal-QMMM,
                                                   LR-CPCM, SF, NACMEs, symmetry and pop. for TD-DFT,
                                                   nearIR, NL-DFT gradient (VV10), updates on ESD,
                                                   ML-optimized integration grids, MBIS, APM,
                                                   GOAT, DOCKER, SOLVATOR, interface openCOSMO-RS
   S Lehtola, MJT Oliveira, MAL Marques          : LibXC Library
   Liviu Ungur et al                             : ANISO software


 Your calculation uses the libint2 library for the computation of 2-el integrals
 For citations please refer to: http://libint.valeyev.net

 Your ORCA version has been built with support for libXC version: 6.2.2
 For citations please refer to: https://libxc.gitlab.io

 This ORCA versions uses:
   CBLAS   interface :  Fast vector & matrix operations
   LAPACKE interface :  Fast linear algebra routines
   SCALAPACK package :  Parallel linear algebra routines
   Shared memory     :  Shared parallel matrices
   BLAS/LAPACK       :  OpenBLAS 0.3.27  USE64BITINT DYNAMIC_ARCH NO_AFFINITY SkylakeX SINGLE_THREADED
        Core in use  :  SkylakeX
   Copyright (c) 2011-2014, The OpenBLAS Project


Your calculation utilizes the geometrical counterpoise correction gCP
Please cite in your paper:
H.Kruse, S. Grimme J.Chem.Phys., 136, (2012), 154101 
   

Your calculation utilizes the atom-pairwise dispersion correction
based on EEQ partial charges (D4)


================================================================================

----- Orbital basis set information -----
Your calculation utilizes the basis: def2-mTZVPP
   Stefan Grimme, Andreas Hansen, Sebastian Ehlert, and Jan-Michael Mewes 
   J. Chem. Phys. 154, 064103 (2021). DOI: 10.1063/5.0040021

----- AuxJ basis set information -----
Your calculation utilizes the auxiliary basis: def2/J
   F. Weigend, Phys. Chem. Chem. Phys. 8, 1057 (2006).

================================================================================
                                        WARNINGS
                       Please study these warnings very carefully!
================================================================================

Using LibXC functional ID 497 : Re-regularized SCAN exchange by Furness et al
[ 1]  J. W. Furness, A. D. Kaplan, J. Ning, J. P. Perdew, and J. Sun.,  J. Phys. Chem. Lett. 11, 8208-8215 (2020)
[ 2]  J. W. Furness, A. D. Kaplan, J. Ning, J. P. Perdew, and J. Sun.,  J. Phys. Chem. Lett. 11, 9248-9248 (2020)
Using LibXC functional ID 498 : Re-regularized SCAN correlation by Furness et al
[ 1]  J. W. Furness, A. D. Kaplan, J. Ning, J. P. Perdew, and J. Sun.,  J. Phys. Chem. Lett. 11, 8208-8215 (2020)
[ 2]  J. W. Furness, A. D. Kaplan, J. Ning, J. P. Perdew, and J. Sun.,  J. Phys. Chem. Lett. 11, 9248-9248 (2020)
Using LibXC functional ID 497 : Re-regularized SCAN exchange by Furness et al
[ 1]  J. W. Furness, A. D. Kaplan, J. Ning, J. P. Perdew, and J. Sun.,  J. Phys. Chem. Lett. 11, 8208-8215 (2020)
[ 2]  J. W. Furness, A. D. Kaplan, J. Ning, J. P. Perdew, and J. Sun.,  J. Phys. Chem. Lett. 11, 9248-9248 (2020)
Using LibXC functional ID 498 : Re-regularized SCAN correlation by Furness et al
[ 1]  J. W. Furness, A. D. Kaplan, J. Ning, J. P. Perdew, and J. Sun.,  J. Phys. Chem. Lett. 11, 8208-8215 (2020)
[ 2]  J. W. Furness, A. D. Kaplan, J. Ning, J. P. Perdew, and J. Sun.,  J. Phys. Chem. Lett. 11, 9248-9248 (2020)

================================================================================
                                       INPUT FILE
================================================================================
NAME = sp_gas.inp
|  1> ! r2scan-3c def2/J RI DEFGRID2 scfconv6 printgap
|  2> %output
|  3>     printlevel normal
|  4> end
|  5> * xyz 0 1
|  6> C -1.1894734027 0.9204062881 1.0267411315
|  7> C -0.5102499232 0.2257462416 0.0357463345
|  8> C -1.223751425 -0.5794595113 -0.8511008182
|  9> C -2.6093570782 -0.6798721206 -0.7501543518
| 10> C -3.2873099385 0.0246334045 0.242814923
| 11> C -2.5674026931 0.8224079163 1.1308517815
| 12> Cl -3.3992215559 1.6877091114 2.3611437816
| 13> Cl -4.9973766033 -0.0984821394 0.3662295145
| 14> Cl -3.4857261118 -1.6731420376 -1.8458866954
| 15> Cl -0.3930086614 -1.4742501275 -2.0617393117
| 16> C 0.9611578663 0.3368216545 -0.082306827
| 17> C 1.548243353 1.0457801193 -1.1301640933
| 18> C 2.924457476 1.1480003826 -1.251589867
| 19> C 3.736328875 0.5297456125 -0.3137218633
| 20> C 3.1801379251 -0.186040066 0.7459656266
| 21> C 1.7938773535 -0.274123827 0.8530688701
| 22> Cl 1.0947375571 -1.1722630596 2.1423829781
| 23> Cl 4.1892740557 -0.9568750855 1.9066416592
| 24> Cl 5.4442553175 0.6446685313 -0.4574594248
| 25> Cl 0.53583407 1.8208494798 -2.2848615679
| 26> H -0.6430307344 1.5438406273 1.7152059106
| 27> H 3.3625284867 1.7012507075 -2.0655311058
| 28> *
| 29> 
| 30>                          ****END OF INPUT****
================================================================================

                       ****************************
                       * Single Point Calculation *
                       ****************************

---------------------------------
CARTESIAN COORDINATES (ANGSTROEM)
---------------------------------
  C     -1.189473    0.920406    1.026741
  C     -0.510250    0.225746    0.035746
  C     -1.223751   -0.579460   -0.851101
  C     -2.609357   -0.679872   -0.750154
  C     -3.287310    0.024633    0.242815
  C     -2.567403    0.822408    1.130852
  Cl    -3.399222    1.687709    2.361144
  Cl    -4.997377   -0.098482    0.366230
  Cl    -3.485726   -1.673142   -1.845887
  Cl    -0.393009   -1.474250   -2.061739
  C      0.961158    0.336822   -0.082307
  C      1.548243    1.045780   -1.130164
  C      2.924457    1.148000   -1.251590
  C      3.736329    0.529746   -0.313722
  C      3.180138   -0.186040    0.745966
  C      1.793877   -0.274124    0.853069
  Cl     1.094738   -1.172263    2.142383
  Cl     4.189274   -0.956875    1.906642
  Cl     5.444255    0.644669   -0.457459
  Cl     0.535834    1.820849   -2.284862
  H     -0.643031    1.543841    1.715206
  H      3.362528    1.701251   -2.065531

----------------------------
CARTESIAN COORDINATES (A.U.)
----------------------------
  NO LB      ZA    FRAG     MASS         X           Y           Z
   0 C     6.0000    0    12.011   -2.247779    1.739316    1.940260
   1 C     6.0000    0    12.011   -0.964233    0.426599    0.067551
   2 C     6.0000    0    12.011   -2.312555   -1.095020   -1.608347
   3 C     6.0000    0    12.011   -4.930970   -1.284772   -1.417586
   4 C     6.0000    0    12.011   -6.212116    0.046550    0.458854
   5 C     6.0000    0    12.011   -4.851688    1.554126    2.137000
   6 Cl   17.0000    0    35.453   -6.423598    3.189308    4.461915
   7 Cl   17.0000    0    35.453   -9.443673   -0.186104    0.692073
   8 Cl   17.0000    0    35.453   -6.587068   -3.161780   -3.488220
   9 Cl   17.0000    0    35.453   -0.742679   -2.785929   -3.896123
  10 C     6.0000    0    12.011    1.816325    0.636501   -0.155537
  11 C     6.0000    0    12.011    2.925756    1.976238   -2.135701
  12 C     6.0000    0    12.011    5.526424    2.169406   -2.365162
  13 C     6.0000    0    12.011    7.060638    1.001074   -0.592848
  14 C     6.0000    0    12.011    6.009590   -0.351565    1.409671
  15 C     6.0000    0    12.011    3.389937   -0.518019    1.612067
  16 Cl   17.0000    0    35.453    2.068754   -2.215256    4.048517
  17 Cl   17.0000    0    35.453    7.916581   -1.808232    3.603031
  18 Cl   17.0000    0    35.453   10.288152    1.218247   -0.864473
  19 Cl   17.0000    0    35.453    1.012580    3.440907   -4.317763
  20 H     1.0000    0     1.008   -1.215152    2.917436    3.241269
  21 H     1.0000    0     1.008    6.354258    3.214898   -3.903288

--------------------------------
INTERNAL COORDINATES (ANGSTROEM)
--------------------------------
 C      0   0   0     0.000000000000     0.00000000     0.00000000
 C      1   0   0     1.387792420713     0.00000000     0.00000000
 C      2   1   0     1.394251975012   119.52626649     0.00000000
 C      3   2   1     1.392901973351   120.30476261     0.43328649
 C      4   3   2     1.393533672497   119.94353556   359.86468414
 C      1   2   3     1.385327339534   120.33595720   359.60786337
 Cl     6   1   2     1.718803998210   119.97007659   180.04222608
 Cl     5   4   3     1.718928909701   119.92996067   179.94783683
 Cl     4   3   2     1.719080329677   120.17071071   179.97271879
 Cl     3   2   1     1.719427040632   120.07587668   181.38682048
 C      2   1   3     1.480309149905   120.38928757   179.97658224
 C     11   2   1     1.394738801369   121.09465661   252.11876846
 C     12  11   2     1.385336967345   121.43391597   180.36259285
 C     13  12  11     1.385990808638   119.31997149     0.16660036
 C     14  13  12     1.394501734150   120.63345228   359.80852306
 C     15  14  13     1.393179179464   119.19193918     0.00000000
 Cl    16  15  14     1.719820166510   119.67972455   179.14014500
 Cl    15  14  13     1.720381123479   120.57796902   179.81504662
 Cl    14  13  12     1.717812707149   119.73142597   179.76857373
 Cl    12  11   2     1.720183515715   119.05246107     0.97334253
 H      1   2   3     1.077614827800   119.84221044   179.97061208
 H     13  12  11     1.077261561849   120.53704318   180.14530796

---------------------------
INTERNAL COORDINATES (A.U.)
---------------------------
 C      0   0   0     0.000000000000     0.00000000     0.00000000
 C      1   0   0     2.622547605879     0.00000000     0.00000000
 C      2   1   0     2.634754394452   119.52626649     0.00000000
 C      3   2   1     2.632203261032   120.30476261     0.43328649
 C      4   3   2     2.633396999416   119.94353556   359.86468414
 C      1   2   3     2.617889277554   120.33595720   359.60786337
 Cl     6   1   2     3.248068834505   119.97007659   180.04222608
 Cl     5   4   3     3.248304883014   119.92996067   179.94783683
 Cl     4   3   2     3.248591025300   120.17071071   179.97271879
 Cl     3   2   1     3.249246214054   120.07587668   181.38682048
 C      2   1   3     2.797378886858   120.38928757   179.97658224
 C     11   2   1     2.635674362940   121.09465661   252.11876846
 C     12  11   2     2.617907471479   121.43391597   180.36259285
 C     13  12  11     2.619143052458   119.31997149     0.16660036
 C     14  13  12     2.635226370821   120.63345228   359.80852306
 C     15  14  13     2.632727104669   119.19193918     0.00000000
 Cl    16  15  14     3.249989114298   119.67972455   179.14014500
 Cl    15  14  13     3.251049169343   120.57796902   179.81504662
 Cl    14  13  12     3.246195565881   119.73142597   179.76857373
 Cl    12  11   2     3.250675744787   119.05246107     0.97334253
 H      1   2   3     2.036396902394   119.84221044   179.97061208
 H     13  12  11     2.035729326495   120.53704318   180.14530796

---------------------
BASIS SET INFORMATION
---------------------
There are 3 groups of distinct atoms

 Group   1 Type C   : 11s6p1d contracted to 5s3p1d pattern {62111/411/1}
 Group   2 Type Cl  : 14s9p2d contracted to 5s4p2d pattern {73211/6111/11}
 Group   3 Type H   : 4s1p contracted to 2s1p pattern {31/1}

Atom   0C    basis set group =>   1
Atom   1C    basis set group =>   1
Atom   2C    basis set group =>   1
Atom   3C    basis set group =>   1
Atom   4C    basis set group =>   1
Atom   5C    basis set group =>   1
Atom   6Cl   basis set group =>   2
Atom   7Cl   basis set group =>   2
Atom   8Cl   basis set group =>   2
Atom   9Cl   basis set group =>   2
Atom  10C    basis set group =>   1
Atom  11C    basis set group =>   1
Atom  12C    basis set group =>   1
Atom  13C    basis set group =>   1
Atom  14C    basis set group =>   1
Atom  15C    basis set group =>   1
Atom  16Cl   basis set group =>   2
Atom  17Cl   basis set group =>   2
Atom  18Cl   basis set group =>   2
Atom  19Cl   basis set group =>   2
Atom  20H    basis set group =>   3
Atom  21H    basis set group =>   3
---------------------------------
AUXILIARY/J BASIS SET INFORMATION
---------------------------------
There are 3 groups of distinct atoms

 Group   1 Type C   : 12s5p4d2f1g contracted to 6s4p3d1f1g pattern {711111/2111/211/2/1}
 Group   2 Type Cl  : 14s5p5d2f1g contracted to 8s4p3d1f1g pattern {71111111/2111/311/2/1}
 Group   3 Type H   : 5s2p1d contracted to 3s1p1d pattern {311/2/1}

Atom   0C    basis set group =>   1
Atom   1C    basis set group =>   1
Atom   2C    basis set group =>   1
Atom   3C    basis set group =>   1
Atom   4C    basis set group =>   1
Atom   5C    basis set group =>   1
Atom   6Cl   basis set group =>   2
Atom   7Cl   basis set group =>   2
Atom   8Cl   basis set group =>   2
Atom   9Cl   basis set group =>   2
Atom  10C    basis set group =>   1
Atom  11C    basis set group =>   1
Atom  12C    basis set group =>   1
Atom  13C    basis set group =>   1
Atom  14C    basis set group =>   1
Atom  15C    basis set group =>   1
Atom  16Cl   basis set group =>   2
Atom  17Cl   basis set group =>   2
Atom  18Cl   basis set group =>   2
Atom  19Cl   basis set group =>   2
Atom  20H    basis set group =>   3
Atom  21H    basis set group =>   3

Checking for AutoStart:
The File: sp_gas.gbw exists
Trying to determine its content:
     ... Fine, the file contains calculation information
     ... Fine, the calculation information was read
     ... Fine, the file contains a basis set
     ... Fine, the basis set was read
     ... Fine, the file contains a geometry
     ... Fine, the geometry was read
     ... Fine, the file contains a set of orbitals
     ... Fine, the orbitals can be read
     => possible old guess file was deleted
     => GBW file was renamed to GES file
     => GES file is set as startup file
     => Guess is set to MORead
     ... now leaving AutoStart

------------------------------------------------------------------------------
                             ORCA STARTUP CALCULATIONS
                           -- RI-GTO INTEGRALS CHOSEN --
------------------------------------------------------------------------------
------------------------------------------------------------------------------
                   ___                                                        
                  /   \      - P O W E R E D   B Y -                         
                 /     \                                                     
                 |  |  |   _    _      __       _____    __    __             
                 |  |  |  | |  | |    /  \     |  _  \  |  |  /  |          
                  \  \/   | |  | |   /    \    | | | |  |  | /  /          
                 / \  \   | |__| |  /  /\  \   | |_| |  |  |/  /          
                |  |  |   |  __  | /  /__\  \  |    /   |      \           
                |  |  |   | |  | | |   __   |  |    \   |  |\   \          
                \     /   | |  | | |  |  |  |  | |\  \  |  | \   \       
                 \___/    |_|  |_| |__|  |__|  |_| \__\ |__|  \__/        
                                                                              
                      - O R C A' S   B I G   F R I E N D -                    
                                      &                                       
                       - I N T E G R A L  F E E D E R -                       
                                                                              
 v1 FN, 2020, v2 2021, v3 2022-2024                                           
------------------------------------------------------------------------------


----------------------
SHARK INTEGRAL PACKAGE
----------------------

Number of atoms                             ...     22
Number of basis functions                   ...    454
Number of shells                            ...    202
Maximum angular momentum                    ...      2
Integral batch strategy                     ... SHARK/LIBINT Hybrid
RI-J (if used) integral strategy            ... SPLIT-RIJ (Revised 2003 algorithm where possible)
Printlevel                                  ...      1
Contraction scheme used                     ... SEGMENTED contraction
Prescreening option                         ... SCHWARTZ
   Thresh                                   ... 1.000e-10
   Tcut                                     ... 1.000e-11
   Tpresel                                  ... 1.000e-11 
Coulomb Range Separation                    ... NOT USED
Exchange Range Separation                   ... NOT USED
Multipole approximations                    ... NOT USED
Finite Nucleus Model                        ... NOT USED
CABS basis                                  ... NOT available
Auxiliary Coulomb fitting basis             ... AVAILABLE
   # of basis functions in Aux-J            ...   1018
   # of shells in Aux-J                     ...    326
   Maximum angular momentum in Aux-J        ...      4
Auxiliary J/K fitting basis                 ... NOT available
Auxiliary Correlation fitting basis         ... NOT available
Auxiliary 'external' fitting basis          ... NOT available

Checking pre-screening integrals            ... done (  0.0 sec) Dimension = 202
Check shell pair data                       ... done (  0.0 sec)
Shell pair information
Shell pair cut-off parameter TPreSel        ...   1.0e-11
Total number of shell pairs                 ...     20503
Shell pairs after pre-screening             ...     14366
Total number of primitive shell pairs       ...     91541
Primitive shell pairs kept                  ...     37516
          la=0 lb=0:   3430 shell pairs
          la=1 lb=0:   5275 shell pairs
          la=1 lb=1:   1984 shell pairs
          la=2 lb=0:   1906 shell pairs
          la=2 lb=1:   1475 shell pairs
          la=2 lb=2:    296 shell pairs

Calculating one electron integrals          ... done (  0.1 sec)
Calculating RI/J V-Matrix + Cholesky decomp.... done (  0.1 sec)
Calculating Nuclear repulsion               ... done (  0.0 sec) ENN=   2722.696012186699 Eh

Diagonalization of the overlap matrix:
Smallest eigenvalue                        ... 1.055e-05
Time for diagonalization                   ...    0.026 sec
Threshold for overlap eigenvalues          ... 1.000e-07
Number of eigenvalues below threshold      ... 0
Time for construction of square roots      ...    0.028 sec
Total time needed                          ...    0.063 sec

-------------------
DFT GRID GENERATION
-------------------

General Integration Accuracy     IntAcc      ... 4.388
Radial Grid Type                 RadialGrid  ... OptM3 with GC (2021)
Angular Grid (max. ang.)         AngularGrid ... 4 (Lebedev-302)
Angular grid pruning method      GridPruning ... 4 (adaptive)
Weight generation scheme         WeightScheme... mBecke (2022)
Basis function cutoff            BFCut       ... 1.0000e-10
Integration weight cutoff        WCut        ... 1.0000e-14
Partially contracted basis set               ... off
Rotationally invariant grid construction     ... off
Angular grids for H and He will be reduced by one unit

Total number of grid points                  ...   136323
Total number of batches                      ...     2141
Average number of points per batch           ...       63
Average number of grid points per atom       ...     6196
Initializing property integral containers    ... done (  0.0 sec)

SHARK setup successfully completed in   2.4 seconds

Maximum memory used throughout the entire STARTUP-calculation: 73.2 MB
-------------------------------------------------------------------------------
                                 ORCA GUESS
                   Start orbitals & Density for SCF / CASSCF
-------------------------------------------------------------------------------

------------
SCF SETTINGS
------------
Hamiltonian:
 Density Functional     Method          .... DFT(GTOs)
  Functional kind                       .... Exchange
  Functional name                       .... Re-regularized SCAN exchange by Furness et al
  Functional family                     .... MGGA
  Functional refs                              
    [ 0] J. W. Furness, A. D. Kaplan, J. Ning, J. P. Perdew, and J. Sun.,  J. Phys. Chem. Lett. 11, 8208-8215 (2020), doi: 10.1021/acs.jpclett.0c02405
    [ 1] J. W. Furness, A. D. Kaplan, J. Ning, J. P. Perdew, and J. Sun.,  J. Phys. Chem. Lett. 11, 9248-9248 (2020), doi: 10.1021/acs.jpclett.0c03077
  Functional external parameters        .... 6
    Parameter  0 _c1        =  6.670000e-01 : c1 parameter        
    Parameter  1 _c2        =  8.000000e-01 : c2 parameter        
    Parameter  2 _d         =  1.240000e+00 : d parameter         
    Parameter  3 _k1        =  6.500000e-02 : k1 parameter        
    Parameter  4 _eta       =  1.000000e-03 : eta parameter       
    Parameter  5 _dp2       =  3.610000e-01 : dp2 parameter       
  Functional kind                       .... Correlation
  Functional name                       .... Re-regularized SCAN correlation by Furness et al
  Functional family                     .... MGGA
  Functional refs                              
    [ 0] J. W. Furness, A. D. Kaplan, J. Ning, J. P. Perdew, and J. Sun.,  J. Phys. Chem. Lett. 11, 8208-8215 (2020), doi: 10.1021/acs.jpclett.0c02405
    [ 1] J. W. Furness, A. D. Kaplan, J. Ning, J. P. Perdew, and J. Sun.,  J. Phys. Chem. Lett. 11, 9248-9248 (2020), doi: 10.1021/acs.jpclett.0c03077
  Functional external parameters        .... 1
    Parameter  0 _eta       =  1.000000e-03 : Regularization parameter
 Gradients option       PostSCFGGA      .... off
 RI-approximation to the Coulomb term is turned on
   Number of AuxJ basis functions       .... 1018


General Settings:
 Integral files         IntName         .... sp_gas
 Hartree-Fock type      HFTyp           .... RHF
 Total Charge           Charge          ....    0
 Multiplicity           Mult            ....    1
 Number of Electrons    NEL             ....  210
 Basis Dimension        Dim             ....  454
 Nuclear Repulsion      ENuc            ....   2722.6960121867 Eh

Convergence Acceleration:
 AO-DIIS                CNVDIIS         .... on
   Start iteration      DIISMaxIt       ....    12
   Startup error        DIISStart       ....  0.200000
   # of expansion vecs  DIISMaxEq       ....     5
   Bias factor          DIISBfac        ....   1.050
   Max. coefficient     DIISMaxC        ....  10.000
 MO-DIIS                CNVKDIIS        .... off
 Trust-Rad. Augm. Hess. CNVTRAH         .... auto
   Auto Start mean grad. ratio tolernc. ....  1.125000
   Auto Start start iteration           ....     1
   Auto Start num. interpolation iter.  ....    10
   Max. Number of Micro iterations      ....    24
   Max. Number of Macro iterations      .... Maxiter - #DIIS iter
   Number of Davidson start vectors     ....     2
   Converg. threshold    (grad. norm)   ....   3.330e-04
   Grad. Scal. Fac. for Micro threshold ....   0.100
   Minimum threshold for Micro iter.    ....   1.000e-02
   NR start threshold (gradient norm)   ....   1.000e-04
   Initial trust radius                 ....   0.400
   Minimum AH scaling param. (alpha)    ....   1.000
   Maximum AH scaling param. (alpha)    .... 1000.000
   Quad. conv. algorithm                .... NR
   White noise on init. David. guess    .... on
   Maximum white noise                  ....   0.010
   Pseudo random numbers                .... off
   Inactive MOs                         .... canonical
   Orbital update algorithm             .... Taylor
   Preconditioner                       .... Diag
   Full preconditioner red. dimension   ....   250
   COSX micro iterations for RIJONX calc.... off
 SOSCF                  CNVSOSCF        .... on
   Start iteration      SOSCFMaxIt      ....   150
   Startup grad/error   SOSCFStart      ....  0.003300
   Hessian update       SOSCFHessUp     .... L-BFGS
 Level Shifting         CNVShift        .... on
   Level shift para.    LevelShift      ....    0.2500
   Turn off err/grad.   ShiftErr        ....    0.0010
 Zerner damping         CNVZerner       .... off
 Static damping         CNVDamp         .... on
   Fraction old density DampFac         ....    0.7000
   Max. Damping (<1)    DampMax         ....    0.9800
   Min. Damping (>=0)   DampMin         ....    0.0000
   Turn off err/grad.   DampErr         ....    0.1000

SCF Procedure:
 Maximum # iterations   MaxIter         ....   125
 SCF integral mode      SCFMode         .... Direct
   Integral package                     .... SHARK and LIBINT hybrid scheme
 Reset frequency        DirectResetFreq ....    20
 Integral Threshold     Thresh          ....  1.000e-10 Eh
 Primitive CutOff       TCut            ....  1.000e-11 Eh

Convergence Tolerance:
 Convergence Check Mode ConvCheckMode   .... Total+1el-Energy
 Convergence forced     ConvForced      .... 0
 Energy Change          TolE            ....  1.000e-06 Eh
 1-El. energy change                    ....  1.000e-03 Eh
 Orbital Gradient       TolG            ....  3.330e-04
 Orbital Rotation angle TolX            ....  3.330e-04
 DIIS Error             TolErr          ....  1.000e-06

---------------------
INITIAL GUESS: MOREAD
---------------------
Guess MOs are being read from file: sp_gas.ges
Input Geometry matches current geometry (good)
Atom 0: N(Shells)= 9 and 6 - projection required
Input basis set needs projection
NBasis(read)= 316
NBasis(calc)= 454
Basis set overlap was calculated
Using GuessMode=FMatrix for the initial guess
C*T matrix was formed
Effective Fockian was calculated
Effective Fockian was diagonalized
Initial density was built
                      ------------------
                      INITIAL GUESS DONE (   0.1 sec)
                      ------------------
             **** ENERGY FILE WAS UPDATED (sp_gas.en.tmp) ****
Finished Guess after   0.5 sec
Maximum memory used throughout the entire GUESS-calculation: 45.1 MB

-------------------------------------------------------------------------------------------
                                      ORCA LEAN-SCF
                              memory conserving SCF solver
-------------------------------------------------------------------------------------------

----------------------------------------D-I-I-S--------------------------------------------
Iteration    Energy (Eh)           Delta-E    RMSDP     MaxDP     DIISErr   Damp  Time(sec)
-------------------------------------------------------------------------------------------
               ***  Starting incremental Fock matrix formation  ***
    1    -4139.4105807246978657     0.00e+00  2.37e-02  1.65e+00  5.36e-01  0.700   9.4
    2    -4139.5242777477506024    -1.14e-01  1.70e-02  1.16e+00  3.76e-01  0.700   8.0
    3    -4139.6045203419780592    -8.02e-02  1.19e-02  8.08e-01  2.63e-01  0.700   7.7
                               ***Turning on AO-DIIS***
    4    -4139.6608060639046016    -5.63e-02  8.35e-03  5.61e-01  1.84e-01  0.700   7.6
    5    -4139.7002556768347858    -3.94e-02  5.85e-03  3.93e-01  1.29e-01  0.700   7.4
    6    -4139.7279087836013787    -2.77e-02  4.10e-03  2.75e-01  9.02e-02  0.700   7.3
    7    -4139.7472855740143132    -1.94e-02  9.56e-03  6.41e-01  6.31e-02  0.000   7.0
                              *** Initializing SOSCF ***
---------------------------------------S-O-S-C-F--------------------------------------
Iteration    Energy (Eh)           Delta-E    RMSDP     MaxDP     MaxGrad    Time(sec)
--------------------------------------------------------------------------------------
    8    -4139.7925513428090198    -4.53e-02  4.87e-05  3.72e-03  2.26e-04     7.6
               *** Restarting incremental Fock matrix formation ***
    9    -4139.7925514221988124    -7.94e-08  1.04e-04  9.17e-03  1.22e-04     9.2
   10    -4139.7925483816979977     3.04e-06  3.65e-05  3.04e-03  2.81e-04     5.9
   11    -4139.7925519948985311    -3.61e-06  1.93e-05  1.32e-03  3.53e-05     5.9
                  *** Gradient check signals convergence ***

               *****************************************************
               *                     SUCCESS                       *
               *           SCF CONVERGED AFTER  11 CYCLES          *
               *****************************************************

             **** ENERGY FILE WAS UPDATED (sp_gas.en.tmp) ****

----------------
TOTAL SCF ENERGY
----------------

Total Energy       :      -4139.79255199489853 Eh         -112649.48233 eV

Components:
Nuclear Repulsion  :       2722.69601218669914 Eh           74088.32507 eV
Electronic Energy  :      -6862.48856418159812 Eh         -186737.80740 eV
One Electron Energy:     -11129.05947319510051 Eh         -302837.10421 eV
Two Electron Energy:       4266.57090901350239 Eh          116099.29681 eV

Virial components:
Potential Energy   :      -8269.45901607800261 Eh         -225023.41980 eV
Kinetic Energy     :       4129.66646408310316 Eh          112373.93747 eV
Virial Ratio       :          2.00245203529144

DFT components:
N(Alpha)           :      105.000037692228 electrons
N(Beta)            :      105.000037692228 electrons
N(Total)           :      210.000075384456 electrons
E(X)               :     -283.719021621946 Eh       
E(C)               :       -7.822766764037 Eh       
E(XC)              :     -291.541788385983 Eh       

---------------
SCF CONVERGENCE
---------------

  Last Energy change         ...    3.6132e-06  Tolerance :   1.0000e-06
  Last MAX-Density change    ...    1.3208e-03  Tolerance :   1.0000e-05
  Last RMS-Density change    ...    1.9256e-05  Tolerance :   1.0000e-06
  Last DIIS Error            ...    2.2583e-04  Tolerance :   1.0000e-06
  Last Orbital Gradient      ...    3.5294e-05  Tolerance :   3.3300e-04
  Last Orbital Rotation      ...    1.6859e-04  Tolerance :   3.3300e-04


----------------
ORBITAL ENERGIES
----------------

  NO   OCC          E(Eh)            E(eV) 
   0   2.0000    -101.248888     -2755.1223 
   1   2.0000    -101.247792     -2755.0925 
   2   2.0000    -101.246130     -2755.0473 
   3   2.0000    -101.245954     -2755.0425 
   4   2.0000    -101.244900     -2755.0138 
   5   2.0000    -101.244715     -2755.0088 
   6   2.0000    -101.244092     -2754.9918 
   7   2.0000    -101.243196     -2754.9674 
   8   2.0000     -10.143443      -276.0171 
   9   2.0000     -10.141720      -275.9702 
  10   2.0000     -10.140182      -275.9284 
  11   2.0000     -10.139583      -275.9121 
  12   2.0000     -10.139374      -275.9064 
  13   2.0000     -10.137615      -275.8585 
  14   2.0000     -10.135955      -275.8134 
  15   2.0000     -10.134822      -275.7825 
  16   2.0000     -10.099990      -274.8347 
  17   2.0000     -10.097129      -274.7569 
  18   2.0000     -10.084637      -274.4169 
  19   2.0000     -10.081857      -274.3413 
  20   2.0000      -9.404668      -255.9140 
  21   2.0000      -9.403618      -255.8855 
  22   2.0000      -9.401888      -255.8384 
  23   2.0000      -9.401766      -255.8350 
  24   2.0000      -9.400567      -255.8024 
  25   2.0000      -9.400396      -255.7978 
  26   2.0000      -9.399905      -255.7844 
  27   2.0000      -9.399029      -255.7606 
  28   2.0000      -7.151256      -194.5956 
  29   2.0000      -7.150170      -194.5660 
  30   2.0000      -7.148483      -194.5201 
  31   2.0000      -7.148308      -194.5153 
  32   2.0000      -7.147285      -194.4875 
  33   2.0000      -7.147109      -194.4827 
  34   2.0000      -7.146480      -194.4656 
  35   2.0000      -7.145561      -194.4406 
  36   2.0000      -7.141026      -194.3172 
  37   2.0000      -7.139980      -194.2887 
  38   2.0000      -7.139898      -194.2865 
  39   2.0000      -7.139050      -194.2634 
  40   2.0000      -7.138113      -194.2379 
  41   2.0000      -7.138057      -194.2364 
  42   2.0000      -7.137482      -194.2207 
  43   2.0000      -7.137036      -194.2086 
  44   2.0000      -7.136895      -194.2048 
  45   2.0000      -7.136718      -194.2000 
  46   2.0000      -7.136163      -194.1849 
  47   2.0000      -7.135797      -194.1749 
  48   2.0000      -7.135636      -194.1705 
  49   2.0000      -7.135317      -194.1619 
  50   2.0000      -7.135283      -194.1609 
  51   2.0000      -7.134504      -194.1397 
  52   2.0000      -0.935351       -25.4522 
  53   2.0000      -0.925520       -25.1847 
  54   2.0000      -0.888380       -24.1740 
  55   2.0000      -0.878985       -23.9184 
  56   2.0000      -0.876727       -23.8570 
  57   2.0000      -0.858580       -23.3631 
  58   2.0000      -0.838742       -22.8233 
  59   2.0000      -0.829800       -22.5800 
  60   2.0000      -0.815725       -22.1970 
  61   2.0000      -0.803130       -21.8543 
  62   2.0000      -0.760179       -20.6855 
  63   2.0000      -0.724590       -19.7171 
  64   2.0000      -0.717250       -19.5174 
  65   2.0000      -0.702874       -19.1262 
  66   2.0000      -0.630985       -17.1700 
  67   2.0000      -0.608329       -16.5535 
  68   2.0000      -0.606209       -16.4958 
  69   2.0000      -0.582000       -15.8370 
  70   2.0000      -0.523409       -14.2427 
  71   2.0000      -0.522374       -14.2145 
  72   2.0000      -0.511305       -13.9133 
  73   2.0000      -0.499664       -13.5965 
  74   2.0000      -0.473377       -12.8812 
  75   2.0000      -0.460892       -12.5415 
  76   2.0000      -0.446292       -12.1442 
  77   2.0000      -0.444845       -12.1048 
  78   2.0000      -0.443839       -12.0775 
  79   2.0000      -0.436478       -11.8772 
  80   2.0000      -0.434745       -11.8300 
  81   2.0000      -0.418235       -11.3807 
  82   2.0000      -0.401255       -10.9187 
  83   2.0000      -0.397274       -10.8104 
  84   2.0000      -0.389453       -10.5975 
  85   2.0000      -0.381005       -10.3677 
  86   2.0000      -0.372030       -10.1234 
  87   2.0000      -0.367969       -10.0130 
  88   2.0000      -0.354351        -9.6424 
  89   2.0000      -0.333381        -9.0718 
  90   2.0000      -0.328717        -8.9448 
  91   2.0000      -0.326038        -8.8719 
  92   2.0000      -0.324172        -8.8212 
  93   2.0000      -0.320361        -8.7175 
  94   2.0000      -0.318405        -8.6642 
  95   2.0000      -0.310583        -8.4514 
  96   2.0000      -0.307349        -8.3634 
  97   2.0000      -0.303842        -8.2680 
  98   2.0000      -0.301756        -8.2112 
  99   2.0000      -0.289981        -7.8908 
 100   2.0000      -0.284934        -7.7534 
 101   2.0000      -0.260417        -7.0863 
 102   2.0000      -0.249849        -6.7988 
 103   2.0000      -0.245245        -6.6735 
 104   2.0000      -0.241378        -6.5682 
 105   0.0000      -0.089798        -2.4435 
 106   0.0000      -0.081067        -2.2059 
 107   0.0000      -0.073645        -2.0040 
 108   0.0000      -0.068812        -1.8725 
 109   0.0000      -0.065392        -1.7794 
 110   0.0000      -0.054146        -1.4734 
 111   0.0000      -0.003805        -0.1036 
 112   0.0000      -0.001868        -0.0508 
 113   0.0000       0.012041         0.3277 
 114   0.0000       0.031517         0.8576 
 115   0.0000       0.034728         0.9450 
*Only the first 10 virtual orbitals were printed.

                    ********************************
                    * MULLIKEN POPULATION ANALYSIS *
                    ********************************

-----------------------
MULLIKEN ATOMIC CHARGES
-----------------------
   0 C :   -0.266061
   1 C :    0.100739
   2 C :    0.074028
   3 C :    0.015392
   4 C :    0.076254
   5 C :    0.106266
   6 Cl:   -0.088459
   7 Cl:   -0.062173
   8 Cl:   -0.062078
   9 Cl:   -0.064343
  10 C :    0.081729
  11 C :    0.198055
  12 C :   -0.410655
  13 C :    0.192657
  14 C :   -0.019155
  15 C :    0.064795
  16 Cl:   -0.059157
  17 Cl:   -0.064534
  18 Cl:   -0.081675
  19 Cl:   -0.087160
  20 H :    0.176314
  21 H :    0.179222
Sum of atomic charges:   -0.0000000

--------------------------------
MULLIKEN REDUCED ORBITAL CHARGES
--------------------------------
  0 C s       :     3.183489  s :     3.183489
      pz      :     1.040488  p :     3.045766
      px      :     0.991744
      py      :     1.013534
      dz2     :     0.006437  d :     0.036806
      dxz     :     0.009134
      dyz     :     0.005242
      dx2y2   :     0.008065
      dxy     :     0.007928

  1 C s       :     3.143859  s :     3.143859
      pz      :     1.002434  p :     2.707270
      px      :     0.730236
      py      :     0.974600
      dz2     :     0.009644  d :     0.048132
      dxz     :     0.011521
      dyz     :     0.007092
      dx2y2   :     0.010010
      dxy     :     0.009864

  2 C s       :     3.257775  s :     3.257775
      pz      :     0.849203  p :     2.614040
      px      :     0.802548
      py      :     0.962289
      dz2     :     0.010868  d :     0.054156
      dxz     :     0.012627
      dyz     :     0.007810
      dx2y2   :     0.011755
      dxy     :     0.011096

  3 C s       :     3.329101  s :     3.329101
      pz      :     0.872091  p :     2.601949
      px      :     0.813515
      py      :     0.916343
      dz2     :     0.010814  d :     0.053558
      dxz     :     0.012904
      dyz     :     0.007567
      dx2y2   :     0.011110
      dxy     :     0.011162

  4 C s       :     3.263197  s :     3.263197
      pz      :     0.911516  p :     2.607112
      px      :     0.732644
      py      :     0.962951
      dz2     :     0.009991  d :     0.053437
      dxz     :     0.013799
      dyz     :     0.006826
      dx2y2   :     0.010830
      dxy     :     0.011991

  5 C s       :     3.198689  s :     3.198689
      pz      :     0.830084  p :     2.640545
      px      :     0.905758
      py      :     0.904703
      dz2     :     0.010566  d :     0.054500
      dxz     :     0.014193
      dyz     :     0.007540
      dx2y2   :     0.010538
      dxy     :     0.011663

  6 Cls       :     5.946103  s :     5.946103
      pz      :     3.558632  p :    11.084635
      px      :     3.783812
      py      :     3.742191
      dz2     :     0.015189  d :     0.057721
      dxz     :     0.013034
      dyz     :     0.012567
      dx2y2   :     0.006855
      dxy     :     0.010076

  7 Cls       :     5.949435  s :     5.949435
      pz      :     3.924814  p :    11.053057
      px      :     3.211284
      py      :     3.916958
      dz2     :     0.007207  d :     0.059682
      dxz     :     0.015010
      dyz     :     0.002954
      dx2y2   :     0.017950
      dxy     :     0.016561

  8 Cls       :     5.950127  s :     5.950127
      pz      :     3.627797  p :    11.052474
      px      :     3.750513
      py      :     3.674164
      dz2     :     0.012840  d :     0.059477
      dxz     :     0.013332
      dyz     :     0.012034
      dx2y2   :     0.010414
      dxy     :     0.010857

  9 Cls       :     5.953902  s :     5.953902
      pz      :     3.569410  p :    11.050421
      px      :     3.764513
      py      :     3.716499
      dz2     :     0.016110  d :     0.060020
      dxz     :     0.012209
      dyz     :     0.012775
      dx2y2   :     0.008667
      dxy     :     0.010259

 10 C s       :     3.215856  s :     3.215856
      pz      :     0.924787  p :     2.655821
      px      :     0.749633
      py      :     0.981401
      dz2     :     0.009545  d :     0.046594
      dxz     :     0.012376
      dyz     :     0.006732
      dx2y2   :     0.008625
      dxy     :     0.009316

 11 C s       :     3.158662  s :     3.158662
      pz      :     0.806638  p :     2.587838
      px      :     0.858409
      py      :     0.922792
      dz2     :     0.011297  d :     0.055445
      dxz     :     0.014814
      dyz     :     0.007572
      dx2y2   :     0.010518
      dxy     :     0.011245

 12 C s       :     3.260334  s :     3.260334
      pz      :     1.045193  p :     3.114723
      px      :     1.037444
      py      :     1.032086
      dz2     :     0.006153  d :     0.035598
      dxz     :     0.009685
      dyz     :     0.004473
      dx2y2   :     0.007458
      dxy     :     0.007829

 13 C s       :     3.133996  s :     3.133996
      pz      :     0.920308  p :     2.618433
      px      :     0.724908
      py      :     0.973216
      dz2     :     0.011426  d :     0.054914
      dxz     :     0.014187
      dyz     :     0.007140
      dx2y2   :     0.011031
      dxy     :     0.011129

 14 C s       :     3.298916  s :     3.298916
      pz      :     0.886297  p :     2.667322
      px      :     0.803638
      py      :     0.977387
      dz2     :     0.011356  d :     0.052918
      dxz     :     0.013375
      dyz     :     0.007556
      dx2y2   :     0.010439
      dxy     :     0.010192

 15 C s       :     3.313709  s :     3.313709
      pz      :     0.804899  p :     2.566836
      px      :     0.820992
      py      :     0.940944
      dz2     :     0.011725  d :     0.054660
      dxz     :     0.013601
      dyz     :     0.007726
      dx2y2   :     0.010863
      dxy     :     0.010744

 16 Cls       :     5.952725  s :     5.952725
      pz      :     3.520264  p :    11.047458
      px      :     3.817689
      py      :     3.709506
      dz2     :     0.016637  d :     0.058973
      dxz     :     0.011869
      dyz     :     0.013877
      dx2y2   :     0.008673
      dxy     :     0.007918

 17 Cls       :     5.948836  s :     5.948836
      pz      :     3.597049  p :    11.056273
      px      :     3.688152
      py      :     3.771073
      dz2     :     0.013237  d :     0.059425
      dxz     :     0.015599
      dyz     :     0.010828
      dx2y2   :     0.008657
      dxy     :     0.011104

 18 Cls       :     5.947348  s :     5.947348
      pz      :     3.934446  p :    11.076673
      px      :     3.221060
      py      :     3.921167
      dz2     :     0.007080  d :     0.057653
      dxz     :     0.014270
      dyz     :     0.001848
      dx2y2   :     0.017427
      dxy     :     0.017029

 19 Cls       :     5.950840  s :     5.950840
      pz      :     3.609162  p :    11.078643
      px      :     3.699914
      py      :     3.769567
      dz2     :     0.012962  d :     0.057678
      dxz     :     0.014607
      dyz     :     0.010995
      dx2y2   :     0.007876
      dxy     :     0.011237

 20 H s       :     0.803711  s :     0.803711
      pz      :     0.007504  p :     0.019974
      px      :     0.005487
      py      :     0.006984

 21 H s       :     0.800734  s :     0.800734
      pz      :     0.009077  p :     0.020045
      px      :     0.004558
      py      :     0.006409


------------------------
MULLIKEN OVERLAP CHARGES
------------------------
B(  0-C ,  1-C ) :  -0.4283 B(  0-C ,  3-C ) :  -0.7105 B(  0-C ,  4-C ) :   0.4876 
B(  0-C ,  5-C ) :  -0.4614 B(  0-C ,  6-Cl) :  -0.1167 B(  0-C ,  9-Cl) :   0.0530 
B(  0-C , 10-C ) :  -0.1848 B(  0-C , 15-C ) :   0.0771 B(  0-C , 16-Cl) :  -0.0567 
B(  0-C , 20-H ) :   0.7976 B(  1-C ,  2-C ) :  -0.6606 B(  1-C ,  3-C ) :   0.3970 
B(  1-C ,  4-C ) :  -0.5689 B(  1-C ,  5-C ) :   0.4966 B(  1-C ,  9-Cl) :  -0.4532 
B(  1-C , 10-C ) :  -0.4061 B(  1-C , 11-C ) :  -0.4336 B(  1-C , 12-C ) :   0.1370 
B(  1-C , 14-C ) :   0.1480 B(  1-C , 15-C ) :  -0.4453 B(  1-C , 16-Cl) :   0.0934 
B(  1-C , 19-Cl) :   0.0544 B(  1-C , 20-H ) :  -0.0752 B(  2-C ,  3-C ) :  -1.2289 
B(  2-C ,  4-C ) :   0.3119 B(  2-C ,  5-C ) :  -0.3094 B(  2-C ,  8-Cl) :  -0.3357 
B(  2-C ,  9-Cl) :   1.0090 B(  2-C , 10-C ) :  -0.1998 B(  2-C , 15-C ) :   0.0515 
B(  3-C ,  4-C ) :  -0.9547 B(  3-C ,  5-C ) :   0.4323 B(  3-C ,  7-Cl) :  -0.3140 
B(  3-C ,  8-Cl) :   1.0046 B(  3-C ,  9-Cl) :  -0.3099 B(  3-C , 10-C ) :   0.0697 
B(  4-C ,  5-C ) :  -0.3610 B(  4-C ,  6-Cl) :  -0.2679 B(  4-C ,  7-Cl) :   0.9504 
B(  4-C ,  8-Cl) :  -0.3234 B(  5-C ,  6-Cl) :   0.7036 B(  5-C ,  7-Cl) :  -0.2870 
B(  9-Cl, 10-C ) :   0.0839 B( 10-C , 11-C ) :  -0.1835 B( 10-C , 12-C ) :   0.2888 
B( 10-C , 13-C ) :  -0.6489 B( 10-C , 14-C ) :   0.2532 B( 10-C , 15-C ) :  -1.7867 
B( 10-C , 16-Cl) :  -0.4111 B( 10-C , 17-Cl) :   0.0559 B( 10-C , 19-Cl) :  -0.3167 
B( 11-C , 12-C ) :  -0.1436 B( 11-C , 13-C ) :   0.2273 B( 11-C , 14-C ) :  -0.4096 
B( 11-C , 15-C ) :  -0.1136 B( 11-C , 16-Cl) :   0.0744 B( 11-C , 19-Cl) :   0.6187 
B( 12-C , 14-C ) :   0.3424 B( 12-C , 15-C ) :  -0.9154 B( 12-C , 18-Cl) :  -0.0948 
B( 12-C , 19-Cl) :  -0.0886 B( 12-C , 21-H ) :   0.7579 B( 13-C , 14-C ) :  -0.4076 
B( 13-C , 15-C ) :   0.6165 B( 13-C , 16-Cl) :   0.0674 B( 13-C , 17-Cl) :  -0.3014 
B( 13-C , 18-Cl) :   0.6655 B( 13-C , 19-Cl) :   0.0500 B( 14-C , 15-C ) :  -1.2661 
B( 14-C , 16-Cl) :  -0.2939 B( 14-C , 17-Cl) :   0.9457 B( 14-C , 18-Cl) :  -0.2454 
B( 15-C , 16-Cl) :   0.9487 B( 15-C , 17-Cl) :  -0.3058 B( 15-C , 19-Cl) :   0.0572 



                     *******************************
                     * LOEWDIN POPULATION ANALYSIS *
                     *******************************

----------------------
LOEWDIN ATOMIC CHARGES
----------------------
   0 C :   -0.136471
   1 C :   -0.096191
   2 C :   -0.167168
   3 C :   -0.187406
   4 C :   -0.190736
   5 C :   -0.178415
   6 Cl:    0.173302
   7 Cl:    0.187923
   8 Cl:    0.188735
   9 Cl:    0.201105
  10 C :   -0.105798
  11 C :   -0.146058
  12 C :   -0.171033
  13 C :   -0.171064
  14 C :   -0.198809
  15 C :   -0.150375
  16 Cl:    0.206104
  17 Cl:    0.183758
  18 Cl:    0.179468
  19 Cl:    0.192909
  20 H :    0.193207
  21 H :    0.193013

-------------------------------
LOEWDIN REDUCED ORBITAL CHARGES
-------------------------------
  0 C s       :     2.894440  s :     2.894440
      pz      :     1.056379  p :     3.160059
      px      :     1.064926
      py      :     1.038754
      dz2     :     0.013592  d :     0.081972
      dxz     :     0.021572
      dyz     :     0.010810
      dx2y2   :     0.018395
      dxy     :     0.017604

  1 C s       :     2.850639  s :     2.850639
      pz      :     1.072684  p :     3.144332
      px      :     1.033102
      py      :     1.038546
      dz2     :     0.019628  d :     0.101220
      dxz     :     0.024797
      dyz     :     0.015042
      dx2y2   :     0.021334
      dxy     :     0.020419

  2 C s       :     2.885736  s :     2.885736
      pz      :     1.040344  p :     3.163715
      px      :     1.073421
      py      :     1.049950
      dz2     :     0.022372  d :     0.117717
      dxz     :     0.028235
      dyz     :     0.017569
      dx2y2   :     0.026144
      dxy     :     0.023397

  3 C s       :     2.892551  s :     2.892551
      pz      :     1.049212  p :     3.177984
      px      :     1.087252
      py      :     1.041520
      dz2     :     0.022574  d :     0.116871
      dxz     :     0.028462
      dyz     :     0.017225
      dx2y2   :     0.024647
      dxy     :     0.023963

  4 C s       :     2.893528  s :     2.893528
      pz      :     1.084342  p :     3.180620
      px      :     1.025320
      py      :     1.070957
      dz2     :     0.020604  d :     0.116588
      dxz     :     0.031405
      dyz     :     0.014225
      dx2y2   :     0.024467
      dxy     :     0.025886

  5 C s       :     2.890940  s :     2.890940
      pz      :     1.028218  p :     3.169670
      px      :     1.106592
      py      :     1.034860
      dz2     :     0.021736  d :     0.117804
      dxz     :     0.031464
      dyz     :     0.017183
      dx2y2   :     0.023094
      dxy     :     0.024327

  6 Cls       :     5.639382  s :     5.639382
      pz      :     3.570974  p :    11.067611
      px      :     3.763559
      py      :     3.733078
      dz2     :     0.027600  d :     0.119705
      dxz     :     0.029645
      dyz     :     0.028775
      dx2y2   :     0.012761
      dxy     :     0.020924

  7 Cls       :     5.640190  s :     5.640190
      pz      :     3.895081  p :    11.048848
      px      :     3.265026
      py      :     3.888740
      dz2     :     0.017084  d :     0.123040
      dxz     :     0.026189
      dyz     :     0.005710
      dx2y2   :     0.045073
      dxy     :     0.028984

  8 Cls       :     5.639899  s :     5.639899
      pz      :     3.633205  p :    11.048151
      px      :     3.739889
      py      :     3.675057
      dz2     :     0.022463  d :     0.123215
      dxz     :     0.030033
      dyz     :     0.028291
      dx2y2   :     0.018387
      dxy     :     0.024041

  9 Cls       :     5.633311  s :     5.633311
      pz      :     3.580283  p :    11.041314
      px      :     3.744919
      py      :     3.716112
      dz2     :     0.028990  d :     0.124270
      dxz     :     0.028616
      dyz     :     0.029695
      dx2y2   :     0.015922
      dxy     :     0.021047

 10 C s       :     2.852081  s :     2.852081
      pz      :     1.068562  p :     3.154562
      px      :     1.043349
      py      :     1.042650
      dz2     :     0.020005  d :     0.099155
      dxz     :     0.027531
      dyz     :     0.014378
      dx2y2   :     0.018335
      dxy     :     0.018907

 11 C s       :     2.884601  s :     2.884601
      pz      :     1.031677  p :     3.142463
      px      :     1.084753
      py      :     1.026033
      dz2     :     0.023902  d :     0.118993
      dxz     :     0.032563
      dyz     :     0.016592
      dx2y2   :     0.022995
      dxy     :     0.022941

 12 C s       :     2.902919  s :     2.902919
      pz      :     1.073071  p :     3.187948
      px      :     1.076518
      py      :     1.038360
      dz2     :     0.013548  d :     0.080165
      dxz     :     0.023241
      dyz     :     0.009291
      dx2y2   :     0.017139
      dxy     :     0.016946

 13 C s       :     2.891796  s :     2.891796
      pz      :     1.087211  p :     3.160916
      px      :     1.024256
      py      :     1.049450
      dz2     :     0.023718  d :     0.118352
      dxz     :     0.032312
      dyz     :     0.014511
      dx2y2   :     0.024650
      dxy     :     0.023161

 14 C s       :     2.892943  s :     2.892943
      pz      :     1.055166  p :     3.190116
      px      :     1.078290
      py      :     1.056660
      dz2     :     0.024344  d :     0.115750
      dxz     :     0.030038
      dyz     :     0.016815
      dx2y2   :     0.023479
      dxy     :     0.021074

 15 C s       :     2.884657  s :     2.884657
      pz      :     1.035830  p :     3.147314
      px      :     1.080931
      py      :     1.030553
      dz2     :     0.024675  d :     0.118404
      dxz     :     0.030597
      dyz     :     0.017070
      dx2y2   :     0.023667
      dxy     :     0.022394

 16 Cls       :     5.634880  s :     5.634880
      pz      :     3.536909  p :    11.036731
      px      :     3.788497
      py      :     3.711324
      dz2     :     0.030839  d :     0.122286
      dxz     :     0.026787
      dyz     :     0.033027
      dx2y2   :     0.015596
      dxy     :     0.016037

 17 Cls       :     5.640736  s :     5.640736
      pz      :     3.605542  p :    11.052184
      px      :     3.685408
      py      :     3.761234
      dz2     :     0.023853  d :     0.123323
      dxz     :     0.036875
      dyz     :     0.023635
      dx2y2   :     0.015421
      dxy     :     0.023539

 18 Cls       :     5.639422  s :     5.639422
      pz      :     3.897787  p :    11.061939
      px      :     3.274446
      py      :     3.889705
      dz2     :     0.016457  d :     0.119171
      dxz     :     0.025855
      dyz     :     0.003452
      dx2y2   :     0.043418
      dxy     :     0.029989

 19 Cls       :     5.633683  s :     5.633683
      pz      :     3.612022  p :    11.053870
      px      :     3.681084
      py      :     3.760764
      dz2     :     0.023137  d :     0.119538
      dxz     :     0.034376
      dyz     :     0.024077
      dx2y2   :     0.015372
      dxy     :     0.022576

 20 H s       :     0.760587  s :     0.760587
      pz      :     0.017403  p :     0.046206
      px      :     0.012543
      py      :     0.016260

 21 H s       :     0.760333  s :     0.760333
      pz      :     0.021491  p :     0.046654
      px      :     0.010169
      py      :     0.014994


---------------------------------
LOEWDIN BOND ORDERS (THRESH 0.050000)
---------------------------------
B(  0-C ,  1-C ) :   1.4130 B(  0-C ,  2-C ) :   0.0888 B(  0-C ,  3-C ) :   0.1036 
B(  0-C ,  4-C ) :   0.0928 B(  0-C ,  5-C ) :   1.4231 B(  0-C ,  6-Cl) :   0.1588 
B(  0-C , 10-C ) :   0.0874 B(  0-C , 20-H ) :   0.8513 B(  1-C ,  2-C ) :   1.3401 
B(  1-C ,  3-C ) :   0.0928 B(  1-C ,  4-C ) :   0.0999 B(  1-C ,  5-C ) :   0.0966 
B(  1-C ,  9-Cl) :   0.1489 B(  1-C , 10-C ) :   1.0092 B(  1-C , 11-C ) :   0.0813 
B(  1-C , 15-C ) :   0.0829 B(  1-C , 16-Cl) :   0.0514 B(  1-C , 20-H ) :   0.0513 
B(  2-C ,  3-C ) :   1.3450 B(  2-C ,  4-C ) :   0.0931 B(  2-C ,  5-C ) :   0.0972 
B(  2-C ,  8-Cl) :   0.1498 B(  2-C ,  9-Cl) :   1.4144 B(  2-C , 10-C ) :   0.0827 
B(  3-C ,  4-C ) :   1.3443 B(  3-C ,  5-C ) :   0.0927 B(  3-C ,  7-Cl) :   0.1499 
B(  3-C ,  8-Cl) :   1.4320 B(  3-C ,  9-Cl) :   0.1490 B(  4-C ,  5-C ) :   1.3389 
B(  4-C ,  6-Cl) :   0.1502 B(  4-C ,  7-Cl) :   1.4344 B(  4-C ,  8-Cl) :   0.1498 
B(  5-C ,  6-Cl) :   1.4322 B(  5-C ,  7-Cl) :   0.1475 B(  5-C , 20-H ) :   0.0515 
B(  6-Cl,  7-Cl) :   0.0584 B(  7-Cl,  8-Cl) :   0.0616 B(  8-Cl,  9-Cl) :   0.0609 
B( 10-C , 11-C ) :   1.3379 B( 10-C , 12-C ) :   0.0904 B( 10-C , 13-C ) :   0.1000 
B( 10-C , 14-C ) :   0.0924 B( 10-C , 15-C ) :   1.3481 B( 10-C , 16-Cl) :   0.1500 
B( 10-C , 19-Cl) :   0.1501 B( 11-C , 12-C ) :   1.4264 B( 11-C , 13-C ) :   0.0977 
B( 11-C , 14-C ) :   0.0975 B( 11-C , 15-C ) :   0.0906 B( 11-C , 19-Cl) :   1.4139 
B( 11-C , 21-H ) :   0.0528 B( 12-C , 13-C ) :   1.4225 B( 12-C , 14-C ) :   0.0919 
B( 12-C , 15-C ) :   0.1040 B( 12-C , 18-Cl) :   0.1589 B( 12-C , 19-Cl) :   0.1581 
B( 12-C , 21-H ) :   0.8574 B( 13-C , 14-C ) :   1.3400 B( 13-C , 15-C ) :   0.0937 
B( 13-C , 17-Cl) :   0.1477 B( 13-C , 18-Cl) :   1.4352 B( 13-C , 21-H ) :   0.0521 
B( 14-C , 15-C ) :   1.3438 B( 14-C , 16-Cl) :   0.1493 B( 14-C , 17-Cl) :   1.4315 
B( 14-C , 18-Cl) :   0.1504 B( 15-C , 16-Cl) :   1.4148 B( 15-C , 17-Cl) :   0.1496 
B( 16-Cl, 17-Cl) :   0.0605 B( 17-Cl, 18-Cl) :   0.0583 

------------------------------------------
LOEWDIN REDUCED ORBITAL POPULATIONS PER MO
-------------------------------------------
THRESHOLD FOR PRINTING IS 0.1%%
                      0         1         2         3         4         5   
                 -101.24889 -101.24779 -101.24613 -101.24595 -101.24490 -101.24472
                   2.00000   2.00000   2.00000   2.00000   2.00000   2.00000
                  --------  --------  --------  --------  --------  --------
 7 Cl s               0.0       0.0       0.0       0.0     100.0       0.0
 8 Cl s               0.0       0.0       0.0       0.0       0.0     100.0
16 Cl s             100.0       0.0       0.0       0.0       0.0       0.0
17 Cl s               0.0       0.0     100.0       0.0       0.0       0.0
18 Cl s               0.0     100.0       0.0       0.0       0.0       0.0
19 Cl s               0.0       0.0       0.0     100.0       0.0       0.0

                      6         7         8         9        10        11   
                 -101.24409 -101.24320 -10.14344 -10.14172 -10.14018 -10.13958
                   2.00000   2.00000   2.00000   2.00000   2.00000   2.00000
                  --------  --------  --------  --------  --------  --------
 2 C  s               0.0       0.0       0.0       0.0       0.2       0.1
 2 C  px              0.0       0.0       0.0       0.0       0.1       0.0
 3 C  s               0.0       0.0       0.0       0.0      84.7      14.6
 4 C  s               0.0       0.0       0.0       0.0      14.6      84.8
 5 C  s               0.0       0.0       0.0       0.0       0.0       0.2
 6 Cl s               0.0     100.0       0.0       0.0       0.0       0.0
 9 Cl s             100.0       0.0       0.0       0.0       0.0       0.0
13 C  s               0.0       0.0       0.0      98.7       0.0       0.0
14 C  s               0.0       0.0       0.3       0.8       0.0       0.0
14 C  px              0.0       0.0       0.1       0.0       0.0       0.0
15 C  s               0.0       0.0      99.2       0.0       0.0       0.0

                     12        13        14        15        16        17   
                 -10.13937 -10.13761 -10.13595 -10.13482 -10.09999 -10.09713
                   2.00000   2.00000   2.00000   2.00000   2.00000   2.00000
                  --------  --------  --------  --------  --------  --------
 0 C  px              0.0       0.0       0.0       0.1       0.0       0.0
 1 C  s               0.0       0.0       0.0       0.0       0.1      99.4
 2 C  s               0.0       0.0      99.3       0.0       0.0       0.0
 3 C  s               0.0       0.0       0.3       0.0       0.0       0.0
 3 C  px              0.0       0.0       0.1       0.0       0.0       0.0
 4 C  s               0.0       0.0       0.0       0.2       0.0       0.0
 5 C  s               0.0       0.0       0.0      99.3       0.0       0.0
10 C  s               0.0       0.0       0.0       0.0      99.4       0.1
11 C  s               0.0      99.5       0.0       0.0       0.0       0.0
12 C  px              0.0       0.1       0.0       0.0       0.0       0.0
13 C  s               0.8       0.0       0.0       0.0       0.0       0.0
14 C  s              98.5       0.0       0.0       0.0       0.0       0.0
15 C  s               0.3       0.0       0.0       0.0       0.0       0.0
15 C  px              0.1       0.0       0.0       0.0       0.0       0.0

                     18        19        20        21        22        23   
                 -10.08464 -10.08186  -9.40467  -9.40362  -9.40189  -9.40177
                   2.00000   2.00000   2.00000   2.00000   2.00000   2.00000
                  --------  --------  --------  --------  --------  --------
 0 C  s               0.0      99.6       0.0       0.0       0.0       0.0
 5 C  px              0.0       0.1       0.0       0.0       0.0       0.0
11 C  px              0.1       0.0       0.0       0.0       0.1       0.0
12 C  s              99.6       0.0       0.0       0.0       0.0       0.0
13 C  px              0.0       0.0       0.0       0.2       0.0       0.0
16 Cl s               0.0       0.0      99.8       0.0       0.0       0.0
17 Cl s               0.0       0.0       0.0       0.0       0.0      99.8
18 Cl s               0.0       0.0       0.0      99.8       0.0       0.0
19 Cl s               0.0       0.0       0.0       0.0      99.8       0.0

                     24        25        26        27        28        29   
                  -9.40057  -9.40040  -9.39991  -9.39903  -7.15126  -7.15017
                   2.00000   2.00000   2.00000   2.00000   2.00000   2.00000
                  --------  --------  --------  --------  --------  --------
 4 C  px              0.2       0.0       0.0       0.0       0.0       0.0
 6 Cl s               0.0       0.0       0.0      99.8       0.0       0.0
 7 Cl s              99.8       0.0       0.0       0.0       0.0       0.0
 8 Cl s               0.0      99.8       0.0       0.0       0.0       0.0
 9 Cl s               0.0       0.0      99.8       0.0       0.0       0.0
16 Cl pz              0.0       0.0       0.0       0.0      55.7       0.0
16 Cl px              0.0       0.0       0.0       0.0      16.8       0.0
16 Cl py              0.0       0.0       0.0       0.0      27.5       0.0
18 Cl pz              0.0       0.0       0.0       0.0       0.0       0.9
18 Cl px              0.0       0.0       0.0       0.0       0.0      98.5
18 Cl py              0.0       0.0       0.0       0.0       0.0       0.5

                     30        31        32        33        34        35   
                  -7.14848  -7.14831  -7.14728  -7.14711  -7.14648  -7.14556
                   2.00000   2.00000   2.00000   2.00000   2.00000   2.00000
                  --------  --------  --------  --------  --------  --------
 6 Cl pz              0.0       0.0       0.0       0.0       0.0      51.9
 6 Cl px              0.0       0.0       0.0       0.0       0.0      22.2
 6 Cl py              0.0       0.0       0.0       0.0       0.0      25.9
 7 Cl pz              0.0       0.0       0.5       0.0       0.0       0.0
 7 Cl px              0.0       0.0      99.0       0.0       0.0       0.0
 7 Cl py              0.0       0.0       0.5       0.0       0.0       0.0
 8 Cl pz              0.0       0.0       0.0      40.8       0.0       0.0
 8 Cl px              0.0       0.0       0.0      25.8       0.0       0.0
 8 Cl py              0.0       0.0       0.0      33.4       0.0       0.0
 9 Cl pz              0.0       0.0       0.0       0.0      48.9       0.0
 9 Cl px              0.0       0.0       0.0       0.0      23.9       0.0
 9 Cl py              0.0       0.0       0.0       0.0      27.2       0.0
17 Cl pz             45.5       0.0       0.0       0.0       0.0       0.0
17 Cl px             34.4       0.0       0.0       0.0       0.0       0.0
17 Cl py             20.1       0.0       0.0       0.0       0.0       0.0
19 Cl pz              0.0      45.5       0.0       0.0       0.0       0.0
19 Cl px              0.0      33.7       0.0       0.0       0.0       0.0
19 Cl py              0.0      20.8       0.0       0.0       0.0       0.0

                     36        37        38        39        40        41   
                  -7.14103  -7.13998  -7.13990  -7.13905  -7.13811  -7.13806
                   2.00000   2.00000   2.00000   2.00000   2.00000   2.00000
                  --------  --------  --------  --------  --------  --------
16 Cl pz             32.3      12.0       0.0       0.0       0.0       0.0
16 Cl px              0.0      83.2       0.0       0.0       0.0       0.0
16 Cl py             67.7       4.8       0.0       0.0       0.0       0.0
17 Cl pz              0.0       0.0       0.0       0.0       0.0      31.3
17 Cl py              0.0       0.0       0.0       0.0       0.0      68.7
18 Cl pz              0.0       0.0      30.8      68.3       0.0       0.0
18 Cl px              0.0       0.0       0.0       1.4       0.0       0.0
18 Cl py              0.0       0.0      69.2      30.3       0.0       0.0
19 Cl pz              0.0       0.0       0.0       0.0      31.6       0.0
19 Cl py              0.0       0.0       0.0       0.0      68.4       0.0

                     42        43        44        45        46        47   
                  -7.13748  -7.13704  -7.13690  -7.13672  -7.13616  -7.13580
                   2.00000   2.00000   2.00000   2.00000   2.00000   2.00000
                  --------  --------  --------  --------  --------  --------
 7 Cl pz              0.0       0.0      38.3       0.0       0.0      61.2
 7 Cl px              0.0       0.0       1.0       0.0       0.0       0.0
 7 Cl py              0.0       0.0      60.7       0.0       0.0      38.8
 8 Cl pz              0.0       0.0       0.0      38.8       0.0       0.0
 8 Cl px              0.0       0.0       0.0       1.0       0.0       0.0
 8 Cl py              0.0       0.0       0.0      60.2       0.0       0.0
 9 Cl pz              0.0       0.0       0.0       0.0      40.6       0.0
 9 Cl px              0.0       0.0       0.0       0.0       0.9       0.0
 9 Cl py              0.0       0.0       0.0       0.0      58.5       0.0
17 Cl pz              0.0      23.2       0.0       0.0       0.0       0.0
17 Cl px              0.0      65.6       0.0       0.0       0.0       0.0
17 Cl py              0.0      11.2       0.0       0.0       0.0       0.0
19 Cl pz             23.0       0.0       0.0       0.0       0.0       0.0
19 Cl px             66.3       0.0       0.0       0.0       0.0       0.0
19 Cl py             10.8       0.0       0.0       0.0       0.0       0.0

                     48        49        50        51        52        53   
                  -7.13564  -7.13532  -7.13528  -7.13450  -0.93535  -0.92552
                   2.00000   2.00000   2.00000   2.00000   2.00000   2.00000
                  --------  --------  --------  --------  --------  --------
 0 C  s               0.0       0.0       0.0       0.0       2.9       1.9
 0 C  pz              0.0       0.0       0.0       0.0       0.4       0.1
 0 C  px              0.0       0.0       0.0       0.0       0.1       1.1
 0 C  py              0.0       0.0       0.0       0.0       0.4       0.1
 1 C  s               0.0       0.0       0.0       0.0       5.9       0.9
 1 C  px              0.0       0.0       0.0       0.0       0.0       2.4
 2 C  s               0.0       0.0       0.0       0.0       6.6       4.9
 2 C  px              0.0       0.0       0.0       0.0       0.0       0.9
 3 C  s               0.0       0.0       0.0       0.0       6.5       9.3
 3 C  dyz             0.0       0.0       0.0       0.0       0.1       0.1
 4 C  s               0.0       0.0       0.0       0.0       5.5       9.8
 4 C  px              0.0       0.0       0.0       0.0       0.1       0.0
 5 C  s               0.0       0.0       0.0       0.0       4.0       6.1
 5 C  pz              0.0       0.0       0.0       0.0       0.2       0.2
 5 C  px              0.0       0.0       0.0       0.0       0.0       0.3
 5 C  py              0.0       0.0       0.0       0.0       0.1       0.2
 6 Cl s               0.0       0.0       0.0       0.0       1.3       2.7
 6 Cl pz              0.0       0.0      38.1       9.9       0.2       0.3
 6 Cl px              0.0       0.0       1.1      76.7       0.1       0.1
 6 Cl py              0.0       0.0      60.8      13.3       0.1       0.2
 7 Cl s               0.0       0.0       0.0       0.0       2.1       4.7
 7 Cl px              0.0       0.0       0.0       0.0       0.5       0.9
 7 Cl dx2y2           0.0       0.0       0.0       0.0       0.1       0.2
 8 Cl s               0.0       0.0       0.0       0.0       2.5       4.5
 8 Cl pz             20.4       0.0       0.0       0.0       0.2       0.4
 8 Cl px             73.2       0.0       0.0       0.0       0.2       0.2
 8 Cl py              6.4       0.0       0.0       0.0       0.2       0.3
 8 Cl dyz             0.0       0.0       0.0       0.0       0.1       0.1
 9 Cl s               0.0       0.0       0.0       0.0       2.7       2.0
 9 Cl pz              0.0      10.5       0.0       0.0       0.3       0.2
 9 Cl px              0.0      75.2       0.0       0.0       0.2       0.2
 9 Cl py              0.0      14.3       0.0       0.0       0.2       0.1
10 C  s               0.0       0.0       0.0       0.0       7.5       1.4
10 C  px              0.0       0.0       0.0       0.0       0.1       2.0
11 C  s               0.0       0.0       0.0       0.0       5.5       2.2
11 C  pz              0.0       0.0       0.0       0.0       0.2       0.1
11 C  px              0.0       0.0       0.0       0.0       0.0       0.3
11 C  py              0.0       0.0       0.0       0.0       0.1       0.0
12 C  s               0.0       0.0       0.0       0.0       3.4       2.7
12 C  pz              0.0       0.0       0.0       0.0       0.6       0.6
12 C  px              0.0       0.0       0.0       0.0       0.2       0.0
12 C  py              0.0       0.0       0.0       0.0       0.3       0.3
13 C  s               0.0       0.0       0.0       0.0       5.7       6.4
13 C  pz              0.0       0.0       0.0       0.0       0.1       0.2
13 C  px              0.0       0.0       0.0       0.0       0.1       0.0
14 C  s               0.0       0.0       0.0       0.0       7.7       7.9
14 C  px              0.0       0.0       0.0       0.0       0.1       0.0
15 C  s               0.0       0.0       0.0       0.0       8.5       5.3
15 C  px              0.0       0.0       0.0       0.0       0.0       0.6
16 Cl s               0.0       0.0       0.0       0.0       3.7       2.5
16 Cl pz              0.0       0.0       0.0       0.0       0.4       0.2
16 Cl px              0.0       0.0       0.0       0.0       0.2       0.1
16 Cl py              0.0       0.0       0.0       0.0       0.2       0.1
17 Cl s               0.0       0.0       0.0       0.0       3.0       3.9
17 Cl pz              0.0       0.0       0.0       0.0       0.3       0.3
17 Cl px              0.0       0.0       0.0       0.0       0.3       0.3
17 Cl py              0.0       0.0       0.0       0.0       0.1       0.2
18 Cl s               0.0       0.0       0.0       0.0       2.1       3.1
18 Cl px              0.0       0.0       0.0       0.0       0.5       0.6
18 Cl dx2y2           0.0       0.0       0.0       0.0       0.1       0.1
19 Cl s               0.0       0.0       0.0       0.0       2.1       0.7
19 Cl pz              0.0       0.0       0.0       0.0       0.2       0.1
19 Cl px              0.0       0.0       0.0       0.0       0.1       0.1
19 Cl py              0.0       0.0       0.0       0.0       0.1       0.0
20 H  s               0.0       0.0       0.0       0.0       0.2       0.2
21 H  s               0.0       0.0       0.0       0.0       0.3       0.2

                     54        55        56        57        58        59   
                  -0.88838  -0.87899  -0.87673  -0.85858  -0.83874  -0.82980
                   2.00000   2.00000   2.00000   2.00000   2.00000   2.00000
                  --------  --------  --------  --------  --------  --------
 0 C  s               0.0       1.5       0.5       3.7       0.0       0.2
 0 C  pz              0.4       0.1       0.0       0.1       0.0       0.2
 0 C  px              1.6       0.8       0.0       0.2       0.1       0.4
 0 C  py              0.1       0.0       0.0       0.1       0.0       0.1
 1 C  s               2.6       0.0       0.6       3.4       0.2       0.3
 1 C  pz              1.1       0.4       0.5       0.0       0.2       0.3
 1 C  px              0.4       0.3       0.2       0.7       0.1       0.0
 1 C  py              0.2       1.0       0.0       0.0       0.0       0.2
 2 C  s               4.7       4.0       0.0       3.6       0.1       0.8
 2 C  pz              0.6       1.2       0.2       0.1       0.2       0.4
 2 C  px              1.2       0.2       0.2       2.8       0.0       2.6
 2 C  py              0.1       1.2       0.1       0.0       0.1       0.1
 2 C  dyz             0.1       0.0       0.0       0.1       0.0       0.0
 3 C  s               0.1       3.9       0.6       2.2       0.0       2.2
 3 C  pz              0.8       1.9       0.2       0.2       0.0       3.4
 3 C  px              2.0       0.1       0.1       6.0       0.0       1.0
 3 C  py              0.3       1.2       0.1       0.5       0.0       2.6
 3 C  dxz             0.0       0.0       0.0       0.0       0.0       0.1
 4 C  s               3.9       0.6       0.0       2.5       0.0       2.2
 4 C  pz              0.7       2.4       0.2       1.2       0.0       0.2
 4 C  px              1.0       0.2       0.0       4.4       0.1       7.2
 4 C  py              0.3       1.4       0.2       1.3       0.0       0.0
[...]
15 C  px              3.0       0.1       0.0       0.0       0.0       0.1
15 C  py              0.1       0.0       0.0       0.0       0.0       0.0
15 C  dz2             0.9       0.1       0.0       0.0       0.0       0.0
15 C  dxz             1.2       0.3       0.0       0.0       0.0       0.0
15 C  dyz             0.5       0.0       0.0       0.0       0.0       0.0
15 C  dx2y2           0.9       0.1       0.0       0.0       0.0       0.0
15 C  dxy             0.7       0.2       0.0       0.0       0.0       0.0
20 H  s               0.2       6.8       0.0       0.0       0.0       0.0
20 H  pz              0.2       7.4       0.0       0.0       0.0       0.0
20 H  px              0.2       5.2       0.0       0.0       0.0       0.0
20 H  py              0.2       6.3       0.0       0.0       0.0       0.0
21 H  s               0.3       1.9       0.0       0.0       0.0       0.0
21 H  pz              0.5       3.1       0.0       0.0       0.0       0.0
21 H  px              0.1       0.8       0.0       0.0       0.0       0.0
21 H  py              0.2       1.4       0.0       0.0       0.0       0.0

                    438       439       440       441       442       443   
                  21.81696  21.90692  22.07096  22.09813  22.14557  22.18799
                   0.00000   0.00000   0.00000   0.00000   0.00000   0.00000
                  --------  --------  --------  --------  --------  --------
 0 C  s               2.1      11.7       4.5       2.5      24.4       6.6
 1 C  s               1.4       5.3       0.6      15.7       0.0      13.5
 2 C  s               0.1       8.8       0.5       2.2      33.7       0.1
 3 C  s               4.9       4.5       4.1       3.3      23.9       3.1
 4 C  s               1.2      27.6       7.5      15.1       4.4       2.8
 5 C  s               3.4       3.6       0.3      18.9       1.6      10.2
10 C  s               0.2       0.3       4.0       7.6       0.4      18.8
10 C  pz              0.2       0.0       0.0       0.0       0.0       0.0
11 C  s              20.2       4.6      17.5       0.5       1.6       4.1
12 C  s              21.5       0.2       2.3      18.2       0.0      31.0
13 C  s               5.8      20.9      12.7       4.1       1.4       6.8
14 C  s              14.5       0.3      31.2       1.3       4.4       2.1
15 C  s              24.1      11.5      14.6      10.2       3.5       0.4

                    444       445       446       447       448       449   
                  22.28013  22.33553  25.14398  25.27183  25.37166  25.45840
                   0.00000   0.00000   0.00000   0.00000   0.00000   0.00000
                  --------  --------  --------  --------  --------  --------
 0 C  s               1.0      29.7       0.0       0.0       0.0       0.0
 1 C  s               8.9      36.1       0.0       0.1       0.0       0.0
 1 C  px              0.0       0.0       0.0       0.1       0.0       0.0
 2 C  s               0.0      11.2       0.0       0.0       0.0       0.0
 3 C  s               0.0       4.7       0.1       0.0       0.1       0.0
 4 C  s               0.2       3.4       0.1       0.0       0.0       0.0
 5 C  s               0.1       6.6       0.0       0.0       0.0       0.0
 5 C  pz              0.0       0.0       0.0       0.0       0.1       0.0
 6 Cl s               0.0       0.0      12.1       5.1      47.8       0.8
 7 Cl s               0.0       0.0      28.0      16.4       2.8       0.0
 8 Cl s               0.0       0.0      20.8      10.3      28.9       1.4
 9 Cl s               0.0       0.0       5.2       0.6      17.7       0.1
10 C  s              41.0       1.4       0.1       0.1       0.0       0.0
10 C  px              0.0       0.0       0.0       0.2       0.0       0.0
11 C  s              16.6       1.9       0.0       0.0       0.0       0.0
12 C  s              12.2       1.2       0.0       0.0       0.0       0.0
13 C  s               5.2       0.3       0.0       0.0       0.0       0.0
13 C  px              0.0       0.0       0.0       0.1       0.0       0.3
14 C  s               4.5       0.9       0.0       0.0       0.0       0.0
15 C  s              10.0       2.0       0.0       0.0       0.0       0.0
16 Cl s               0.0       0.0       4.2       5.0       1.1      28.5
17 Cl s               0.0       0.0      14.3      31.6       0.0      19.2
18 Cl s               0.0       0.0      13.5      29.8       0.6      48.7
19 Cl s               0.0       0.0       0.9       0.0       0.3       0.3

                    450       451       452       453   
                  25.54255  25.56462  25.64394  25.69662
                   0.00000   0.00000   0.00000   0.00000
                  --------  --------  --------  --------
 1 C  s               0.1       0.0       0.0       0.0
 2 C  pz              0.0       0.1       0.1       0.1
 2 C  px              0.0       0.0       0.0       0.1
 4 C  px              0.0       0.3       0.0       0.0
 5 C  pz              0.0       0.1       0.0       0.0
 6 Cl s               2.7      28.8       0.8       0.8
 7 Cl s               0.2      40.8       5.6       5.3
 8 Cl s               0.2       1.6      14.9      20.8
 9 Cl s               1.3      22.6      10.7      40.4
10 C  px              0.1       0.0       0.0       0.0
11 C  pz              0.3       0.0       0.0       0.0
11 C  px              0.1       0.0       0.0       0.0
11 C  py              0.1       0.0       0.0       0.0
14 C  pz              0.0       0.0       0.1       0.0
15 C  pz              0.0       0.0       0.1       0.1
16 Cl s               1.5       0.3      35.8      22.3
17 Cl s               0.4       1.9      24.8       6.7
18 Cl s               0.2       0.0       5.0       1.2
19 Cl s              92.3       2.8       1.0       1.1


                      *****************************
                      * MAYER POPULATION ANALYSIS *
                      *****************************

  NA   - Mulliken gross atomic population
  ZA   - Total nuclear charge
  QA   - Mulliken gross atomic charge
  VA   - Mayer's total valence
  BVA  - Mayer's bonded valence
  FA   - Mayer's free valence

  ATOM       NA         ZA         QA         VA         BVA        FA
  0 C      6.2661     6.0000    -0.2661     3.7556     3.7556    -0.0000
  1 C      5.8993     6.0000     0.1007     3.3293     3.3293    -0.0000
  2 C      5.9260     6.0000     0.0740     3.5515     3.5515    -0.0000
  3 C      5.9846     6.0000     0.0154     3.2765     3.2765    -0.0000
  4 C      5.9237     6.0000     0.0763     3.4344     3.4344    -0.0000
  5 C      5.8937     6.0000     0.1063     3.6370     3.6370    -0.0000
  6 Cl    17.0885    17.0000    -0.0885     1.2051     1.2051    -0.0000
  7 Cl    17.0622    17.0000    -0.0622     1.2536     1.2536    -0.0000
  8 Cl    17.0621    17.0000    -0.0621     1.2566     1.2566    -0.0000
  9 Cl    17.0643    17.0000    -0.0643     1.2609     1.2609    -0.0000
 10 C      5.9183     6.0000     0.0817     3.2010     3.2010    -0.0000
 11 C      5.8019     6.0000     0.1981     3.6610     3.6610    -0.0000
 12 C      6.4107     6.0000    -0.4107     3.7593     3.7593    -0.0000
 13 C      5.8073     6.0000     0.1927     3.5660     3.5660     0.0000
 14 C      6.0192     6.0000    -0.0192     3.5203     3.5203    -0.0000
 15 C      5.9352     6.0000     0.0648     3.4146     3.4146    -0.0000
 16 Cl    17.0592    17.0000    -0.0592     1.2569     1.2569     0.0000
 17 Cl    17.0645    17.0000    -0.0645     1.2501     1.2501     0.0000
 18 Cl    17.0817    17.0000    -0.0817     1.2087     1.2087     0.0000
 19 Cl    17.0872    17.0000    -0.0872     1.2067     1.2067    -0.0000
 20 H      0.8237     1.0000     0.1763     0.9624     0.9624    -0.0000
 21 H      0.8208     1.0000     0.1792     0.9619     0.9619    -0.0000

  Mayer bond orders larger than 0.100000
B(  0-C ,  1-C ) :   1.3762 B(  0-C ,  5-C ) :   1.3263 B(  0-C , 20-H ) :   0.9205 
B(  1-C ,  2-C ) :   1.2765 B(  1-C ,  9-Cl) :  -0.1106 B(  1-C , 10-C ) :   0.7506 
B(  1-C , 11-C ) :  -0.1181 B(  2-C ,  3-C ) :   1.0809 B(  2-C ,  9-Cl) :   1.2622 
B(  3-C ,  4-C ) :   1.0996 B(  3-C ,  8-Cl) :   1.2808 B(  4-C ,  5-C ) :   1.2233 
B(  4-C ,  7-Cl) :   1.2470 B(  5-C ,  6-Cl) :   1.0814 B( 10-C , 11-C ) :   1.3274 
B( 10-C , 15-C ) :   1.2331 B( 11-C , 12-C ) :   1.2997 B( 11-C , 19-Cl) :   1.0245 
B( 12-C , 13-C ) :   1.3080 B( 12-C , 21-H ) :   0.9189 B( 13-C , 14-C ) :   1.2239 
B( 13-C , 18-Cl) :   1.0764 B( 14-C , 15-C ) :   1.0980 B( 14-C , 17-Cl) :   1.2480 
B( 15-C , 16-Cl) :   1.2355 

-------
TIMINGS
-------

Total SCF time: 0 days 0 hours 1 min 23 sec 

Total time                  ....      83.810 sec
Sum of individual times     ....      83.137 sec  ( 99.2%)

SCF preparation             ....       0.303 sec  (  0.4%)
Fock matrix formation       ....      80.534 sec  ( 96.1%)
  Startup                   ....       0.089 sec  (  0.1% of F)
  Split-RI-J                ....      26.176 sec  ( 32.5% of F)
  XC integration            ....      53.475 sec  ( 66.4% of F)
    XC Preparation          ....       0.000 sec  (  0.0% of XC)
    Basis function eval.    ....       7.843 sec  ( 14.7% of XC)
    Density eval.           ....      21.736 sec  ( 40.6% of XC)
    XC-Functional eval.     ....       3.856 sec  (  7.2% of XC)
    XC-Potential eval.      ....      18.759 sec  ( 35.1% of XC)
Diagonalization             ....       0.000 sec  (  0.0%)
Density matrix formation    ....       0.362 sec  (  0.4%)
Total Energy calculation    ....       0.046 sec  (  0.1%)
Population analysis         ....       0.296 sec  (  0.4%)
Orbital Transformation      ....       0.163 sec  (  0.2%)
Orbital Orthonormalization  ....       0.000 sec  (  0.0%)
DIIS solution               ....       1.099 sec  (  1.3%)
  MO trafo                  ....       0.000 sec  (  0.0 % of DIIS)
  Orb grad                  ....       0.000 sec  (  0.0 % of DIIS)
  Energy W gradient         ....       0.000 sec  (  0.0 % of DIIS)
  DIIS error                ....       0.076 sec  (  6.9 % of DIIS)
  DIIS work                 ....       0.912 sec  ( 83.0 % of DIIS)
  Form Q                    ....       0.000 sec  (  0.0 % of DIIS)
  Form QpQm                 ....       0.000 sec  (  0.0 % of DIIS)
  Exp/Cayley                ....       0.000 sec  (  0.0 % of DIIS)
  Orb update                ....       0.000 sec  (  0.0 % of DIIS)
  Wake-sleep                ....       0.026 sec  (  2.4 % of DIIS)
SOSCF solution              ....       0.334 sec  (  0.4%)
  MO trafo                  ....       0.142 sec  ( 42.5 % of SOSCF)
  Orb grad                  ....       0.003 sec  (  0.9 % of SOSCF)
  Rot update                ....       0.049 sec  ( 14.8 % of SOSCF)
  Step                      ....       0.139 sec  ( 41.7 % of SOSCF)
Finished LeanSCF after  84.0 sec

Maximum memory used throughout the entire LEANSCF-calculation: 55.1 MB


-------------------------------------------------------------------------------
                          DFT DISPERSION CORRECTION                            
                                                                               
                                DFTD4 V3.4.0                                   
-------------------------------------------------------------------------------
The R2SCAN3C composite method is recognized
Using three-body term ABC
Active option DFTDOPT                   ...         5   

-------------------------   ----------------
Dispersion correction           -0.017172174
-------------------------   ----------------

------------------   -----------------
gCP correction             0.014533040
------------------   -----------------

-------------------------   --------------------
FINAL SINGLE POINT ENERGY     -4139.795191129357
-------------------------   --------------------


------------------------------------------------------------------------------
                              ORCA PROPERTY CALCULATIONS
------------------------------------------------------------------------------

GBWName                                 ... sp_gas.gbw
Number of atoms                         ...     22
Number of basis functions               ...    454
Max core memory                         ...   1024 MB

Electric properties:
Dipole moment                           ... YES
Quadrupole moment                       ...  NO
Static polarizability (Dipole/Dipole)   ...  NO
Static polarizability (Dipole/Quad.)    ...  NO
Static polarizability (Quad./Quad.)     ...  NO
Static polarizability (Velocity)        ...  NO

Atomic electric properties:
Dipole moment                           ...  NO
Quadrupole moment                       ...  NO
Static polarizability                   ...  NO

Choice of electric origin               ... Center of mass
Position of electric origin             ...     0.000001     0.000001    -0.000000

General magnetic properties:
Magnetizability                         ...  NO

EPR properties:
g-Tensor (aka g-matrix)                 ...  NO
Zero-Field splitting spin-orbit         ...  NO
Zero-field splitting spin-spin          ...  NO
Hyperfine couplings                     ...  NO (   0 nuclei)
Quadrupole couplings                    ...  NO (   0 nuclei)
Contact density                         ...  NO (   0 nuclei)

NMR properties:
Chemical shifts                         ...  NO (   0 nuclei)
Spin-rotation constants                 ...  NO (   0 nuclei)
Spin-spin couplings                     ...  NO (   0 nuclei,    0 pairs)

Choice of magnetic origin               ... GIAO
Position of magnetic origin             ...     0.000000     0.000000     0.000000

Properties with geometric perturbations:
SCF Hessian                             ...  NO
IR spectrum                             ...  NO
VCD spectrum                            ...  NO
X-ray spectroscopy properties:
SCF XES/XAS/RIXS spectra                ...  NO


-------------
DIPOLE MOMENT
-------------

Method             : SCF
Type of density    : Electron Density
Multiplicity       :   1
Irrep              :   0
Energy             : -4139.7925519948985311 Eh
Relativity type    : 
Basis              : AO
                                X                 Y                 Z
Electronic contribution:     -3.541263389      -4.319591810       0.426515879
Nuclear contribution   :      3.908657293       4.684364215      -0.498390943
                        -----------------------------------------
Total Dipole Moment    :      0.367393903       0.364772405      -0.071875064
                        -----------------------------------------
Magnitude (a.u.)       :      0.522688447
Magnitude (Debye)      :      1.328568449



--------------------
Rotational spectrum 
--------------------
 
Rotational constants in cm-1:             0.010428             0.003493             0.003161 
Rotational constants in MHz :           312.622310           104.702907            94.760208 

Dipole components along the rotational axes: 
x,y,z [a.u.] :    -0.373489     0.052878    -0.361820 
x,y,z [Debye]:    -0.949332     0.134405    -0.919672 

 

Dipole moment calculation done in   0.0 sec 

Maximum memory used throughout the entire PROP-calculation: 39.5 MB

--------------------------------
SUGGESTED CITATIONS FOR THIS RUN
--------------------------------

Below you find a list of papers that are relevant to this ORCA run
We neither can nor want to force you to cite these papers, but we appreciate if you do
You receive ORCA, which is the product of decades of hard work by many enthusiastic individuals, for free
The only thing we kindly ask in return is that you cite our papers,
We deeply appreciate it, if you show your appreciation for ORCA by not just citing the generic ORCA reference.

Please note that relegating all ORCA citations to the supporting information does *not* help us.
SI sections are not indexed - citations you put there will not count into any citation statistics
But we need these citations in order to attract the funding resources that allow us to do what we are doing

Therefore, if you are a happy ORCA user, please consider citing a few of the papers listed below in the main body of your paper

In addition to the list printed below, the program has created the file sp_gas.bibtex that contains the list in bibtex format
You can import this file easily into all common literature databanks and citation aid programs


List of essential papers. We consider these as the minimum necessary citations

  1. Neese,F.
     Software update: the ORCA program system, version 5.0
     WIRES Comput. Molec. Sci., 2022 12(1)e1606
     doi.org/10.1002/wcms.1606
  2. Grimme,S.; Hansen,A.; Ehlert,S.; Mewes,J.
     r2SCAN-3c: A 'Swiss army knife' composite electronic-structure method
     J. Chem. Phys., 2021 154 064103
     doi.org/10.1063/5.0040021

List of papers to cite with high priority. The work reported in these papers was absolutely
necessary for this run to complete.
Our perspective: the developers of density functionals and basis sets usually get cited in chemistry papers
Good! But without the algorithms to do something with them, the functionals or basis sets would not do anything.
Hence, in our opinion, the algorithm design and method developments papers are equally worthy of getting cited

  1. Neese,F.
     An improvement of the resolution of the identity approximation for the formation of the Coulomb matrix
     J. Comp. Chem., 2003 24(14)1740-1747
     doi.org/10.1002/jcc.10318
  2. Neese,F.
     The SHARK Integral Generation and Digestion System
     J. Comp. Chem., 2022  1-16
     doi.org/10.1002/jcc.26942
  3. Lehtola,S.; Steigemann,C.; Oliveira,M.; Marques,M.
     Recent developments in Libxc - A comprehensive library of functionals for density functional theory
     Software X, 2018 7 
     doi.org/10.1016/j.softx.2017.11.002
  4. Caldeweyher,E.; Bannwarth,C.; Grimme,S.
     Extension of the D3 dispersion coefficient model
     J. Chem. Phys., 2017 147 034112-XXXX
     doi.org/10.1063/1.4993215
  5. Caldeweyher,E.; Ehlert,S.; Hansen,A.; Neugebauer,H.; Spicher,S.; Bannwarth,C.; Grimme,S.
     A generally applicable atomic-charge dependent London dispersion correction
     J. Chem. Phys., 2019 150 154122-XXXX
     doi.org/10.1063/1.5090222
  6. Caldeweyher,E.; Mewes,J.; Ehlert,S.; Grimme,S.
     Extension and evaluation of the D4 London-dispersion model for periodic systems
     Phys. Chem. Chem. Phys., 2020 22(16)8499-8512
     doi.org/10.1039/D0CP00502A

List of suggested additional citations. These are papers that are important in the 'surrounding' of 
of this run, or papers that preceded the highly important papers. If you like your results we are grateful for a citation.

  1. Neese,F.
     The ORCA program system
     WIRES Comput. Molec. Sci., 2012 2(1)73-78
     doi.org/10.1002/wcms.81
  2. Neese,F.
     Software update: the ORCA program system, version 4.0
     WIRES Comput. Molec. Sci., 2018 8(1)1-6
     doi.org/10.1002/wcms.1327
  3. Neese,F.; Wennmohs,F.; Becker,U.; Riplinger,C.
     The ORCA quantum chemistry program package
     J. Chem. Phys., 2020 152 Art. No. L224108
     doi.org/10.1063/5.0004608

List of optional additional citations

  1. Neese,F.
     Approximate second-order SCF convergence for spin unrestricted wavefunctions
     Chem. Phys. Lett., 2000 325(1-3)93-98
     doi.org/10.1016/s0009-2614(00)00662-x

Timings for individual modules:

Sum of individual times          ...       87.061 sec (=   1.451 min)
Startup calculation              ...        2.409 sec (=   0.040 min)   2.8 %
SCF iterations                   ...       84.495 sec (=   1.408 min)  97.1 %
Property calculations            ...        0.157 sec (=   0.003 min)   0.2 %
                             ****ORCA TERMINATED NORMALLY****
TOTAL RUN TIME: 0 days 0 hours 1 minutes 27 seconds 712 msec
