      -----------------------------------------------------------      
     |                   =====================                   |     
     |                           x T B                           |     
     |                   =====================                   |     
     |                         S. Grimme                         |     
     |          Mulliken Center for Theoretical Chemistry        |     
     |                    University of Bonn                     |     
      -----------------------------------------------------------      

   * xtb version 6.7.1 (edcfbbe) compiled by 'albert@albert-system' on 2024-07-22

   xtb is free software: you can redistribute it and/or modify it under
   the terms of the GNU Lesser General Public License as published by
   the Free Software Foundation, either version 3 of the License, or
   (at your option) any later version.
   
   xtb is distributed in the hope that it will be useful,
   but WITHOUT ANY WARRANTY; without even the implied warranty of
   MERCHANTABILITY or FITNESS FOR A PARTICULAR PURPOSE.  See the
   GNU Lesser General Public License for more details.
   
   Cite this work as:
   * C. Bannwarth, E. Caldeweyher, S. Ehlert, A. Hansen, P. Pracht,
     J. Seibert, S. Spicher, S. Grimme, WIREs Comput. Mol. Sci., 2020, 11,
     e01493. DOI: 10.1002/wcms.1493
   
   for GFN2-xTB:
   * C. Bannwarth, S. Ehlert and S. Grimme., J. Chem. Theory Comput., 2019,
     15, 1652-1671. DOI: 10.1021/acs.jctc.8b01176
   for GFN1-xTB:
   * S. Grimme, C. Bannwarth, P. Shushkov, J. Chem. Theory Comput., 2017,
     13, 1989-2009. DOI: 10.1021/acs.jctc.7b00118
   for GFN0-xTB:
   * P. Pracht, E. Caldeweyher, S. Ehlert, S. Grimme, ChemRxiv, 2019, preprint.
     DOI: 10.26434/chemrxiv.8326202.v1
   for GFN-FF:
   * S. Spicher and S. Grimme, Angew. Chem. Int. Ed., 2020, 59, 15665-15673.
     DOI: 10.1002/anie.202004239
   
   for ALPB and GBSA implicit solvation:
   * S. Ehlert, M. Stahn, S. Spicher, S. Grimme, J. Chem. Theory Comput.,
     2021, 17, 4250-4261. DOI: 10.1021/acs.jctc.1c00471
   
   for ddCOSMO and CPCM-X implicit solvation:
   * M. Stahn, S. Ehlert, S. Grimme, J. Phys. Chem. A,
     2023, XX, XXXX-XXXX. DOI: 10.1021/acs.jpca.3c04382
   
   for DFT-D4:
   * E. Caldeweyher, C. Bannwarth and S. Grimme, J. Chem. Phys., 2017,
     147, 034112. DOI: 10.1063/1.4993215
   * E. Caldeweyher, S. Ehlert, A. Hansen, H. Neugebauer, S. Spicher,
     C. Bannwarth and S. Grimme, J. Chem. Phys., 2019, 150, 154122.
     DOI: 10.1063/1.5090222
   * E. Caldeweyher, J.-M. Mewes, S. Ehlert and S. Grimme, Phys. Chem. Chem. Phys.
     2020, 22, 8499-8512. DOI: 10.1039/D0CP00502A
   
   for sTDA-xTB:
   * S. Grimme and C. Bannwarth, J. Chem. Phys., 2016, 145, 054103.
     DOI: 10.1063/1.4959605
   
   in the mass-spec context:
   * V. Asgeirsson, C. Bauer and S. Grimme, Chem. Sci., 2017, 8, 4879.
     DOI: 10.1039/c7sc00601b
   * J. Koopman and S. Grimme, ACS Omega 2019, 4, 12, 15120-15133.
     DOI: 10.1021/acsomega.9b02011
   
   for metadynamics refer to:
   * S. Grimme, J. Chem. Theory Comput., 2019, 155, 2847-2862
     DOI: 10.1021/acs.jctc.9b00143
   
   for SPH calculations refer to:
   * S. Spicher and S. Grimme, J. Chem. Theory Comput., 2021, 17, 1701-1714
     DOI: 10.1021/acs.jctc.0c01306
   
   for ONIOM refer to:
   * C. Plett, A. Katbashev, S. Ehlert, S. Grimme, M. Bursch,
     Phys. Chem. Chem. Phys., 2023, 25, 17860-17868. DOI: 10.1039/D3CP02178E
   
   for DIPRO refer to:
   * J. Kohn, N. Gildemeister, S. Grimme, D. Fazzi, A. Hansen,
     J. Chem. Phys., 2023, just accepted.
   
   for PTB refer to:
   * S. Grimme, M. Mueller, A. Hansen, J. Chem. Phys., 2023, 158, 124111.
     DOI: 10.1063/5.0137838
   
   with help from (in alphabetical order)
   P. Atkinson, C. Bannwarth, F. Bohle, G. Brandenburg, E. Caldeweyher
   M. Checinski, S. Dohm, S. Ehlert, S. Ehrlich, I. Gerasimov, C. Hölzer
   A. Katbashev, J. Kohn, J. Koopman, C. Lavigne, S. Lehtola, F. März, M. Müller,
   F. Musil, H. Neugebauer, J. Pisarek, C. Plett, P. Pracht, F. Pultar,
   J. Seibert, P. Shushkov, S. Spicher, M. Stahn, M. Steiner, T. Strunk,
   J. Stückrath, T. Rose, and J. Unsleber
   
 * started run on 2025/04/06 at 18:00:38.227     
   ID    Z sym.   atoms
    1    6 C      1, 2, 4, 6, 8, 10
    2    1 H      3, 5, 7, 9, 11, 18-24
    3    8 O      12-17

           -------------------------------------------------
          |                Calculation Setup                |
           -------------------------------------------------

          program call               : /srv/scratch/z5358697/.xtb/bin/xtb gas.coord --gfn2 --sp --chrg 0 --norestart --parallel 1
          hostname                   : k155
          coordinate file            : gas.coord
          omp threads                :                     1


           -------------------------------------------------
          |                 G F N 2 - x T B                 |
           -------------------------------------------------

        Reference                      10.1021/acs.jctc.8b01176
      * Hamiltonian:
        H0-scaling (s, p, d)           1.850000    2.230000    2.230000
        zeta-weighting                 0.500000
      * Dispersion:
        s8                             2.700000
        a1                             0.520000
        a2                             5.000000
        s9                             5.000000
      * Repulsion:
        kExp                           1.500000    1.000000
        rExp                           1.000000
      * Coulomb:
        alpha                          2.000000
        third order                    shell-resolved
        anisotropic                    true
        a3                             3.000000
        a5                             4.000000
        cn-shift                       1.200000
        cn-exp                         4.000000
        max-rad                        5.000000


          ...................................................
          :                      SETUP                      :
          :.................................................:
          :  # basis functions                  60          :
          :  # atomic orbitals                  60          :
          :  # shells                           36          :
          :  # electrons                        72          :
          :  max. iterations                   250          :
          :  Hamiltonian                  GFN2-xTB          :
          :  restarted?                      false          :
          :  GBSA solvation                  false          :
          :  PC potential                    false          :
          :  electronic temp.          300.0000000     K    :
          :  accuracy                    1.0000000          :
          :  -> integral cutoff          0.2500000E+02      :
          :  -> integral neglect         0.1000000E-07      :
          :  -> SCF convergence          0.1000000E-05 Eh   :
          :  -> wf. convergence          0.1000000E-03 e    :
          :  Broyden damping             0.4000000          :
          :  net charge                          0          :
          :  unpaired electrons                  0          :
          ...................................................

 iter      E             dE          RMSdq      gap      omega  full diag
   1    -43.6285061 -0.436285E+02  0.453E+00   10.40       0.0  T
   2    -43.6612260 -0.327200E-01  0.249E+00   10.16       1.0  T
   3    -43.6621974 -0.971432E-03  0.691E-01   10.27       1.0  T
   4    -43.6632211 -0.102367E-02  0.141E-01   10.23       1.0  T
   5    -43.6632976 -0.764524E-04  0.583E-02   10.25       1.0  T
   6    -43.6633064 -0.883246E-05  0.175E-02   10.25       1.2  T
   7    -43.6633069 -0.539972E-06  0.585E-03   10.25       3.5  T
   8    -43.6633072 -0.267060E-06  0.169E-03   10.25      12.1  T
   9    -43.6633072 -0.437241E-08  0.663E-04   10.25      30.8  T
  10    -43.6633072 -0.270615E-08  0.206E-04   10.25      99.1  T

   *** convergence criteria satisfied after 10 iterations ***

         #    Occupation            Energy/Eh            Energy/eV
      -------------------------------------------------------------
         1        2.0000           -0.7297661             -19.8579
       ...           ...                  ...                  ...
        30        2.0000           -0.4593788             -12.5003
        31        2.0000           -0.4504538             -12.2575
        32        2.0000           -0.4446024             -12.0982
        33        2.0000           -0.4419623             -12.0264
        34        2.0000           -0.4271598             -11.6236
        35        2.0000           -0.4201551             -11.4330
        36        2.0000           -0.4080579             -11.1038 (HOMO)
        37                         -0.0312393              -0.8501 (LUMO)
        38                          0.0007435               0.0202
        39                          0.0107580               0.2927
        40                          0.0185180               0.5039
        41                          0.0307643               0.8371
       ...                                ...                  ...
        60                          0.2970856               8.0841
      -------------------------------------------------------------
                  HL-Gap            0.3768186 Eh           10.2538 eV
             Fermi-level           -0.2196486 Eh           -5.9769 eV

 SCC (total)                   0 d,  0 h,  0 min,  0.025 sec
 SCC setup                      ...        0 min,  0.000 sec (  0.742%)
 Dispersion                     ...        0 min,  0.000 sec (  0.536%)
 classical contributions        ...        0 min,  0.000 sec (  0.112%)
 integral evaluation            ...        0 min,  0.003 sec ( 11.158%)
 iterations                     ...        0 min,  0.014 sec ( 56.708%)
 molecular gradient             ...        0 min,  0.007 sec ( 30.132%)
 printout                       ...        0 min,  0.000 sec (  0.553%)

         :::::::::::::::::::::::::::::::::::::::::::::::::::::
         ::                     SUMMARY                     ::
         :::::::::::::::::::::::::::::::::::::::::::::::::::::
         :: total energy             -43.359450269459 Eh    ::
         :: gradient norm              0.012920769644 Eh/a0 ::
         :: HOMO-LUMO gap             10.253757009179 eV    ::
         ::.................................................::
         :: SCC energy               -43.663150303340 Eh    ::
         :: -> isotropic ES            0.138013348709 Eh    ::
         :: -> anisotropic ES         -0.003091979596 Eh    ::
         :: -> anisotropic XC         -0.009809738536 Eh    ::
         :: -> dispersion             -0.019208718753 Eh    ::
         :: repulsion energy           0.303700033881 Eh    ::
         :: add. restraining           0.000000000000 Eh    ::
         :: total charge              -0.000000000000 e     ::
         :::::::::::::::::::::::::::::::::::::::::::::::::::::

           -------------------------------------------------
          |                Property Printout                |
           -------------------------------------------------

    * Orbital Energies and Occupations

         #    Occupation            Energy/Eh            Energy/eV
      -------------------------------------------------------------
         1        2.0000           -0.7297661             -19.8579
       ...           ...                  ...                  ...
        24        2.0000           -0.5175432             -14.0831
        25        2.0000           -0.5136176             -13.9762
        26        2.0000           -0.5022668             -13.6674
        27        2.0000           -0.4977024             -13.5432
        28        2.0000           -0.4848561             -13.1936
        29        2.0000           -0.4778679             -13.0034
        30        2.0000           -0.4593788             -12.5003
        31        2.0000           -0.4504538             -12.2575
        32        2.0000           -0.4446024             -12.0982
        33        2.0000           -0.4419623             -12.0264
        34        2.0000           -0.4271598             -11.6236
        35        2.0000           -0.4201551             -11.4330
        36        2.0000           -0.4080579             -11.1038 (HOMO)
        37                         -0.0312393              -0.8501 (LUMO)
        38                          0.0007435               0.0202
        39                          0.0107580               0.2927
        40                          0.0185180               0.5039
        41                          0.0307643               0.8371
        42                          0.0605453               1.6475
        43                          0.0718343               1.9547
        44                          0.0900640               2.4508
        45                          0.0993105               2.7024
        46                          0.1021166               2.7787
        47                          0.1099345               2.9915
       ...                                ...                  ...
        60                          0.2970856               8.0841
      -------------------------------------------------------------
                  HL-Gap            0.3768186 Eh           10.2538 eV
             Fermi-level           -0.2196486 Eh           -5.9769 eV

     #   Z          covCN         q      C6AA      α(0)
     1   6 C        3.675     0.066    19.687     6.358
     2   6 C        3.738     0.085    19.245     6.260
     3   1 H        0.923     0.052     2.296     2.369
     4   6 C        3.731     0.084    19.267     6.266
     5   1 H        0.924     0.066     2.133     2.284
     6   6 C        3.729     0.096    19.080     6.236
     7   1 H        0.923     0.030     2.588     2.516
     8   6 C        3.728     0.093    19.141     6.246
     9   1 H        0.923     0.054     2.275     2.359
    10   6 C        3.615     0.236    17.347     6.010
    11   1 H        0.923     0.057     2.231     2.336
    12   8 O        1.699    -0.344    19.783     6.005
    13   8 O        1.656    -0.452    21.875     6.314
    14   8 O        1.656    -0.439    21.629     6.278
    15   8 O        1.655    -0.450    21.846     6.310
    16   8 O        1.655    -0.438    21.607     6.275
    17   8 O        1.655    -0.433    21.495     6.259
    18   1 H        0.924     0.039     2.461     2.453
    19   1 H        0.924     0.063     2.165     2.301
    20   1 H        0.804     0.312     0.685     1.300
    21   1 H        0.804     0.313     0.682     1.297
    22   1 H        0.804     0.312     0.687     1.302
    23   1 H        0.804     0.298     0.728     1.340
    24   1 H        0.805     0.299     0.725     1.337

 Mol. C6AA /au·bohr⁶  :       4690.851896
 Mol. C8AA /au·bohr⁸  :      99777.455614
 Mol. α(0) /au        :         98.009408


Wiberg/Mayer (AO) data.
largest (>0.10) Wiberg bond orders for each atom

 ---------------------------------------------------------------------------
     #   Z sym  total        # sym  WBO       # sym  WBO       # sym  WBO
 ---------------------------------------------------------------------------
     1   6 C    3.960 --    17 O    1.010     2 C    0.976    19 H    0.968
                            18 H    0.966
     2   6 C    3.946 --     1 C    0.976     4 C    0.970    12 O    0.957
                             3 H    0.956
     3   1 H    0.997 --     2 C    0.956
     4   6 C    3.954 --    16 O    0.999     2 C    0.970     6 C    0.963
                             5 H    0.956
     5   1 H    0.996 --     4 C    0.956
     6   6 C    3.963 --    15 O    1.000     8 C    0.968     4 C    0.963
                             7 H    0.955
     7   1 H    0.999 --     6 C    0.955
     8   6 C    3.961 --    14 O    1.004     6 C    0.968    10 C    0.958
                             9 H    0.955
     9   1 H    0.997 --     8 C    0.955
    10   6 C    3.930 --    13 O    0.997    12 O    0.975     8 C    0.958
                            11 H    0.949
    11   1 H    0.997 --    10 C    0.949
    12   8 O    2.082 --    10 C    0.975     2 C    0.957
    13   8 O    1.975 --    10 C    0.997    20 H    0.886
    14   8 O    1.961 --     8 C    1.004    21 H    0.886
    15   8 O    1.952 --     6 C    1.000    22 H    0.877
    16   8 O    1.984 --     4 C    0.999    23 H    0.892
    17   8 O    1.964 --     1 C    1.010    24 H    0.895
    18   1 H    0.998 --     1 C    0.966
    19   1 H    0.996 --     1 C    0.968
    20   1 H    0.902 --    13 O    0.886
    21   1 H    0.902 --    14 O    0.886
    22   1 H    0.903 --    15 O    0.877
    23   1 H    0.911 --    16 O    0.892
    24   1 H    0.911 --    17 O    0.895
 ---------------------------------------------------------------------------

Topologies differ in total number of bonds
Writing topology from bond orders to xtbtopo.mol

molecular dipole:
                 x           y           z       tot (Debye)
 q only:        0.060       0.064       0.046
   full:        0.119       0.064       0.179       0.569
molecular quadrupole (traceless):
                xx          xy          yy          xz          yz          zz
 q only:       -6.344      -3.864       8.165      -1.729       3.772      -1.822
  q+dip:      -10.948      -5.787      11.331      -3.142       6.333      -0.383
   full:      -10.594      -5.687      11.815      -2.876       5.622      -1.221


           -------------------------------------------------
          | TOTAL ENERGY              -43.359450269459 Eh   |
          | GRADIENT NORM               0.012920769644 Eh/α |
          | HOMO-LUMO GAP              10.253757009179 eV   |
           -------------------------------------------------

------------------------------------------------------------------------
 * finished run on 2025/04/06 at 18:00:38.289     
------------------------------------------------------------------------
 total:
 * wall-time:     0 d,  0 h,  0 min,  0.061 sec
 *  cpu-time:     0 d,  0 h,  0 min,  0.027 sec
 * ratio c/w:     0.446 speedup
 SCF:
 * wall-time:     0 d,  0 h,  0 min,  0.025 sec
 *  cpu-time:     0 d,  0 h,  0 min,  0.019 sec
 * ratio c/w:     0.755 speedup

