
                                 *****************
                                 * O   R   C   A *
                                 *****************

                                            #,                                       
                                            ###                                      
                                            ####                                     
                                            #####                                    
                                            ######                                   
                                           ########,                                 
                                     ,,################,,,,,                         
                               ,,#################################,,                 
                          ,,##########################################,,             
                       ,#########################################, ''#####,          
                    ,#############################################,,   '####,        
                  ,##################################################,,,,####,       
                ,###########''''           ''''###############################       
              ,#####''   ,,,,##########,,,,          '''####'''          '####       
            ,##' ,,,,###########################,,,                        '##       
           ' ,,###''''                  '''############,,,                           
         ,,##''                                '''############,,,,        ,,,,,,###''
      ,#''                                            '''#######################'''  
     '                                                          ''''####''''         
             ,#######,   #######,   ,#######,      ##                                
            ,#'     '#,  ##    ##  ,#'     '#,    #''#        ,####,   ,####,        
            ##       ##  ##   ,#'  ##            #'  '#       #'       #'  '#        
            ##       ##  #######   ##           ,######,      #####,   #    #        
            '#,     ,#'  ##    ##  '#,     ,#' ,#      #,     #,   #   #,  ,#        
             '#######'   ##     ##  '#######'  #'      '#     '####' # '####'        



                #########################################################
                #                        -***-                          #
                #          Department of theory and spectroscopy        #
                #                                                       #
                #                      Frank Neese                      #
                #                                                       #
                #     Directorship, Architecture, Infrastructure        #
                #                    SHARK, DRIVERS                     #
                #        Core code/Algorithms in most modules           #
                #                                                       #
                #        Max Planck Institute fuer Kohlenforschung      #
                #                Kaiser Wilhelm Platz 1                 #
                #                 D-45470 Muelheim/Ruhr                 #
                #                      Germany                          #
                #                                                       #
                #                  All rights reserved                  #
                #                        -***-                          #
                #########################################################


                         Program Version 6.0.0  -   RELEASE  -


 With contributions from (in alphabetic order):
   Daniel Aravena         : Magnetic Suceptibility
   Michael Atanasov       : Ab Initio Ligand Field Theory (pilot matlab implementation)
   Alexander A. Auer      : GIAO ZORA, VPT2 properties, NMR spectrum
   Ute Becker             : All parallelization in ORCA, NUMFREQ, NUMCALC
   Giovanni Bistoni       : ED, misc. LED, open-shell LED, HFLD
   Martin Brehm           : Molecular dynamics
   Dmytro Bykov           : pre 5.0 version of the SCF Hessian
   Marcos Casanova-Páez   : Triplet and SCS-CIS(D). UHF-(DLPNO)-IP/EA/STEOM-CCSD. UHF-CVS-IP/STEOM-CCSD
   Vijay G. Chilkuri      : MRCI spin determinant printing, contributions to CSF-ICE
   Pauline Colinet        : FMM embedding
   Dipayan Datta          : RHF DLPNO-CCSD density
   Achintya Kumar Dutta   : EOM-CC, STEOM-CC
   Nicolas Foglia         : Exact transition moments, OPA infrastructure, MCD improvements
   Dmitry Ganyushin       : Spin-Orbit,Spin-Spin,Magnetic field MRCI
   Miquel Garcia          : C-PCM and meta-GGA Hessian, CCSD/C-PCM, Gaussian charge scheme
   Tiago L. C. Gouveia    : GS-ROHF, GS-ROCIS
   Yang Guo               : DLPNO-NEVPT2, F12-NEVPT2, CIM, IAO-localization
   Andreas Hansen         : Spin unrestricted coupled pair/coupled cluster methods
   Ingolf Harden          : AUTO-CI MPn and infrastructure 
   Benjamin Helmich-Paris : MC-RPA, TRAH-(SCF,CASSCF), AVAS, COSX integrals, SCF dyn. polar.
   Lee Huntington         : MR-EOM, pCC
   Robert Izsak           : Overlap fitted RIJCOSX, COSX-SCS-MP3, EOM
   Riya Kayal             : Wick's Theorem for AUTO-CI, AUTO-CI UHF-CCSDT
   Emily Kempfer          : AUTO-CI, RHF CISDT and CCSDT
   Christian Kollmar      : KDIIS, OOCD, Brueckner-CCSD(T), CCSD density, CASPT2, CASPT2-K, improved NEVPT2
   Axel Koslowski         : Symmetry handling
   Simone Kossmann        : Meta GGA functionals, TD-DFT gradient, OOMP2, (MP2 Hessian; deprecated post 5.0)
   Lucas Lang             : DCDCAS
   Marvin Lechner         : AUTO-CI (C++ implementation), FIC-MRCC
   Spencer Leger          : CASSCF response
   Dagmar Lenk            : GEPOL surface, SMD, ORCA-2-JSON
   Dimitrios Liakos       : Extrapolation schemes; Compound Job, initial MDCI parallelization
   Dimitrios Manganas     : Further ROCIS development; embedding schemes. LFT, Crystal Embedding
   Dimitrios Pantazis     : SARC Basis sets
   Anastasios Papadopoulos: AUTO-CI, single reference methods and gradients
   Taras Petrenko         : pre 6.0 DFT Hessian and TD-DFT gradient, (ASA, deprecated), ECA, 1-Electron XAS/XES, NRVS
   Peter Pinski           : DLPNO-MP2, DLPNO-MP2 Gradient
   Christoph Reimann      : Effective Core Potentials
   Marius Retegan         : Local ZFS, SOC
   Christoph Riplinger    : Optimizer, TS searches, QM/MM, DLPNO-CCSD(T), (RO)-DLPNO pert. Triples
   Michael Roemelt        : Original ROCIS implementation
   Masaaki Saitow         : Open-shell DLPNO-CCSD energy and density
   Barbara Sandhoefer     : DKH picture change effects
   Kantharuban Sivalingam : CASSCF convergence/infrastructure, NEVPT2 and variants, FIC-MRCI
   Bernardo de Souza      : ESD, SOC TD-DFT
   Georgi Stoychev        : AutoAux, RI-MP2 NMR, DLPNO-MP2 response, X2C
   Van Anh Tran           : RI-MP2 g-tensors
   Willem Van den Heuvel  : Paramagnetic NMR
   Zikuan Wang            : NOTCH, Electric field optimization 
   Frank Wennmohs         : Technical directorship and infrastructure
   Hang Xu                : AUTO-CI-Response properties 


 We gratefully acknowledge several colleagues who have allowed us to
 interface, adapt or use parts of their codes:
   Stefan Grimme, W. Hujo, H. Kruse, P. Pracht,  : VdW corrections, initial TS optimization,
                  C. Bannwarth, S. Ehlert,         DFT functionals, gCP, sTDA/sTD-DF
                  L. Wittmann, M. Mueller
   Ed Valeev, F. Pavosevic, A. Kumar             : LibInt (2-el integral package), F12 methods
   Garnet Chan, S. Sharma, J. Yang, R. Olivares  : DMRG
   Ulf Ekstrom                                   : XCFun DFT Library
   Mihaly Kallay                                 : mrcc  (arbitrary order and MRCC methods)
   Frank Weinhold                                : gennbo (NPA and NBO analysis)
   Simon Mueller                                 : openCOSMO-RS
   Christopher J. Cramer and Donald G. Truhlar   : smd solvation model
   Lars Goerigk                                  : TD-DFT with DH, B97 family of functionals
   V. Asgeirsson, H. Jonsson                     : NEB implementation
   FAccTs GmbH                                   : IRC, NEB, NEB-TS, DLPNO-Multilevel, CI-OPT
                                                   MM, QMMM, 2- and 3-layer-ONIOM, Crystal-QMMM,
                                                   LR-CPCM, SF, NACMEs, symmetry and pop. for TD-DFT,
                                                   nearIR, NL-DFT gradient (VV10), updates on ESD,
                                                   ML-optimized integration grids, MBIS, APM,
                                                   GOAT, DOCKER, SOLVATOR, interface openCOSMO-RS
   S Lehtola, MJT Oliveira, MAL Marques          : LibXC Library
   Liviu Ungur et al                             : ANISO software


 Your calculation uses the libint2 library for the computation of 2-el integrals
 For citations please refer to: http://libint.valeyev.net

 Your ORCA version has been built with support for libXC version: 6.2.2
 For citations please refer to: https://libxc.gitlab.io

 This ORCA versions uses:
   CBLAS   interface :  Fast vector & matrix operations
   LAPACKE interface :  Fast linear algebra routines
   SCALAPACK package :  Parallel linear algebra routines
   Shared memory     :  Shared parallel matrices
   BLAS/LAPACK       :  OpenBLAS 0.3.27  USE64BITINT DYNAMIC_ARCH NO_AFFINITY SkylakeX SINGLE_THREADED
        Core in use  :  SkylakeX
   Copyright (c) 2011-2014, The OpenBLAS Project


Your calculation utilizes the geometrical counterpoise correction gCP
Please cite in your paper:
H.Kruse, S. Grimme J.Chem.Phys., 136, (2012), 154101 
   

Your calculation utilizes the atom-pairwise dispersion correction
based on EEQ partial charges (D4)


Your calculation utilizes the SMD solvation module
Please cite in your paper:
A.V. Marenich, C.J. Cramer, D.G. Truhlar J. Phys. Chem. B, 113, (2009), 6378 

================================================================================

----- Orbital basis set information -----
Your calculation utilizes the basis: def2-mTZVPP
   Stefan Grimme, Andreas Hansen, Sebastian Ehlert, and Jan-Michael Mewes 
   J. Chem. Phys. 154, 064103 (2021). DOI: 10.1063/5.0040021

----- AuxJ basis set information -----
Your calculation utilizes the auxiliary basis: def2/J
   F. Weigend, Phys. Chem. Chem. Phys. 8, 1057 (2006).

================================================================================
                                        WARNINGS
                       Please study these warnings very carefully!
================================================================================

Using LibXC functional ID 497 : Re-regularized SCAN exchange by Furness et al
[ 1]  J. W. Furness, A. D. Kaplan, J. Ning, J. P. Perdew, and J. Sun.,  J. Phys. Chem. Lett. 11, 8208-8215 (2020)
[ 2]  J. W. Furness, A. D. Kaplan, J. Ning, J. P. Perdew, and J. Sun.,  J. Phys. Chem. Lett. 11, 9248-9248 (2020)
Using LibXC functional ID 498 : Re-regularized SCAN correlation by Furness et al
[ 1]  J. W. Furness, A. D. Kaplan, J. Ning, J. P. Perdew, and J. Sun.,  J. Phys. Chem. Lett. 11, 8208-8215 (2020)
[ 2]  J. W. Furness, A. D. Kaplan, J. Ning, J. P. Perdew, and J. Sun.,  J. Phys. Chem. Lett. 11, 9248-9248 (2020)
Using LibXC functional ID 497 : Re-regularized SCAN exchange by Furness et al
[ 1]  J. W. Furness, A. D. Kaplan, J. Ning, J. P. Perdew, and J. Sun.,  J. Phys. Chem. Lett. 11, 8208-8215 (2020)
[ 2]  J. W. Furness, A. D. Kaplan, J. Ning, J. P. Perdew, and J. Sun.,  J. Phys. Chem. Lett. 11, 9248-9248 (2020)
Using LibXC functional ID 498 : Re-regularized SCAN correlation by Furness et al
[ 1]  J. W. Furness, A. D. Kaplan, J. Ning, J. P. Perdew, and J. Sun.,  J. Phys. Chem. Lett. 11, 8208-8215 (2020)
[ 2]  J. W. Furness, A. D. Kaplan, J. Ning, J. P. Perdew, and J. Sun.,  J. Phys. Chem. Lett. 11, 9248-9248 (2020)

================================================================================
                                       INPUT FILE
================================================================================
NAME = sp_solv.inp
|  1> ! r2scan-3c def2/J RI DEFGRID2 scfconv6 printgap
|  2> %output
|  3>     printlevel normal
|  4> end
|  5> %cpcm
|  6>     smd true
|  7>     smdsolvent "water"
|  8> end
|  9> * xyz 0 1
| 10> C 0.8665959612 -1.8248258491 -0.0014480718
| 11> C 1.8808421964 -0.891779319 0.0068512282
| 12> C 1.5911764761 0.4784429251 0.0109448485
| 13> C 0.248724239 0.8759394122 0.0091627883
| 14> C -0.7448167397 -0.0798549173 0.0001247072
| 15> C -0.4646834184 -1.4344175586 -0.0044019877
| 16> Cl -2.4122332388 0.4428069163 -0.0006579653
| 17> N 2.5887607174 1.4077568344 -0.0437793577
| 18> H 1.1064741559 -2.8767812879 -0.002893575
| 19> H 2.910991824 -1.2128307353 0.0079051001
| 20> H -0.0063440065 1.9238280936 0.0119069011
| 21> H -1.2609022651 -2.1599998433 -0.0084750345
| 22> H 2.3532627609 2.3587541759 0.1801198676
| 23> H 3.5184753978 1.1058552783 0.1899323618
| 24> *
| 25> 
| 26>                          ****END OF INPUT****
================================================================================

                       ****************************
                       * Single Point Calculation *
                       ****************************

---------------------------------
CARTESIAN COORDINATES (ANGSTROEM)
---------------------------------
  C      0.866596   -1.824826   -0.001448
  C      1.880842   -0.891779    0.006851
  C      1.591176    0.478443    0.010945
  C      0.248724    0.875939    0.009163
  C     -0.744817   -0.079855    0.000125
  C     -0.464683   -1.434418   -0.004402
  Cl    -2.412233    0.442807   -0.000658
  N      2.588761    1.407757   -0.043779
  H      1.106474   -2.876781   -0.002894
  H      2.910992   -1.212831    0.007905
  H     -0.006344    1.923828    0.011907
  H     -1.260902   -2.160000   -0.008475
  H      2.353263    2.358754    0.180120
  H      3.518475    1.105855    0.189932

----------------------------
CARTESIAN COORDINATES (A.U.)
----------------------------
  NO LB      ZA    FRAG     MASS         X           Y           Z
   0 C     6.0000    0    12.011    1.637629   -3.448421   -0.002736
   1 C     6.0000    0    12.011    3.554277   -1.685219    0.012947
   2 C     6.0000    0    12.011    3.006888    0.904126    0.020683
   3 C     6.0000    0    12.011    0.470021    1.655286    0.017315
   4 C     6.0000    0    12.011   -1.407500   -0.150904    0.000236
   5 C     6.0000    0    12.011   -0.878124   -2.710656   -0.008319
   6 Cl   17.0000    0    35.453   -4.558460    0.836784   -0.001243
   7 N     7.0000    0    14.007    4.892049    2.660275   -0.082731
   8 H     1.0000    0     1.008    2.090933   -5.436329   -0.005468
   9 H     1.0000    0     1.008    5.500977   -2.291918    0.014938
  10 H     1.0000    0     1.008   -0.011988    3.635508    0.022501
  11 H     1.0000    0     1.008   -2.382760   -4.081808   -0.016015
  12 H     1.0000    0     1.008    4.447022    4.457399    0.340377
  13 H     1.0000    0     1.008    6.648955    2.089764    0.358920

--------------------------------
INTERNAL COORDINATES (ANGSTROEM)
--------------------------------
 C      0   0   0     0.000000000000     0.00000000     0.00000000
 C      1   0   0     1.378165494899     0.00000000     0.00000000
 C      2   1   0     1.400511330004   120.67601812     0.00000000
 C      3   2   1     1.400065941979   118.43009253     0.12823533
 C      4   3   2     1.378676235949   119.61527280   359.83932253
 C      5   4   3     1.383233573145   122.20669501     0.14461916
 Cl     5   4   3     1.747413456040   118.70492647   179.95319662
 N      3   2   1     1.364475503354   120.99852043   183.08435679
 H      1   2   3     1.078959629918   119.76657095   180.09895923
 H      2   1   3     1.079019637355   120.07763862   180.14511502
 H      4   3   2     1.078488770745   120.17394334   180.01888791
 H      6   5   4     1.077242170276   120.65838161   179.81487968
 H      8   3   2     1.004980643667   117.66077516   194.25215374
 H      8   3   2     1.005054776795   117.54184874   341.95924855

---------------------------
INTERNAL COORDINATES (A.U.)
---------------------------
 C      0   0   0     0.000000000000     0.00000000     0.00000000
 C      1   0   0     2.604355352579     0.00000000     0.00000000
 C      2   1   0     2.646582861162   120.67601812     0.00000000
 C      3   2   1     2.645741199771   118.43009253     0.12823533
 C      4   3   2     2.605320513289   119.61527280   359.83932253
 C      5   4   3     2.613932632489   122.20669501     0.14461916
 Cl     5   4   3     3.302132874644   118.70492647   179.95319662
 N      3   2   1     2.578485017783   120.99852043   183.08435679
 H      1   2   3     2.038938210102   119.76657095   180.09895923
 H      2   1   3     2.039051607725   120.07763862   180.14511502
 H      4   3   2     2.038048415218   120.17394334   180.01888791
 H      6   5   4     2.035692681733   120.65838161   179.81487968
 H      8   3   2     1.899138186423   117.66077516   194.25215374
 H      8   3   2     1.899278277732   117.54184874   341.95924855

---------------------
BASIS SET INFORMATION
---------------------
There are 4 groups of distinct atoms

 Group   1 Type C   : 11s6p1d contracted to 5s3p1d pattern {62111/411/1}
 Group   2 Type Cl  : 14s9p2d contracted to 5s4p2d pattern {73211/6111/11}
 Group   3 Type N   : 11s6p2d contracted to 5s3p2d pattern {62111/411/11}
 Group   4 Type H   : 4s1p contracted to 2s1p pattern {31/1}

Atom   0C    basis set group =>   1
Atom   1C    basis set group =>   1
Atom   2C    basis set group =>   1
Atom   3C    basis set group =>   1
Atom   4C    basis set group =>   1
Atom   5C    basis set group =>   1
Atom   6Cl   basis set group =>   2
Atom   7N    basis set group =>   3
Atom   8H    basis set group =>   4
Atom   9H    basis set group =>   4
Atom  10H    basis set group =>   4
Atom  11H    basis set group =>   4
Atom  12H    basis set group =>   4
Atom  13H    basis set group =>   4
---------------------------------
AUXILIARY/J BASIS SET INFORMATION
---------------------------------
There are 4 groups of distinct atoms

 Group   1 Type C   : 12s5p4d2f1g contracted to 6s4p3d1f1g pattern {711111/2111/211/2/1}
 Group   2 Type Cl  : 14s5p5d2f1g contracted to 8s4p3d1f1g pattern {71111111/2111/311/2/1}
 Group   3 Type N   : 12s5p4d2f1g contracted to 6s4p3d1f1g pattern {711111/2111/211/2/1}
 Group   4 Type H   : 5s2p1d contracted to 3s1p1d pattern {311/2/1}

Atom   0C    basis set group =>   1
Atom   1C    basis set group =>   1
Atom   2C    basis set group =>   1
Atom   3C    basis set group =>   1
Atom   4C    basis set group =>   1
Atom   5C    basis set group =>   1
Atom   6Cl   basis set group =>   2
Atom   7N    basis set group =>   3
Atom   8H    basis set group =>   4
Atom   9H    basis set group =>   4
Atom  10H    basis set group =>   4
Atom  11H    basis set group =>   4
Atom  12H    basis set group =>   4
Atom  13H    basis set group =>   4

Checking for AutoStart:
The File: sp_solv.gbw exists
Trying to determine its content:
     ... Fine, the file contains calculation information
     ... Fine, the calculation information was read
     ... Fine, the file contains a basis set
     ... Fine, the basis set was read
     ... Fine, the file contains a geometry
     ... Fine, the geometry was read
     ... Fine, the file contains a set of orbitals
     ... Fine, the orbitals can be read
     => possible old guess file was deleted
     => GBW file was renamed to GES file
     => GES file is set as startup file
     => Guess is set to MORead
     ... now leaving AutoStart

------------------------------------------------------------------------------
                             ORCA STARTUP CALCULATIONS
                           -- RI-GTO INTEGRALS CHOSEN --
------------------------------------------------------------------------------
------------------------------------------------------------------------------
                   ___                                                        
                  /   \      - P O W E R E D   B Y -                         
                 /     \                                                     
                 |  |  |   _    _      __       _____    __    __             
                 |  |  |  | |  | |    /  \     |  _  \  |  |  /  |          
                  \  \/   | |  | |   /    \    | | | |  |  | /  /          
                 / \  \   | |__| |  /  /\  \   | |_| |  |  |/  /          
                |  |  |   |  __  | /  /__\  \  |    /   |      \           
                |  |  |   | |  | | |   __   |  |    \   |  |\   \          
                \     /   | |  | | |  |  |  |  | |\  \  |  | \   \       
                 \___/    |_|  |_| |__|  |__|  |_| \__\ |__|  \__/        
                                                                              
                      - O R C A' S   B I G   F R I E N D -                    
                                      &                                       
                       - I N T E G R A L  F E E D E R -                       
                                                                              
 v1 FN, 2020, v2 2021, v3 2022-2024                                           
------------------------------------------------------------------------------


----------------------
SHARK INTEGRAL PACKAGE
----------------------

Number of atoms                             ...     14
Number of basis functions                   ...    195
Number of shells                            ...     93
Maximum angular momentum                    ...      2
Integral batch strategy                     ... SHARK/LIBINT Hybrid
RI-J (if used) integral strategy            ... SPLIT-RIJ (Revised 2003 algorithm where possible)
Printlevel                                  ...      1
Contraction scheme used                     ... SEGMENTED contraction
Prescreening option                         ... SCHWARTZ
   Thresh                                   ... 1.000e-10
   Tcut                                     ... 1.000e-11
   Tpresel                                  ... 1.000e-11 
Coulomb Range Separation                    ... NOT USED
Exchange Range Separation                   ... NOT USED
Multipole approximations                    ... NOT USED
Finite Nucleus Model                        ... NOT USED
CABS basis                                  ... NOT available
Auxiliary Coulomb fitting basis             ... AVAILABLE
   # of basis functions in Aux-J            ...    460
   # of shells in Aux-J                     ...    152
   Maximum angular momentum in Aux-J        ...      4
Auxiliary J/K fitting basis                 ... NOT available
Auxiliary Correlation fitting basis         ... NOT available
Auxiliary 'external' fitting basis          ... NOT available

Checking pre-screening integrals            ... done (  0.0 sec) Dimension = 93
Check shell pair data                       ... done (  0.0 sec)
Shell pair information
Shell pair cut-off parameter TPreSel        ...   1.0e-11
Total number of shell pairs                 ...      4371
Shell pairs after pre-screening             ...      3944
Total number of primitive shell pairs       ...     16865
Primitive shell pairs kept                  ...     10753
          la=0 lb=0:   1191 shell pairs
          la=1 lb=0:   1465 shell pairs
          la=1 lb=1:    463 shell pairs
          la=2 lb=0:    478 shell pairs
          la=2 lb=1:    293 shell pairs
          la=2 lb=2:     54 shell pairs

Calculating one electron integrals          ... done (  0.0 sec)
Calculating RI/J V-Matrix + Cholesky decomp.... done (  0.1 sec)
Calculating Nuclear repulsion               ... done (  0.0 sec) ENN=    398.468224137219 Eh

Diagonalization of the overlap matrix:
Smallest eigenvalue                        ... 3.116e-05
Time for diagonalization                   ...    0.004 sec
Threshold for overlap eigenvalues          ... 1.000e-07
Number of eigenvalues below threshold      ... 0
Time for construction of square roots      ...    0.013 sec
Total time needed                          ...    0.026 sec

-------------------
DFT GRID GENERATION
-------------------

General Integration Accuracy     IntAcc      ... 4.388
Radial Grid Type                 RadialGrid  ... OptM3 with GC (2021)
Angular Grid (max. ang.)         AngularGrid ... 4 (Lebedev-302)
Angular grid pruning method      GridPruning ... 4 (adaptive)
Weight generation scheme         WeightScheme... mBecke (2022)
Basis function cutoff            BFCut       ... 1.0000e-10
Integration weight cutoff        WCut        ... 1.0000e-14
Partially contracted basis set               ... off
Rotationally invariant grid construction     ... off
Angular grids for H and He will be reduced by one unit

Total number of grid points                  ...    68765
Total number of batches                      ...     1081
Average number of points per batch           ...       63
Average number of grid points per atom       ...     4912
Initializing property integral containers    ... done (  0.0 sec)

SHARK setup successfully completed in   1.0 seconds

Maximum memory used throughout the entire STARTUP-calculation: 32.1 MB
-------------------------------------------------------------------------------
                                 ORCA GUESS
                   Start orbitals & Density for SCF / CASSCF
-------------------------------------------------------------------------------

------------
SCF SETTINGS
------------
Hamiltonian:
 Density Functional     Method          .... DFT(GTOs)
  Functional kind                       .... Exchange
  Functional name                       .... Re-regularized SCAN exchange by Furness et al
  Functional family                     .... MGGA
  Functional refs                              
    [ 0] J. W. Furness, A. D. Kaplan, J. Ning, J. P. Perdew, and J. Sun.,  J. Phys. Chem. Lett. 11, 8208-8215 (2020), doi: 10.1021/acs.jpclett.0c02405
    [ 1] J. W. Furness, A. D. Kaplan, J. Ning, J. P. Perdew, and J. Sun.,  J. Phys. Chem. Lett. 11, 9248-9248 (2020), doi: 10.1021/acs.jpclett.0c03077
  Functional external parameters        .... 6
    Parameter  0 _c1        =  6.670000e-01 : c1 parameter        
    Parameter  1 _c2        =  8.000000e-01 : c2 parameter        
    Parameter  2 _d         =  1.240000e+00 : d parameter         
    Parameter  3 _k1        =  6.500000e-02 : k1 parameter        
    Parameter  4 _eta       =  1.000000e-03 : eta parameter       
    Parameter  5 _dp2       =  3.610000e-01 : dp2 parameter       
  Functional kind                       .... Correlation
  Functional name                       .... Re-regularized SCAN correlation by Furness et al
  Functional family                     .... MGGA
  Functional refs                              
    [ 0] J. W. Furness, A. D. Kaplan, J. Ning, J. P. Perdew, and J. Sun.,  J. Phys. Chem. Lett. 11, 8208-8215 (2020), doi: 10.1021/acs.jpclett.0c02405
    [ 1] J. W. Furness, A. D. Kaplan, J. Ning, J. P. Perdew, and J. Sun.,  J. Phys. Chem. Lett. 11, 9248-9248 (2020), doi: 10.1021/acs.jpclett.0c03077
  Functional external parameters        .... 1
    Parameter  0 _eta       =  1.000000e-03 : Regularization parameter
 Gradients option       PostSCFGGA      .... off
 RI-approximation to the Coulomb term is turned on
   Number of AuxJ basis functions       .... 460


General Settings:
 Integral files         IntName         .... sp_solv
 Hartree-Fock type      HFTyp           .... RHF
 Total Charge           Charge          ....    0
 Multiplicity           Mult            ....    1
 Number of Electrons    NEL             ....   66
 Basis Dimension        Dim             ....  195
 Nuclear Repulsion      ENuc            ....    398.4682241372 Eh

Convergence Acceleration:
 AO-DIIS                CNVDIIS         .... on
   Start iteration      DIISMaxIt       ....    12
   Startup error        DIISStart       ....  0.200000
   # of expansion vecs  DIISMaxEq       ....     5
   Bias factor          DIISBfac        ....   1.050
   Max. coefficient     DIISMaxC        ....  10.000
 MO-DIIS                CNVKDIIS        .... off
 Trust-Rad. Augm. Hess. CNVTRAH         .... auto
   Auto Start mean grad. ratio tolernc. ....  1.125000
   Auto Start start iteration           ....     1
   Auto Start num. interpolation iter.  ....    10
   Max. Number of Micro iterations      ....    24
   Max. Number of Macro iterations      .... Maxiter - #DIIS iter
   Number of Davidson start vectors     ....     2
   Converg. threshold    (grad. norm)   ....   3.330e-04
   Grad. Scal. Fac. for Micro threshold ....   0.100
   Minimum threshold for Micro iter.    ....   1.000e-02
   NR start threshold (gradient norm)   ....   1.000e-04
   Initial trust radius                 ....   0.400
   Minimum AH scaling param. (alpha)    ....   1.000
   Maximum AH scaling param. (alpha)    .... 1000.000
   Quad. conv. algorithm                .... NR
   White noise on init. David. guess    .... on
   Maximum white noise                  ....   0.010
   Pseudo random numbers                .... off
   Inactive MOs                         .... canonical
   Orbital update algorithm             .... Taylor
   Preconditioner                       .... Diag
   Full preconditioner red. dimension   ....   250
   COSX micro iterations for RIJONX calc.... off
 SOSCF                  CNVSOSCF        .... on
   Start iteration      SOSCFMaxIt      ....   150
   Startup grad/error   SOSCFStart      ....  0.003300
   Hessian update       SOSCFHessUp     .... L-BFGS
 Level Shifting         CNVShift        .... on
   Level shift para.    LevelShift      ....    0.2500
   Turn off err/grad.   ShiftErr        ....    0.0010
 Zerner damping         CNVZerner       .... off
 Static damping         CNVDamp         .... on
   Fraction old density DampFac         ....    0.7000
   Max. Damping (<1)    DampMax         ....    0.9800
   Min. Damping (>=0)   DampMin         ....    0.0000
   Turn off err/grad.   DampErr         ....    0.1000

SCF Procedure:
 Maximum # iterations   MaxIter         ....   125
 SCF integral mode      SCFMode         .... Direct
   Integral package                     .... SHARK and LIBINT hybrid scheme
 Reset frequency        DirectResetFreq ....    20
 Integral Threshold     Thresh          ....  1.000e-10 Eh
 Primitive CutOff       TCut            ....  1.000e-11 Eh

Convergence Tolerance:
 Convergence Check Mode ConvCheckMode   .... Total+1el-Energy
 Convergence forced     ConvForced      .... 0
 Energy Change          TolE            ....  1.000e-06 Eh
 1-El. energy change                    ....  1.000e-03 Eh
 Orbital Gradient       TolG            ....  3.330e-04
 Orbital Rotation angle TolX            ....  3.330e-04
 DIIS Error             TolErr          ....  1.000e-06

---------------------
INITIAL GUESS: MOREAD
---------------------
Guess MOs are being read from file: sp_solv.ges
Input Geometry matches current geometry (good)
Atom 0: N(Shells)= 9 and 6 - projection required
Input basis set needs projection
NBasis(read)= 128
NBasis(calc)= 195
Basis set overlap was calculated
Using GuessMode=FMatrix for the initial guess
C*T matrix was formed
Effective Fockian was calculated
Effective Fockian was diagonalized
Initial density was built
                      ------------------
                      INITIAL GUESS DONE (   0.0 sec)
                      ------------------
             **** ENERGY FILE WAS UPDATED (sp_solv.en.tmp) ****
Finished Guess after   0.3 sec
Maximum memory used throughout the entire GUESS-calculation: 13.4 MB

-------------------------------------------------------------------------------------------
                                      ORCA LEAN-SCF
                              memory conserving SCF solver
-------------------------------------------------------------------------------------------

--------------------
CPCM SOLVATION MODEL
--------------------
CPCM parameters:
  Epsilon                                         ...      78.3550
  Refrac                                          ...       1.3328
  Rsolv                                           ...       1.3000
  Surface type                                    ... GAUSSIAN VDW
  Discretization scheme                           ... Constant charge density
    Threshold for H atoms                         ...       5.0000 (charges/Ang^2)
    Threshold for non-H atoms                     ...       5.0000 (charges/Ang^2)
  Epsilon function type                           ...         CPCM
Solvent:                                          ... WATER
SMD-CDS solvent descriptors:
  Soln                                            ...       1.3328
  Soln25                                          ...       1.3323
  Sola                                            ...       0.0000
  Solb                                            ...       0.0000
  Solg                                            ...       0.0000
  Solc                                            ...       0.0000
  Solh                                            ...       0.0000
Radii:
  Scheme                                          ... Element-dependent radii
  Radius for C  used is    3.4960 Bohr (=   1.8500 Ang.)
  Radius for Cl used is    4.4975 Bohr (=   2.3800 Ang.)
  Radius for N  used is    3.5716 Bohr (=   1.8900 Ang.)
  Radius for H  used is    2.2677 Bohr (=   1.2000 Ang.)
Calculating surface                               ...        done! (  0.0s)
Cavity surface points                             ...         1221
Cavity Volume                                     ...     988.5755
Cavity Surface-area                               ...     579.6835
Calculating surface distance matrix               ...        done! (  0.0s)
Performing Cholesky decomposition & store         ...        done! (  0.1s)
Overall time for CPCM initialization              ...                 0.1s

----------------------------------------D-I-I-S--------------------------------------------
Iteration    Energy (Eh)           Delta-E    RMSDP     MaxDP     DIISErr   Damp  Time(sec)
-------------------------------------------------------------------------------------------
               ***  Starting incremental Fock matrix formation  ***
    1    -746.9600146537189858     0.00e+00  1.14e-02  4.45e-01  5.37e-01  0.700   2.4
    2    -747.0092208189986422    -4.92e-02  8.55e-03  3.19e-01  3.76e-01  0.700   2.3
    3    -747.0441490726478833    -3.49e-02  6.12e-03  2.23e-01  2.63e-01  0.700   2.2
                               ***Turning on AO-DIIS***
    4    -747.0687146225199058    -2.46e-02  4.38e-03  1.56e-01  1.84e-01  0.700   2.2
    5    -747.0859643251527586    -1.72e-02  3.09e-03  1.09e-01  1.29e-01  0.700   2.1
    6    -747.0980720138367133    -1.21e-02  2.17e-03  7.65e-02  9.03e-02  0.700   2.2
    7    -747.1065646145408436    -8.49e-03  5.09e-03  1.78e-01  6.32e-02  0.000   2.1
                              *** Initializing SOSCF ***
---------------------------------------S-O-S-C-F--------------------------------------
Iteration    Energy (Eh)           Delta-E    RMSDP     MaxDP     MaxGrad    Time(sec)
--------------------------------------------------------------------------------------
    8    -747.1264369867650430    -1.99e-02  3.80e-05  7.74e-04  4.86e-04     2.2
               *** Restarting incremental Fock matrix formation ***
    9    -747.1264373791376556    -3.92e-07  2.32e-05  4.17e-04  1.05e-04     2.5
   10    -747.1264365146247428     8.65e-07  1.06e-05  2.04e-04  2.15e-04     2.0
                 **** Energy Check signals convergence ****

               *****************************************************
               *                     SUCCESS                       *
               *           SCF CONVERGED AFTER  10 CYCLES          *
               *****************************************************


SMD CDS free energy correction energy :                 3.07172     Kcal/mol
Total Energy after SMD CDS correction =              -747.121541420 Eh
             **** ENERGY FILE WAS UPDATED (sp_solv.en.tmp) ****

----------------
TOTAL SCF ENERGY
----------------

Total Energy       :       -747.12154142040515 Eh          -20330.21071 eV

Components:
Nuclear Repulsion  :        398.46822413721918 Eh           10842.87162 eV
Electronic Energy  :      -1145.57776289867570 Eh          -31172.75572 eV
One Electron Energy:      -1813.32415079373459 Eh          -49343.05870 eV
Two Electron Energy:        667.74638789505889 Eh           18170.30297 eV
CPCM Dielectric    :         -0.01689775316829 Eh              -0.45981 eV
SMD CDS (Gcds)     :          0.00489509421954 Eh               0.13320 eV

Virial components:
Potential Energy   :      -1492.07176100056995 Eh          -40601.33675 eV
Kinetic Energy     :        744.95021958016480 Eh           20271.12604 eV
Virial Ratio       :          2.00291472071981

DFT components:
N(Alpha)           :       33.000036431548 electrons
N(Beta)            :       33.000036431548 electrons
N(Total)           :       66.000072863096 electrons
E(X)               :      -67.622746874928 Eh       
E(C)               :       -2.253663502783 Eh       
E(XC)              :      -69.876410377711 Eh       

CPCM Solvation Model Properties:
Surface-charge          :         -0.02684664237090
Corrected charge        :         -0.00000000000000
Outlying charge corr.   :          0.00005376003632 Eh               0.00146 eV
Free-energy (cav+disp)  :          0.00489509421954 Eh               0.13320 eV

---------------
SCF CONVERGENCE
---------------

  Last Energy change         ...   -8.6451e-07  Tolerance :   1.0000e-06
  Last MAX-Density change    ...    2.0446e-04  Tolerance :   1.0000e-05
  Last RMS-Density change    ...    1.0648e-05  Tolerance :   1.0000e-06
  Last DIIS Error            ...    4.8601e-04  Tolerance :   1.0000e-06
  Last Orbital Gradient      ...    2.1477e-04  Tolerance :   3.3300e-04
  Last Orbital Rotation      ...    3.2047e-04  Tolerance :   3.3300e-04


----------------
ORBITAL ENERGIES
----------------

  NO   OCC          E(Eh)            E(eV) 
   0   2.0000    -101.219840     -2754.3319 
   1   2.0000     -14.162421      -385.3791 
   2   2.0000     -10.096140      -274.7299 
   3   2.0000     -10.083203      -274.3779 
   4   2.0000     -10.038462      -273.1604 
   5   2.0000     -10.034287      -273.0468 
   6   2.0000     -10.029132      -272.9065 
   7   2.0000     -10.028123      -272.8791 
   8   2.0000      -9.375850      -255.1299 
   9   2.0000      -7.121821      -193.7946 
  10   2.0000      -7.112238      -193.5338 
  11   2.0000      -7.111781      -193.5214 
  12   2.0000      -0.894200       -24.3324 
  13   2.0000      -0.850314       -23.1382 
  14   2.0000      -0.790657       -21.5149 
  15   2.0000      -0.711758       -19.3679 
  16   2.0000      -0.692700       -18.8493 
  17   2.0000      -0.584554       -15.9065 
  18   2.0000      -0.570743       -15.5307 
  19   2.0000      -0.495003       -13.4697 
  20   2.0000      -0.483940       -13.1687 
  21   2.0000      -0.451554       -12.2874 
  22   2.0000      -0.410675       -11.1750 
  23   2.0000      -0.410061       -11.1583 
  24   2.0000      -0.394924       -10.7464 
  25   2.0000      -0.380283       -10.3480 
  26   2.0000      -0.340223        -9.2579 
  27   2.0000      -0.330554        -8.9948 
  28   2.0000      -0.321789        -8.7563 
  29   2.0000      -0.287278        -7.8172 
  30   2.0000      -0.283307        -7.7092 
  31   2.0000      -0.231405        -6.2968 
  32   2.0000      -0.188836        -5.1385 
  33   0.0000      -0.037196        -1.0121 
  34   0.0000      -0.018548        -0.5047 
  35   0.0000       0.010887         0.2963 
  36   0.0000       0.086425         2.3517 
  37   0.0000       0.113523         3.0891 
  38   0.0000       0.117102         3.1865 
  39   0.0000       0.127849         3.4789 
  40   0.0000       0.139942         3.8080 
  41   0.0000       0.143766         3.9121 
  42   0.0000       0.155893         4.2421 
  43   0.0000       0.186972         5.0878 
*Only the first 10 virtual orbitals were printed.

                    ********************************
                    * MULLIKEN POPULATION ANALYSIS *
                    ********************************

-----------------------
MULLIKEN ATOMIC CHARGES
-----------------------
   0 C :   -0.134737
   1 C :   -0.398795
   2 C :    0.460835
   3 C :   -0.475325
   4 C :    0.245322
   5 C :   -0.315259
   6 Cl:   -0.183227
   7 N :   -0.568293
   8 H :    0.184953
   9 H :    0.181236
  10 H :    0.190244
  11 H :    0.189398
  12 H :    0.311875
  13 H :    0.311774
Sum of atomic charges:   -0.0000000

--------------------------------
MULLIKEN REDUCED ORBITAL CHARGES
--------------------------------
  0 C s       :     3.193001  s :     3.193001
      pz      :     0.976981  p :     2.902557
      px      :     0.903789
      py      :     1.021786
      dz2     :     0.003244  d :     0.039180
      dxz     :     0.008474
      dyz     :     0.002684
      dx2y2   :     0.013021
      dxy     :     0.011758

  1 C s       :     3.307320  s :     3.307320
      pz      :     1.063689  p :     3.055840
      px      :     1.062422
      py      :     0.929729
      dz2     :     0.003295  d :     0.035636
      dxz     :     0.002818
      dyz     :     0.005490
      dx2y2   :     0.013524
      dxy     :     0.010509

  2 C s       :     3.063162  s :     3.063162
      pz      :     0.934945  p :     2.409796
      px      :     0.730159
      py      :     0.744692
      dz2     :     0.004526  d :     0.066207
      dxz     :     0.012446
      dyz     :     0.011497
      dx2y2   :     0.017509
      dxy     :     0.020229

  3 C s       :     3.333769  s :     3.333769
      pz      :     1.074724  p :     3.106987
      px      :     0.973210
      py      :     1.059053
      dz2     :     0.003432  d :     0.034569
      dxz     :     0.005906
      dyz     :     0.002838
      dx2y2   :     0.011073
      dxy     :     0.011320

  4 C s       :     3.082996  s :     3.082996
      pz      :     1.034148  p :     2.616303
      px      :     0.715986
      py      :     0.866169
      dz2     :     0.003843  d :     0.055380
      dxz     :     0.007655
      dyz     :     0.009594
      dx2y2   :     0.017366
      dxy     :     0.016922

  5 C s       :     3.252856  s :     3.252856
      pz      :     1.069410  p :     3.026248
      px      :     1.027098
      py      :     0.929740
      dz2     :     0.003341  d :     0.036155
      dxz     :     0.004302
      dyz     :     0.004812
      dx2y2   :     0.012009
      dxy     :     0.011690

  6 Cls       :     5.942188  s :     5.942188
      pz      :     3.938673  p :    11.188205
      px      :     3.336853
      py      :     3.912679
      dz2     :     0.005407  d :     0.052834
      dxz     :     0.017307
      dyz     :     0.002542
      dx2y2   :     0.014887
      dxy     :     0.012691

  7 N s       :     3.462255  s :     3.462255
      pz      :     1.713034  p :     4.067669
      px      :     1.169328
      py      :     1.185307
      dz2     :     0.003252  d :     0.038368
      dxz     :     0.005607
      dyz     :     0.005359
      dx2y2   :     0.015732
      dxy     :     0.008418

  8 H s       :     0.795535  s :     0.795535
      pz      :     0.003911  p :     0.019511
      px      :     0.003539
      py      :     0.012062

  9 H s       :     0.798934  s :     0.798934
      pz      :     0.004434  p :     0.019831
      px      :     0.011493
      py      :     0.003904

 10 H s       :     0.789662  s :     0.789662
      pz      :     0.004461  p :     0.020094
      px      :     0.003541
      py      :     0.012092

 11 H s       :     0.790514  s :     0.790514
      pz      :     0.004546  p :     0.020087
      px      :     0.008199
      py      :     0.007342

 12 H s       :     0.654947  s :     0.654947
      pz      :     0.010255  p :     0.033178
      px      :     0.004963
      py      :     0.017960

 13 H s       :     0.655052  s :     0.655052
      pz      :     0.010312  p :     0.033174
      px      :     0.017351
      py      :     0.005511


------------------------
MULLIKEN OVERLAP CHARGES
------------------------
B(  0-C ,  1-C ) :   0.8986 B(  0-C ,  2-C ) :  -0.1524 B(  0-C ,  4-C ) :  -0.2013 
B(  0-C ,  5-C ) :   0.9198 B(  0-C ,  8-H ) :   0.8300 B(  1-C ,  2-C ) :   0.9309 
B(  1-C ,  3-C ) :  -0.3224 B(  1-C ,  4-C ) :  -0.0680 B(  1-C ,  5-C ) :  -0.2056 
B(  1-C ,  7-N ) :  -0.0896 B(  1-C ,  8-H ) :  -0.0687 B(  1-C ,  9-H ) :   0.8214 
B(  2-C ,  3-C ) :   0.7808 B(  2-C ,  4-C ) :  -0.0772 B(  2-C ,  5-C ) :  -0.0774 
B(  2-C ,  7-N ) :   0.4244 B(  2-C ,  9-H ) :  -0.0777 B(  2-C , 12-H ) :  -0.1191 
B(  2-C , 13-H ) :  -0.1166 B(  3-C ,  4-C ) :   0.8554 B(  3-C ,  5-C ) :  -0.1443 
B(  3-C ,  7-N ) :  -0.0591 B(  3-C , 10-H ) :   0.7858 B(  4-C ,  5-C ) :   0.9523 
B(  4-C ,  6-Cl) :   0.3723 B(  4-C , 11-H ) :  -0.0897 B(  5-C ,  6-Cl) :  -0.1004 
B(  5-C ,  8-H ) :  -0.0789 B(  5-C , 11-H ) :   0.8391 B(  7-N , 12-H ) :   0.7574 
B(  7-N , 13-H ) :   0.7557 


                     *******************************
                     * LOEWDIN POPULATION ANALYSIS *
                     *******************************

----------------------
LOEWDIN ATOMIC CHARGES
----------------------
   0 C :   -0.153933
   1 C :   -0.175854
   2 C :    0.127251
   3 C :   -0.185363
   4 C :   -0.167667
   5 C :   -0.236021
   6 Cl:    0.093518
   7 N :   -0.578670
   8 H :    0.181759
   9 H :    0.184104
  10 H :    0.191532
  11 H :    0.183889
  12 H :    0.267548
  13 H :    0.267907

-------------------------------
LOEWDIN REDUCED ORBITAL CHARGES
-------------------------------
  0 C s       :     2.903845  s :     2.903845
      pz      :     0.961245  p :     3.165266
      px      :     1.094673
      py      :     1.109348
      dz2     :     0.005400  d :     0.084822
      dxz     :     0.015995
      dyz     :     0.004112
      dx2y2   :     0.031378
      dxy     :     0.027938

  1 C s       :     2.892653  s :     2.892653
      pz      :     1.051284  p :     3.205832
      px      :     1.108489
      py      :     1.046060
      dz2     :     0.005471  d :     0.077369
      dxz     :     0.004381
      dyz     :     0.009756
      dx2y2   :     0.031339
      dxy     :     0.026421

  2 C s       :     2.786255  s :     2.786255
      pz      :     0.881496  p :     2.944097
      px      :     1.023744
      py      :     1.038857
      dz2     :     0.009121  d :     0.142397
      dxz     :     0.023724
      dyz     :     0.021639
      dx2y2   :     0.042742
      dxy     :     0.045171

  3 C s       :     2.892747  s :     2.892747
      pz      :     1.068774  p :     3.216531
      px      :     1.045076
      py      :     1.102681
      dz2     :     0.005864  d :     0.076085
      dxz     :     0.010576
      dyz     :     0.004517
      dx2y2   :     0.026771
      dxy     :     0.028357

  4 C s       :     2.897752  s :     2.897752
      pz      :     1.016299  p :     3.152425
      px      :     0.998397
      py      :     1.137729
      dz2     :     0.007493  d :     0.117490
      dxz     :     0.014050
      dyz     :     0.017356
      dx2y2   :     0.039636
      dxy     :     0.038955

  5 C s       :     2.903372  s :     2.903372
      pz      :     1.064333  p :     3.252210
      px      :     1.111486
      py      :     1.076392
      dz2     :     0.005870  d :     0.080438
      dxz     :     0.007333
      dyz     :     0.008724
      dx2y2   :     0.029074
      dxy     :     0.029438

  6 Cls       :     5.652325  s :     5.652325
      pz      :     3.911798  p :    11.144103
      px      :     3.364478
      py      :     3.867827
      dz2     :     0.014066  d :     0.110053
      dxz     :     0.029559
      dyz     :     0.004038
      dx2y2   :     0.033942
      dxy     :     0.028448

  7 N s       :     3.142999  s :     3.142999
      pz      :     1.671944  p :     4.145687
      px      :     1.236082
      py      :     1.237661
      dz2     :     0.027792  d :     0.289984
      dxz     :     0.040849
      dyz     :     0.036063
      dx2y2   :     0.118810
      dxy     :     0.066470

  8 H s       :     0.772836  s :     0.772836
      pz      :     0.008579  p :     0.045405
      px      :     0.008002
      py      :     0.028824

  9 H s       :     0.769681  s :     0.769681
      pz      :     0.010219  p :     0.046215
      px      :     0.027425
      py      :     0.008571

 10 H s       :     0.761622  s :     0.761622
      pz      :     0.010379  p :     0.046845
      px      :     0.007480
      py      :     0.028986

 11 H s       :     0.768931  s :     0.768931
      pz      :     0.010609  p :     0.047180
      px      :     0.019269
      py      :     0.017302

 12 H s       :     0.644032  s :     0.644032
      pz      :     0.026398  p :     0.088420
      px      :     0.013688
      py      :     0.048333

 13 H s       :     0.643695  s :     0.643695
      pz      :     0.026555  p :     0.088398
      px      :     0.046759
      py      :     0.015083


---------------------------------
LOEWDIN BOND ORDERS (THRESH 0.050000)
---------------------------------
B(  0-C ,  1-C ) :   1.5419 B(  0-C ,  2-C ) :   0.0913 B(  0-C ,  3-C ) :   0.1136 
B(  0-C ,  4-C ) :   0.0957 B(  0-C ,  5-C ) :   1.4781 B(  0-C ,  8-H ) :   0.8654 
B(  0-C ,  9-H ) :   0.0541 B(  0-C , 11-H ) :   0.0530 B(  1-C ,  2-C ) :   1.2773 
B(  1-C ,  3-C ) :   0.0849 B(  1-C ,  4-C ) :   0.1102 B(  1-C ,  5-C ) :   0.0958 
B(  1-C ,  7-N ) :   0.2311 B(  1-C ,  8-H ) :   0.0556 B(  1-C ,  9-H ) :   0.8607 
B(  2-C ,  3-C ) :   1.2796 B(  2-C ,  4-C ) :   0.0942 B(  2-C ,  5-C ) :   0.0958 
B(  2-C ,  7-N ) :   1.5325 B(  2-C ,  9-H ) :   0.0523 B(  2-C , 10-H ) :   0.0514 
B(  2-C , 12-H ) :   0.0505 B(  2-C , 13-H ) :   0.0506 B(  3-C ,  4-C ) :   1.4677 
B(  3-C ,  5-C ) :   0.0966 B(  3-C ,  6-Cl) :   0.1582 B(  3-C ,  7-N ) :   0.2348 
B(  3-C , 10-H ) :   0.8555 B(  4-C ,  5-C ) :   1.4311 B(  4-C ,  6-Cl) :   1.3839 
B(  4-C , 10-H ) :   0.0533 B(  4-C , 11-H ) :   0.0537 B(  5-C ,  6-Cl) :   0.1515 
B(  5-C ,  7-N ) :   0.0557 B(  5-C ,  8-H ) :   0.0539 B(  5-C , 11-H ) :   0.8669 
B(  7-N , 12-H ) :   0.9054 B(  7-N , 13-H ) :   0.9049 

------------------------------------------
LOEWDIN REDUCED ORBITAL POPULATIONS PER MO
-------------------------------------------
THRESHOLD FOR PRINTING IS 0.1%%
                      0         1         2         3         4         5   
                 -101.21984 -14.16242 -10.09614 -10.08320 -10.03846 -10.03429
                   2.00000   2.00000   2.00000   2.00000   2.00000   2.00000
                  --------  --------  --------  --------  --------  --------
 0 C  s               0.0       0.0       0.0       0.0      99.5       0.0
 1 C  py              0.0       0.0       0.0       0.1       0.1       0.0
 2 C  s               0.0       0.0       0.0      99.2       0.0       0.0
 2 C  px              0.0       0.0       0.0       0.0       0.0       0.1
 3 C  s               0.0       0.0       0.0       0.0       0.0      99.6
 3 C  px              0.0       0.0       0.1       0.1       0.0       0.0
 4 C  s               0.0       0.0      99.5       0.0       0.0       0.0
 5 C  px              0.0       0.0       0.0       0.0       0.1       0.0
 5 C  py              0.0       0.0       0.1       0.0       0.0       0.0
 6 Cl s             100.0       0.0       0.0       0.0       0.0       0.0
 7 N  s               0.0      99.8       0.0       0.0       0.0       0.0
 7 N  dxy             0.0       0.0       0.0       0.2       0.0       0.0

                      6         7         8         9        10        11   
                 -10.02913 -10.02812  -9.37585  -7.12182  -7.11224  -7.11178
                   2.00000   2.00000   2.00000   2.00000   2.00000   2.00000
                  --------  --------  --------  --------  --------  --------
 0 C  px              0.1       0.1       0.0       0.0       0.0       0.0
 1 C  s               0.0      99.5       0.0       0.0       0.0       0.0
 2 C  py              0.0       0.1       0.0       0.0       0.0       0.0
 4 C  px              0.0       0.0       0.1       0.0       0.0       0.0
 4 C  py              0.1       0.0       0.0       0.0       0.0       0.0
 5 C  s              99.5       0.0       0.0       0.0       0.0       0.0
 6 Cl s               0.0       0.0      99.8       0.0       0.0       0.0
 6 Cl pz              0.0       0.0       0.0       0.0     100.0       0.0
 6 Cl px              0.0       0.0       0.0      91.1       0.0       8.9
 6 Cl py              0.0       0.0       0.0       8.9       0.0      91.1

                     12        13        14        15        16        17   
                  -0.89420  -0.85031  -0.79066  -0.71176  -0.69270  -0.58455
                   2.00000   2.00000   2.00000   2.00000   2.00000   2.00000
                  --------  --------  --------  --------  --------  --------
 0 C  s               1.3       2.5      13.3      13.1       0.1      10.7
 0 C  px              0.0       0.8       0.0       0.0      11.0       0.7
 0 C  py              0.7       0.5       1.6       0.2       0.6       2.5
 0 C  dz2             0.0       0.0       0.1       0.1       0.0       0.0
 0 C  dxy             0.0       0.0       0.0       0.0       0.3       0.0
 1 C  s               4.3       0.6       9.9       2.9      15.6       0.7
 1 C  px              0.2       0.9       2.4       0.2       0.3       2.3
 1 C  py              2.4       0.2       0.3       4.2       0.7      10.7
 1 C  dxy             0.0       0.0       0.0       0.2       0.0       0.2
 2 C  s              19.1       0.1       1.6       3.1       5.4       2.6
 2 C  px              1.8       3.5       2.1       9.0       0.1       4.5
 2 C  py              1.9       1.3       5.0       1.1       6.4       4.6
 2 C  dz2             0.4       0.0       0.0       0.0       0.0       0.0
 2 C  dx2y2           0.0       0.0       0.0       0.2       0.1       0.0
 2 C  dxy             0.3       0.1       0.1       0.1       0.1       0.0
 3 C  s               5.3       4.5       1.5      21.5       0.1       5.9
 3 C  px              1.8       3.4       0.7       0.0       2.6       0.4
 3 C  py              0.4       1.9       1.0       0.4       0.2       3.0
 3 C  dz2             0.1       0.0       0.0       0.1       0.0       0.0
 3 C  dxy             0.0       0.1       0.0       0.0       0.2       0.0
 4 C  s               2.7      21.7       0.0       2.1       6.2       1.5
 4 C  px              0.3       2.6      11.3       5.5       1.9       0.6
 4 C  py              0.1       0.1       2.4       6.7       4.9      10.1
 4 C  dz2             0.0       0.3       0.0       0.0       0.0       0.0
 4 C  dx2y2           0.0       0.0       0.2       0.0       0.3       0.1
 4 C  dxy             0.0       0.0       0.0       0.3       0.0       0.0
 5 C  s               1.2       7.7       6.0       4.9      13.9       2.3
 5 C  px              0.2       0.1       4.0       1.3       0.5       6.9
 5 C  py              0.4       2.9       0.1       2.2       0.8       3.6
 5 C  dx2y2           0.0       0.0       0.0       0.1       0.1       0.2
 6 Cl s               0.9      31.3      24.4       4.6       9.7       0.9
 6 Cl px              0.2       2.0       0.2       0.5       1.1       0.3
 6 Cl py              0.0       0.2       0.0       0.0       0.3       1.0
 6 Cl dz2             0.0       0.2       0.0       0.0       0.1       0.0
 6 Cl dx2y2           0.0       0.3       0.0       0.1       0.1       0.0
 6 Cl dxy             0.0       0.1       0.0       0.0       0.1       0.2
 7 N  s              36.9       5.9       4.8       2.3       3.1       0.6
 7 N  pz              0.2       0.0       0.0       0.0       0.1       0.1
 7 N  px              1.1       0.0       0.2       1.8       0.9       0.0
 7 N  py              0.9       0.0       0.3       0.2       2.4       7.5
 7 N  dz2             0.4       0.0       0.0       0.1       0.1       0.0
 7 N  dx2y2           0.0       0.0       0.0       0.3       0.1       0.3
 7 N  dxy             0.4       0.0       0.2       0.3       0.6       0.4
 8 H  s               0.1       0.2       1.4       2.4       0.0       5.4
 8 H  py              0.0       0.0       0.1       0.2       0.0       0.4
 9 H  s               0.4       0.0       1.0       0.6       3.0       0.4
 9 H  px              0.0       0.0       0.1       0.1       0.2       0.0
10 H  s               0.5       0.4       0.1       3.6       0.0       3.9
10 H  py              0.0       0.0       0.0       0.3       0.0       0.3
11 H  s               0.1       0.7       0.5       1.0       2.5       1.0
11 H  px              0.0       0.0       0.0       0.1       0.1       0.0
11 H  py              0.0       0.0       0.0       0.0       0.1       0.1
12 H  s               5.6       1.0       1.1       0.5       1.6       2.6
12 H  py              0.8       0.2       0.2       0.1       0.2       0.2
13 H  s               5.6       1.0       1.0       1.2       0.9       0.0
13 H  px              0.8       0.1       0.1       0.1       0.1       0.0

                     18        19        20        21        22        23   
                  -0.57074  -0.49500  -0.48394  -0.45155  -0.41068  -0.41006
                   2.00000   2.00000   2.00000   2.00000   2.00000   2.00000
                  --------  --------  --------  --------  --------  --------
 0 C  s               0.2       0.8       0.2       2.2       0.1       0.4
 0 C  px              7.8       0.2       8.0       0.2       0.7      10.2
 0 C  py              1.0       9.6       0.4       0.1       3.0       2.6
 0 C  dx2y2           0.0       0.0       0.0       0.1       0.1       0.2
 1 C  s               4.6       0.2       2.1       2.7       0.1       0.7
 1 C  px              1.2       8.2       0.4       5.3       3.9       2.3
 1 C  py              1.7       0.9       5.3       0.3       8.4       3.9
 1 C  dx2y2           0.0       0.0       0.0       0.0       0.2       0.0
 1 C  dxy             0.0       0.0       0.0       0.2       0.1       0.0
 2 C  s               5.4       0.0       0.0       0.6       1.4       0.2
 2 C  pz              0.0       0.1       0.0       0.3       0.3       0.1
 2 C  px              1.4       8.0       0.6       3.7       1.4       7.4
 2 C  py              4.7       2.9       2.6       3.3       6.9       1.6
 2 C  dx2y2           0.0       0.0       0.3       0.0       0.1       0.6
 2 C  dxy             0.0       0.0       0.0       0.8       0.0       0.0
 3 C  s               0.0       0.6       0.6       3.3       0.6       0.3
 3 C  px             13.9       3.8       1.8       0.4       0.4      12.0
 3 C  py              1.6       6.4       0.7       6.6       2.2       0.1
 3 C  dx2y2           0.1       0.0       0.0       0.1       0.3       0.0
 3 C  dxy             0.2       0.1       0.0       0.3       0.1       0.1
 4 C  s               6.3       0.7       0.7       2.4       0.0       0.0
 4 C  px              0.4       3.2       3.3       0.0       8.5       2.1
 4 C  py              3.0       2.3       4.0       0.3       5.8       5.8
 4 C  dx2y2           0.0       0.0       0.0       0.1       0.4       0.1
 4 C  dxy             0.1       0.0       0.0       0.1       0.0       0.0
 5 C  s               3.9       0.4       0.0       3.2       0.5       0.7
 5 C  px              0.2       2.2       5.3       9.1       0.3       5.2
 5 C  py              5.3       3.8       3.2       6.6       8.8       2.9
 5 C  dxy             0.0       0.0       0.0       0.2       0.0       0.0
 6 Cl s               4.0       2.9       1.1       0.2       2.1       0.1
 6 Cl px              4.3       7.5       2.4       2.6      22.9       0.2
 6 Cl py              0.0       0.2       2.2       0.0       1.4       5.7
 6 Cl dz2             0.1       0.1       0.0       0.0       0.1       0.0
 6 Cl dx2y2           0.4       0.2       0.0       0.2       0.2       0.1
 6 Cl dxy             0.0       0.0       0.3       0.0       0.0       0.3
 7 N  s               1.2       0.3       0.0       0.2       0.1       0.0
 7 N  pz              0.2       0.3       0.0       0.5       0.3       0.1
 7 N  px             13.1       2.5      18.3       9.5       0.4      10.6
 7 N  py              1.1      13.8      15.9       5.6       5.1       4.9
 7 N  dz2             0.0       0.0       0.0       0.2       0.0       0.0
 7 N  dx2y2           0.3       0.0       0.2       0.0       0.3       2.9
 7 N  dxy             0.6       0.1       0.0       0.2       0.3       0.0
 8 H  s               0.2       3.9       0.1       1.1       1.5       3.5
 8 H  py              0.0       0.2       0.0       0.1       0.0       0.1
 9 H  s               2.9       2.7       2.0       4.9       3.9       1.1
 9 H  px              0.2       0.1       0.2       0.2       0.1       0.0
10 H  s               0.0       3.4       0.0       6.3       2.3       0.1
10 H  py              0.0       0.2       0.0       0.2       0.1       0.0
11 H  s               2.5       2.1       0.0      11.4       1.3       0.0
11 H  px              0.1       0.1       0.0       0.2       0.1       0.1
11 H  py              0.0       0.0       0.0       0.2       0.0       0.0
12 H  s               0.4       4.3       7.1       1.1       1.8       3.5
12 H  px              0.1       0.1       0.0       0.1       0.0       0.0
12 H  py              0.0       0.2       0.4       0.0       0.0       0.2
13 H  s               4.3       0.3       8.8       2.0       0.0       6.0
13 H  px              0.2       0.0       0.5       0.0       0.0       0.2
13 H  py              0.1       0.2       0.0       0.1       0.1       0.0

                     24        25        26        27        28        29   
                  -0.39492  -0.38028  -0.34022  -0.33055  -0.32179  -0.28728
                   2.00000   2.00000   2.00000   2.00000   2.00000   2.00000
                  --------  --------  --------  --------  --------  --------
 0 C  s               0.4       0.0       0.1       0.0       0.1       0.1
 0 C  pz              0.0       6.9       0.0       0.5       0.0       0.8
 0 C  px              0.3       0.1      10.1       1.0       2.8       0.6
 0 C  py             20.6       0.0       4.1       0.3       6.8       0.7
 0 C  dx2y2           0.0       0.0       0.0       0.0       0.9       0.0
 0 C  dxy             0.1       0.0       0.6       0.0       0.0       0.0
 1 C  s               0.3       0.0       0.2       0.0       0.1       0.0
 1 C  pz              0.0       8.8       0.3       6.1       0.0       0.2
 1 C  px             10.4       0.1      11.0       1.0       5.2       0.0
 1 C  py              0.3       0.0       3.3       0.3       9.1       0.1
 1 C  dx2y2           0.0       0.0       0.1       0.0       0.9       0.0
 1 C  dxy             0.2       0.0       0.2       0.0       0.0       0.0
 2 C  s               0.1       0.0       0.1       0.0       0.0       0.2
 2 C  pz              0.0      16.9       1.2      15.3       0.0       0.0
 2 C  px              0.7       0.2       0.6       0.4       5.2       0.2
 2 C  py              0.1       0.1       0.4       0.2       8.5       0.0
 2 C  dx2y2           0.2       0.0       0.0       0.0       0.5       0.0
 2 C  dxy             0.0       0.0       0.6       0.1       0.0       0.0
 3 C  s               0.2       0.0       0.0       0.0       0.2       0.6
 3 C  pz              0.0      14.9       0.0       0.2       0.0       0.0
 3 C  px              0.1       0.0       2.9       0.5       5.4       1.7
 3 C  py             21.2       0.1       3.0       0.2       5.5       0.5
 3 C  dxz             0.0       0.0       0.0       0.3       0.0       0.0
 3 C  dyz             0.0       0.1       0.0       0.0       0.0       0.0
 3 C  dx2y2           0.1       0.0       0.0       0.0       0.6       0.0
 3 C  dxy             0.2       0.0       0.1       0.0       0.0       0.0
 4 C  s               0.7       0.0       0.0       0.0       0.2       0.0
 4 C  pz              0.0      20.5       1.6       9.6       0.0       0.0
 4 C  px              7.3       0.0       1.6       0.2       0.6       0.2
 4 C  py              0.4       0.0       4.0       0.3       3.3       3.1
 4 C  dxz             0.0       0.0       0.0       0.2       0.0       0.0
 4 C  dx2y2           0.0       0.0       0.0       0.0       0.4       0.3
 4 C  dxy             0.3       0.0       0.4       0.0       0.1       0.5
 5 C  s               0.1       0.0       0.2       0.0       0.2       0.4
 5 C  pz              0.0       9.7       0.5       1.6       0.0       0.5
 5 C  px              1.6       0.2      13.0       1.1       3.0       1.3
 5 C  py              0.3       0.1       5.4       0.3       4.5       2.2
 5 C  dx2y2           0.3       0.0       0.0       0.0       0.2       0.1
 5 C  dxy             0.0       0.0       1.0       0.1       0.0       0.0
 6 Cl s               0.6       0.0       0.0       0.0       0.1       0.0
 6 Cl pz              0.0      11.2       3.6      37.8       0.0       0.8
 6 Cl px              6.9       0.0       1.5       0.2       8.9       6.2
 6 Cl py              0.4       0.0       2.3       0.5       0.7      76.4
 6 Cl dxz             0.0       0.4       0.0       0.3       0.0       0.0
 7 N  s               0.0       0.1       0.6       0.2       0.0       0.1
 7 N  pz              0.0       7.1       2.0      16.6       0.0       0.5
 7 N  px              0.3       0.3       0.8       0.7       0.2       0.1
 7 N  py              1.1       0.2       1.2       0.6       0.7       0.0
 7 N  dz2             0.0       0.0       0.2       0.1       0.0       0.0
 7 N  dxz             0.0       0.4       0.0       0.3       0.0       0.0
 7 N  dyz             0.0       0.3       0.0       0.4       0.0       0.0
 7 N  dx2y2           0.2       0.0       0.0       0.0       1.2       0.0
 8 H  s               8.6       0.0       1.5       0.1       7.9       0.7
 8 H  px              0.0       0.0       0.1       0.0       0.0       0.0
 8 H  py              0.2       0.0       0.0       0.0       0.1       0.0
 9 H  s               3.5       0.0       4.0       0.5       7.6       0.1
 9 H  py              0.0       0.0       0.1       0.0       0.0       0.0
10 H  s               9.8       0.0       1.2       0.1       6.3       0.0
10 H  py              0.2       0.0       0.0       0.0       0.1       0.0
11 H  s               0.5       0.2      13.3       1.0       0.2       0.0
11 H  py              0.0       0.0       0.1       0.0       0.0       0.0
12 H  s               0.5       0.0       0.3       0.0       0.7       0.0
12 H  pz              0.0       0.1       0.0       0.2       0.0       0.0
13 H  s               0.2       0.0       0.1       0.0       0.5       0.1
13 H  pz              0.0       0.1       0.0       0.2       0.0       0.0

                     30        31        32        33        34        35   
                  -0.28331  -0.23140  -0.18884  -0.03720  -0.01855   0.01089
                   2.00000   2.00000   2.00000   0.00000   0.00000   0.00000
                  --------  --------  --------  --------  --------  --------
 0 C  s               0.0       0.0       0.0       0.0       0.0       0.7
 0 C  pz             25.1      14.1       0.7      22.8       8.9       0.0
 0 C  px              0.0       0.0       0.0       0.0       0.0       0.6
 0 C  py              0.1       0.0       0.0       0.0       0.0       0.2
 0 C  dxz             0.0       0.1       0.6       0.2       0.9       0.0
 0 C  dyz             0.1       0.0       0.0       0.3       0.0       0.0
 0 C  dx2y2           0.0       0.0       0.0       0.0       0.0       0.1
 0 C  dxy             0.0       0.0       0.0       0.0       0.0       0.2
 1 C  s               0.0       0.0       0.0       0.0       0.0       0.3
 1 C  pz              5.4      16.5      15.1      21.1       4.1       0.0
 1 C  py              0.0       0.0       0.0       0.0       0.0       0.1
 1 C  dxz             0.1       0.0       0.0       0.3       0.0       0.0
 1 C  dyz             0.2       0.1       0.1       0.3       1.2       0.0
 2 C  s               0.0       0.0       0.0       0.0       0.0       0.4
 2 C  pz              3.5       0.0       6.3       0.1      26.2       0.0
 2 C  px              0.1       0.0       0.0       0.0       0.0       0.5
 2 C  py              0.1       0.0       0.0       0.0       0.0       0.5
 2 C  dxz             0.1       0.4       0.6       0.6       0.0       0.0
 2 C  dyz             0.3       0.2       0.6       0.7       0.0       0.0
 2 C  dx2y2           0.0       0.0       0.0       0.0       0.0       0.1
 2 C  dxy             0.0       0.0       0.0       0.0       0.0       0.3
 3 C  pz              0.4      26.4      11.4      22.6       3.2       0.0
 3 C  px              0.1       0.0       0.0       0.0       0.0       0.1
 3 C  py              0.0       0.0       0.0       0.0       0.0       1.8
 3 C  dxz             0.0       0.1       0.1       0.2       1.3       0.0
 3 C  dyz             0.0       0.1       0.0       0.3       0.0       0.0
 3 C  dx2y2           0.0       0.0       0.0       0.0       0.0       1.6
 4 C  s               0.0       0.0       0.0       0.0       0.0       7.8
 4 C  pz              0.9      16.6       1.6      20.6       8.7       0.0
 4 C  px              0.0       0.0       0.0       0.0       0.0      20.3
 4 C  py              0.1       0.0       0.0       0.0       0.0       2.1
 4 C  dz2             0.0       0.0       0.0       0.0       0.0       0.7
 4 C  dxz             0.1       0.4       0.0       0.2       0.0       0.0
 4 C  dyz             0.2       0.1       0.6       0.3       0.9       0.0
 4 C  dx2y2           0.0       0.0       0.0       0.0       0.0       0.6
 4 C  dxy             0.0       0.0       0.0       0.0       0.0       0.3
 5 C  pz             18.6       0.2      22.1       0.0      27.8       0.0
 5 C  px              0.0       0.0       0.0       0.0       0.0       0.4
 5 C  py              0.1       0.0       0.0       0.0       0.0       1.3
 5 C  dxz             0.2       0.2       0.0       0.6       0.1       0.0
 5 C  dyz             0.0       0.3       0.0       0.8       0.1       0.0
 5 C  dxy             0.0       0.0       0.0       0.0       0.0       1.5
 6 Cl s               0.0       0.0       0.0       0.0       0.0       4.7
 6 Cl pz             19.8      21.4       0.9       1.9       0.7       0.0
 6 Cl px              0.2       0.0       0.0       0.0       0.0      24.3
 6 Cl py              2.0       0.0       0.0       0.0       0.0       2.3
 6 Cl dz2             0.0       0.0       0.0       0.0       0.0       3.6
 6 Cl dxz             0.0       0.7       0.1       2.0       1.5       0.0
 6 Cl dyz             0.0       0.0       0.1       0.6       0.0       0.0
 6 Cl dx2y2           0.0       0.0       0.0       0.0       0.0      10.4
 6 Cl dxy             0.0       0.0       0.0       0.0       0.0       5.0
 7 N  s               0.3       0.0       0.6       0.0       0.2       0.3
 7 N  pz             20.0       1.2      34.2       0.0       6.7       0.0
 7 N  px              0.3       0.0       0.2       0.0       0.1       0.1
 7 N  py              0.2       0.0       0.2       0.0       0.1       0.2
 7 N  dxz             0.1       0.1       0.9       0.6       2.6       0.0
 7 N  dyz             0.0       0.1       0.8       1.0       2.2       0.0
 7 N  dx2y2           0.0       0.0       0.0       0.0       0.0       0.3
 7 N  dxy             0.0       0.0       0.0       0.0       0.0       0.1
 8 H  s               0.0       0.0       0.0       0.0       0.0       0.8
 8 H  pz              0.2       0.2       0.0       0.7       0.3       0.0
 9 H  s               0.0       0.0       0.0       0.0       0.0       0.1
 9 H  pz              0.0       0.2       0.2       0.6       0.1       0.0
10 H  s               0.0       0.0       0.0       0.0       0.0       2.1
10 H  pz              0.0       0.3       0.1       0.7       0.1       0.0
10 H  py              0.0       0.0       0.0       0.0       0.0       0.2
11 H  s               0.0       0.0       0.0       0.0       0.0       1.7
11 H  pz              0.1       0.0       0.3       0.0       0.9       0.0
11 H  px              0.0       0.0       0.0       0.0       0.0       0.2
12 H  s               0.0       0.0       0.1       0.0       0.1       0.0
12 H  pz              0.3       0.0       0.6       0.0       0.2       0.0
13 H  s               0.0       0.0       0.1       0.0       0.1       0.1
13 H  pz              0.3       0.0       0.6       0.0       0.2       0.0

                     36        37        38        39        40        41   
                   0.08643   0.11352   0.11710   0.12785   0.13994   0.14377
                   0.00000   0.00000   0.00000   0.00000   0.00000   0.00000
                  --------  --------  --------  --------  --------  --------
 0 C  s               4.4      10.9       0.1       0.3       4.6       0.1
 0 C  pz              0.1       0.6      12.7       1.2       0.1       0.0
 0 C  px              0.1       1.2       0.1       0.4       0.1       6.9
 0 C  py              0.8       9.0       1.5       4.7       1.5       2.3
 0 C  dz2             0.3       0.0       0.0       0.2       0.1       0.0
 0 C  dyz             0.0       0.0       0.3       0.0       0.0       0.0
 0 C  dx2y2           0.0       1.0       0.2       0.5       0.0       0.1
 0 C  dxy             0.0       0.1       0.0       0.0       0.0       0.1
 1 C  s               9.1       3.7       0.1       0.1       3.9       6.7
 1 C  pz              0.1       0.6      12.9       1.4       0.1       0.0
 1 C  px              1.7       4.0       1.5      10.0       1.5      10.8
 1 C  py              1.8       4.0       0.5       1.0       0.6       2.9
 1 C  dz2             0.2       0.0       0.1       0.1       0.6       0.1
 1 C  dxz             0.0       0.0       0.5       0.1       0.0       0.0
 1 C  dx2y2           0.0       0.9       0.1       0.3       0.0       0.1
 1 C  dxy             0.2       0.8       0.1       0.0       0.2       0.3
 2 C  s              12.9       0.0       0.8       0.7       1.1       2.8
 2 C  pz              0.1       0.7      15.3       1.9       0.3       0.0
 2 C  px              1.4       3.5       0.3       2.5       1.7       0.8
 2 C  py              1.4       3.2       0.2       0.3       1.6       0.6
 2 C  dz2             0.9       0.0       0.1       0.1       0.1       0.4
 2 C  dx2y2           0.0       0.2       0.0       0.2       0.2       0.0
 2 C  dxy             0.1       1.0       0.1       0.0       1.0       0.6
 3 C  s              10.2       1.3       1.0       6.6       3.9       0.2
 3 C  pz              0.1       0.5      11.4       1.1       0.2       0.0
 3 C  px              1.3       2.7       0.0       4.7       3.5       3.5
 3 C  py              2.2       0.7       0.0       0.2      29.2       0.2
 3 C  dz2             0.2       0.0       0.1       0.4       0.5       0.0
 3 C  dyz             0.0       0.0       0.6       0.1       0.0       0.0
 3 C  dx2y2           0.0       0.0       0.0       0.0       0.3       0.2
 3 C  dxy             0.2       0.3       0.0       0.3       0.3       0.9
 4 C  s               5.5       2.9       0.7      12.9       1.5       4.1
 4 C  pz              0.1       0.4      10.0       0.8       0.1       0.0
 4 C  px              0.4       1.2       0.1       3.6       0.9       0.3
 4 C  py              0.1       0.2       0.1       0.7       0.8       0.5
 4 C  dz2             0.4       0.2       0.0       0.4       0.0       0.4
 4 C  dxz             0.0       0.0       0.2       0.0       0.0       0.0
 4 C  dx2y2           0.0       0.0       0.0       0.0       0.5       0.5
 4 C  dxy             0.0       0.1       0.0       0.1       0.0       0.2
 5 C  s               4.2       8.6       0.1       4.4       2.1       8.2
 5 C  pz              0.1       0.5      10.7       0.9       0.1       0.0
 5 C  px              0.1       2.1       0.0       1.0       0.3       7.3
 5 C  py              0.0       2.1       0.4       2.0       1.0      14.4
 5 C  dz2             0.1       0.0       0.1       0.4       0.3       0.3
 5 C  dxz             0.0       0.0       0.3       0.0       0.0       0.0
 5 C  dyz             0.0       0.0       0.2       0.0       0.0       0.0
 5 C  dx2y2           0.0       0.1       0.0       0.0       0.0       0.3
 5 C  dxy             0.1       0.2       0.0       0.3       0.1       0.1
 6 Cl s               0.2       1.7       0.0       3.4       0.9       0.0
 6 Cl pz              0.0       0.0       0.6       0.1       0.0       0.0
 6 Cl px              0.0       1.4       0.0       0.6       1.0       0.3
 6 Cl py              0.0       0.1       0.0       0.3       1.6       0.9
 6 Cl dz2             0.2       0.1       0.3       2.1       0.4       0.1
 6 Cl dxz             0.0       0.1       2.2       0.2       0.0       0.0
 6 Cl dyz             0.0       0.0       0.3       0.0       0.0       0.0
 6 Cl dx2y2           0.0       0.1       0.2       1.6       0.1       0.5
 6 Cl dxy             0.0       0.1       0.0       0.3       0.4       0.8
 7 N  s              11.3       3.8       0.0       2.2       0.2       0.1
 7 N  pz              0.2       0.1       1.2       0.4       0.1       0.0
 7 N  px              1.9       0.7       0.5       1.9       0.6       1.0
 7 N  py              1.8       1.1       0.1       0.2       2.5       1.1
 7 N  dz2             1.1       0.1       0.8       1.3       1.2       1.8
 7 N  dxz             0.1       0.0       1.4       0.0       0.1       0.0
 7 N  dyz             0.1       0.2       0.9       0.1       0.0       0.0
 7 N  dx2y2           0.0       0.8       0.1       0.4       0.7       0.1
 7 N  dxy             2.7       0.0       0.4       3.1       1.9       1.0
 8 H  s               0.1       3.6       0.6       1.9       0.3       0.1
 8 H  pz              0.0       0.0       0.7       0.1       0.0       0.0
 8 H  px              0.0       0.1       0.0       0.0       0.0       0.3
 8 H  py              0.0       2.1       0.2       0.5       0.3       0.2
 9 H  s               0.6       5.1       0.9       1.5       3.5       2.3
 9 H  pz              0.0       0.0       0.9       0.1       0.0       0.0
 9 H  px              0.4       1.4       0.2       1.0       0.3       1.2
 9 H  py              0.0       0.3       0.0       0.0       0.2       0.6
10 H  s               0.8       0.8       0.3       0.4      11.1       0.0
10 H  pz              0.0       0.0       0.8       0.1       0.0       0.0
10 H  px              0.0       0.2       0.0       0.2       0.2       0.9
10 H  py              0.4       0.1       0.0       0.0       4.2       0.1
11 H  s               0.4       1.4       0.3       1.9       0.3       4.3
11 H  pz              0.0       0.0       0.7       0.1       0.0       0.0
[...]
 3 C  dxy             0.5       6.8       6.8       0.0       0.6       0.8
 4 C  s               0.3       0.6       0.0       0.0       0.4       0.2
 4 C  px              0.2       0.4       0.5       0.0       0.1       0.0
 4 C  py              0.1       0.2       5.0       0.0       0.0       0.0
 4 C  dz2             0.3       0.0       0.0       0.0       0.0       0.0
 4 C  dx2y2           0.1       1.6       4.1       0.0       1.0       0.7
 4 C  dxy             0.3       1.4       5.6       0.2       0.8       0.4
 5 C  s               3.5       0.1       0.1       0.1       0.3       0.1
 5 C  px              1.8       0.0       1.9       0.3       1.2       0.2
 5 C  py              1.8       0.1       2.9       0.1       0.6       0.2
 5 C  dz2             2.4       0.1       0.0       0.1       0.4       0.1
 5 C  dx2y2           0.1       0.2      10.0       0.0       0.1       0.0
 5 C  dxy             7.5       0.5       0.0       2.2       8.5       2.6
 6 Cl s               0.1       0.2       0.0       0.0       0.0       0.0
 6 Cl px              0.2       0.5       0.0       0.0       0.1       0.0
 6 Cl py              0.0       0.1       0.0       0.0       0.0       0.0
 6 Cl dx2y2           0.0       0.1       0.1       0.0       0.0       0.0
 7 N  s               1.0       1.1       0.1      21.1       2.4       0.6
 7 N  pz              0.0       0.0       0.0       0.3       0.3       0.1
 7 N  px              0.7       1.9       0.3       2.5       2.3       6.4
 7 N  py              1.2       0.1       0.8       2.4       2.2       5.8
 7 N  dz2             0.5       0.9       0.0      28.7       3.0       0.0
 7 N  dxz             0.0       0.2       0.4       0.6       0.6       0.5
 7 N  dyz             0.0       0.2       0.5       0.3       0.5       0.5
 7 N  dx2y2           0.1       1.1       0.5       0.0       0.0       0.2
 7 N  dxy             0.8       0.7       0.1       0.7      10.9      26.3
 8 H  s               0.0       1.8       0.0       0.7       3.1       0.8
 8 H  px              0.1       0.5       0.3       0.0       0.3       0.1
 8 H  py              0.2       5.7       0.0       1.9       6.6       1.1
 9 H  s               5.3       0.9       0.0       0.0       1.7       1.4
 9 H  px             18.3       2.4       0.0       0.0       3.0       2.4
 9 H  py              1.0       0.3       0.2       0.0       0.4       0.2
10 H  s               0.3       8.2       0.2       0.3       0.5       1.0
10 H  px              0.0       1.1       0.3       0.0       0.1       0.1
10 H  py              1.4      25.6       0.5       0.6       0.8       1.8
11 H  s               5.8       0.1       0.0       0.7       2.6       0.6
11 H  px             12.3       0.3       0.0       0.8       2.9       0.6
11 H  py              9.3       0.0       0.1       1.0       2.8       0.5
12 H  s               0.0       0.0       0.1       1.5       2.1       2.1
12 H  pz              0.0       0.0       0.0       0.5       0.3       0.3
12 H  px              0.0       0.2       0.2       0.5       0.1       0.0
12 H  py              0.0       0.1       0.6       5.6       4.5       3.2
13 H  s               0.0       0.0       0.1       1.6       2.1       1.8
13 H  pz              0.0       0.1       0.0       0.5       0.4       0.2
13 H  px              0.0       0.0       0.7       5.7       4.4       2.8
13 H  py              0.0       0.3       0.1       0.5       0.3       0.0

                    186       187       188       189       190       191   
                   4.32410  21.38054  21.88911  21.98718  22.16585  22.17915
                   0.00000   0.00000   0.00000   0.00000   0.00000   0.00000
                  --------  --------  --------  --------  --------  --------
 0 C  s               0.0      14.5      21.2      12.5       0.8      27.3
 1 C  s               0.2      11.4      33.2       1.7      31.2       2.7
 1 C  dx2y2           0.1       0.0       0.0       0.0       0.0       0.0
 2 C  s               0.0       8.5       6.3      26.9      15.7      26.3
 2 C  px              0.3       0.0       0.0       0.1       0.1       0.0
 2 C  py              0.3       0.0       0.1       0.0       0.0       0.1
 2 C  dx2y2           1.0       0.0       0.0       0.0       0.0       0.0
 3 C  s               0.3      15.9       5.0      27.2       6.5      31.4
 3 C  px              0.1       0.0       0.1       0.0       0.0       0.0
 4 C  s               0.0      32.1      33.4       0.5      21.8       2.4
 4 C  py              0.0       0.0       0.0       0.1       0.0       0.0
 5 C  s               0.0      17.3       0.4      30.5      23.6       9.5
 7 N  s               0.0       0.1       0.0       0.1       0.0       0.0
 7 N  px              8.8       0.0       0.0       0.0       0.0       0.0
 7 N  py              9.6       0.0       0.0       0.0       0.0       0.0
 7 N  dxz             4.3       0.0       0.0       0.0       0.0       0.0
 7 N  dyz             4.7       0.0       0.0       0.0       0.0       0.0
 7 N  dx2y2          31.7       0.0       0.0       0.0       0.0       0.0
 7 N  dxy             0.2       0.0       0.0       0.0       0.0       0.0
12 H  s               8.3       0.0       0.0       0.0       0.0       0.0
12 H  pz              0.5       0.0       0.0       0.0       0.0       0.0
12 H  px              1.0       0.0       0.0       0.0       0.0       0.0
12 H  py              9.0       0.0       0.0       0.0       0.0       0.0
13 H  s               8.4       0.0       0.0       0.0       0.0       0.0
13 H  pz              0.5       0.0       0.0       0.0       0.0       0.0
13 H  px              8.5       0.0       0.0       0.0       0.0       0.0
13 H  py              1.4       0.0       0.0       0.0       0.0       0.0

                    192       193       194   
                  22.31567  25.32405  31.91344
                   0.00000   0.00000   0.00000
                  --------  --------  --------
 0 C  s              23.5       0.0       0.0
 1 C  s              19.4       0.0       0.0
 2 C  s              15.7       0.0       0.1
 3 C  s              13.5       0.0       0.0
 4 C  s               9.4       0.0       0.0
 4 C  px              0.0       0.4       0.0
 5 C  s              18.3       0.1       0.0
 6 Cl s               0.0      99.2       0.0
 7 N  s               0.0       0.0      99.7


                      *****************************
                      * MAYER POPULATION ANALYSIS *
                      *****************************

  NA   - Mulliken gross atomic population
  ZA   - Total nuclear charge
  QA   - Mulliken gross atomic charge
  VA   - Mayer's total valence
  BVA  - Mayer's bonded valence
  FA   - Mayer's free valence

  ATOM       NA         ZA         QA         VA         BVA        FA
  0 C      6.1347     6.0000    -0.1347     3.7652     3.7652     0.0000
  1 C      6.3988     6.0000    -0.3988     3.8122     3.8122    -0.0000
  2 C      5.5392     6.0000     0.4608     3.5059     3.5059    -0.0000
  3 C      6.4753     6.0000    -0.4753     3.9169     3.9169    -0.0000
  4 C      5.7547     6.0000     0.2453     3.5644     3.5644    -0.0000
  5 C      6.3153     6.0000    -0.3153     3.8152     3.8152    -0.0000
  6 Cl    17.1832    17.0000    -0.1832     1.0760     1.0760    -0.0000
  7 N      7.5683     7.0000    -0.5683     3.0074     3.0074    -0.0000
  8 H      0.8150     1.0000     0.1850     0.9557     0.9557    -0.0000
  9 H      0.8188     1.0000     0.1812     0.9610     0.9610    -0.0000
 10 H      0.8098     1.0000     0.1902     0.9595     0.9595    -0.0000
 11 H      0.8106     1.0000     0.1894     0.9564     0.9564     0.0000
 12 H      0.6881     1.0000     0.3119     0.9004     0.9004    -0.0000
 13 H      0.6882     1.0000     0.3118     0.9003     0.9003    -0.0000

  Mayer bond orders larger than 0.100000
B(  0-C ,  1-C ) :   1.4150 B(  0-C ,  5-C ) :   1.3699 B(  0-C ,  8-H ) :   0.9523 
B(  1-C ,  2-C ) :   1.2951 B(  1-C ,  9-H ) :   0.9586 B(  2-C ,  3-C ) :   1.3224 
B(  2-C ,  7-N ) :   0.9793 B(  3-C ,  4-C ) :   1.3874 B(  3-C , 10-H ) :   0.9368 
B(  4-C ,  5-C ) :   1.3386 B(  4-C ,  6-Cl) :   0.8653 B(  5-C , 11-H ) :   0.9526 
B(  7-N , 12-H ) :   0.9034 B(  7-N , 13-H ) :   0.9028 

-------
TIMINGS
-------

Total SCF time: 0 days 0 hours 0 min 22 sec 

Total time                  ....      22.679 sec
Sum of individual times     ....      22.241 sec  ( 98.1%)

SCF preparation             ....       0.251 sec  (  1.1%)
Fock matrix formation       ....      21.143 sec  ( 93.2%)
  Startup                   ....       0.059 sec  (  0.3% of F)
  Split-RI-J                ....       3.278 sec  ( 15.5% of F)
  XC integration            ....      13.502 sec  ( 63.9% of F)
    XC Preparation          ....       0.000 sec  (  0.0% of XC)
    Basis function eval.    ....       2.217 sec  ( 16.4% of XC)
    Density eval.           ....       4.128 sec  ( 30.6% of XC)
    XC-Functional eval.     ....       1.606 sec  ( 11.9% of XC)
    XC-Potential eval.      ....       4.746 sec  ( 35.2% of XC)
  CPCM terms                ....       3.774 sec  ( 17.9% of F)
Diagonalization             ....       0.000 sec  (  0.0%)
Density matrix formation    ....       0.228 sec  (  1.0%)
Total Energy calculation    ....       0.042 sec  (  0.2%)
Population analysis         ....       0.091 sec  (  0.4%)
Orbital Transformation      ....       0.052 sec  (  0.2%)
Orbital Orthonormalization  ....       0.000 sec  (  0.0%)
DIIS solution               ....       0.350 sec  (  1.5%)
  MO trafo                  ....       0.000 sec  (  0.0 % of DIIS)
  Orb grad                  ....       0.000 sec  (  0.0 % of DIIS)
  Energy W gradient         ....       0.000 sec  (  0.0 % of DIIS)
  DIIS error                ....       0.008 sec  (  2.3 % of DIIS)
  DIIS work                 ....       0.298 sec  ( 85.0 % of DIIS)
  Form Q                    ....       0.000 sec  (  0.0 % of DIIS)
  Form QpQm                 ....       0.000 sec  (  0.0 % of DIIS)
  Exp/Cayley                ....       0.000 sec  (  0.0 % of DIIS)
  Orb update                ....       0.000 sec  (  0.0 % of DIIS)
  Wake-sleep                ....       0.018 sec  (  5.2 % of DIIS)
SOSCF solution              ....       0.084 sec  (  0.4%)
  MO trafo                  ....       0.045 sec  ( 54.1 % of SOSCF)
  Orb grad                  ....       0.001 sec  (  1.5 % of SOSCF)
  Rot update                ....       0.014 sec  ( 16.4 % of SOSCF)
  Step                      ....       0.023 sec  ( 27.8 % of SOSCF)
Finished LeanSCF after  22.8 sec

Maximum memory used throughout the entire LEANSCF-calculation: 23.0 MB


-------------------------------------------------------------------------------
                          DFT DISPERSION CORRECTION                            
                                                                               
                                DFTD4 V3.4.0                                   
-------------------------------------------------------------------------------
The R2SCAN3C composite method is recognized
Using three-body term ABC
Active option DFTDOPT                   ...         5   

-------------------------   ----------------
Dispersion correction           -0.004872581
-------------------------   ----------------

------------------   -----------------
gCP correction             0.006779963
------------------   -----------------

-------------------------   --------------------
FINAL SINGLE POINT ENERGY      -747.119634038449
-------------------------   --------------------


------------------------------------------------------------------------------
                              ORCA PROPERTY CALCULATIONS
------------------------------------------------------------------------------

GBWName                                 ... sp_solv.gbw
Number of atoms                         ...     14
Number of basis functions               ...    195
Max core memory                         ...   1024 MB

Electric properties:
Dipole moment                           ... YES
Quadrupole moment                       ...  NO
Static polarizability (Dipole/Dipole)   ...  NO
Static polarizability (Dipole/Quad.)    ...  NO
Static polarizability (Quad./Quad.)     ...  NO
Static polarizability (Velocity)        ...  NO

Atomic electric properties:
Dipole moment                           ...  NO
Quadrupole moment                       ...  NO
Static polarizability                   ...  NO

Choice of electric origin               ... Center of mass
Position of electric origin             ...     0.000030    -0.000005     0.000000

General magnetic properties:
Magnetizability                         ...  NO

EPR properties:
g-Tensor (aka g-matrix)                 ...  NO
Zero-Field splitting spin-orbit         ...  NO
Zero-field splitting spin-spin          ...  NO
Hyperfine couplings                     ...  NO (   0 nuclei)
Quadrupole couplings                    ...  NO (   0 nuclei)
Contact density                         ...  NO (   0 nuclei)

NMR properties:
Chemical shifts                         ...  NO (   0 nuclei)
Spin-rotation constants                 ...  NO (   0 nuclei)
Spin-spin couplings                     ...  NO (   0 nuclei,    0 pairs)

Choice of magnetic origin               ... GIAO
Position of magnetic origin             ...     0.000000     0.000000     0.000000

Properties with geometric perturbations:
SCF Hessian                             ...  NO
IR spectrum                             ...  NO
VCD spectrum                            ...  NO
X-ray spectroscopy properties:
SCF XES/XAS/RIXS spectra                ...  NO


-------------
DIPOLE MOMENT
-------------

Method             : SCF
Type of density    : Electron Density
Multiplicity       :   1
Irrep              :   0
Energy             :  -747.1215414204051513 Eh
Relativity type    : 
Basis              : AO
                                X                 Y                 Z
Electronic contribution:     -9.623735153       1.825882596      -0.019187053
Nuclear contribution   :     11.340822371      -1.394507858       0.355737209
                        -----------------------------------------
Total Dipole Moment    :      1.717087219       0.431374738       0.336550156
                        -----------------------------------------
Magnitude (a.u.)       :      1.802148354
Magnitude (Debye)      :      4.580697081



--------------------
Rotational spectrum 
--------------------
 
Rotational constants in cm-1:             0.115295             0.039983             0.029698 
Rotational constants in MHz :          3456.468880          1198.646663           890.318847 

Dipole components along the rotational axes: 
x,y,z [a.u.] :     1.717089    -0.431369     0.336550 
x,y,z [Debye]:     4.364493    -1.096453     0.855442 

 

Dipole moment calculation done in   0.0 sec 

Maximum memory used throughout the entire PROP-calculation: 12.0 MB

--------------------------------
SUGGESTED CITATIONS FOR THIS RUN
--------------------------------

Below you find a list of papers that are relevant to this ORCA run
We neither can nor want to force you to cite these papers, but we appreciate if you do
You receive ORCA, which is the product of decades of hard work by many enthusiastic individuals, for free
The only thing we kindly ask in return is that you cite our papers,
We deeply appreciate it, if you show your appreciation for ORCA by not just citing the generic ORCA reference.

Please note that relegating all ORCA citations to the supporting information does *not* help us.
SI sections are not indexed - citations you put there will not count into any citation statistics
But we need these citations in order to attract the funding resources that allow us to do what we are doing

Therefore, if you are a happy ORCA user, please consider citing a few of the papers listed below in the main body of your paper

In addition to the list printed below, the program has created the file sp_solv.bibtex that contains the list in bibtex format
You can import this file easily into all common literature databanks and citation aid programs


List of essential papers. We consider these as the minimum necessary citations

  1. Neese,F.
     Software update: the ORCA program system, version 5.0
     WIRES Comput. Molec. Sci., 2022 12(1)e1606
     doi.org/10.1002/wcms.1606
  2. Grimme,S.; Hansen,A.; Ehlert,S.; Mewes,J.
     r2SCAN-3c: A 'Swiss army knife' composite electronic-structure method
     J. Chem. Phys., 2021 154 064103
     doi.org/10.1063/5.0040021

List of papers to cite with high priority. The work reported in these papers was absolutely
necessary for this run to complete.
Our perspective: the developers of density functionals and basis sets usually get cited in chemistry papers
Good! But without the algorithms to do something with them, the functionals or basis sets would not do anything.
Hence, in our opinion, the algorithm design and method developments papers are equally worthy of getting cited

  1. Neese,F.
     An improvement of the resolution of the identity approximation for the formation of the Coulomb matrix
     J. Comp. Chem., 2003 24(14)1740-1747
     doi.org/10.1002/jcc.10318
  2. Garcia-Rates,M.; Neese,F.
     Effect of the Solute Cavity on the Solvation Energy and its Derivatives within the Framework of the Gaussian Charge Scheme
     J. Comput. Chem., 2020 41 922-939
     doi.org/10.1002/jcc.26139
  3. Neese,F.
     The SHARK Integral Generation and Digestion System
     J. Comp. Chem., 2022  1-16
     doi.org/10.1002/jcc.26942
  4. Lehtola,S.; Steigemann,C.; Oliveira,M.; Marques,M.
     Recent developments in Libxc - A comprehensive library of functionals for density functional theory
     Software X, 2018 7 
     doi.org/10.1016/j.softx.2017.11.002
  5. Caldeweyher,E.; Bannwarth,C.; Grimme,S.
     Extension of the D3 dispersion coefficient model
     J. Chem. Phys., 2017 147 034112-XXXX
     doi.org/10.1063/1.4993215
  6. Caldeweyher,E.; Ehlert,S.; Hansen,A.; Neugebauer,H.; Spicher,S.; Bannwarth,C.; Grimme,S.
     A generally applicable atomic-charge dependent London dispersion correction
     J. Chem. Phys., 2019 150 154122-XXXX
     doi.org/10.1063/1.5090222
  7. Caldeweyher,E.; Mewes,J.; Ehlert,S.; Grimme,S.
     Extension and evaluation of the D4 London-dispersion model for periodic systems
     Phys. Chem. Chem. Phys., 2020 22(16)8499-8512
     doi.org/10.1039/D0CP00502A

List of suggested additional citations. These are papers that are important in the 'surrounding' of 
of this run, or papers that preceded the highly important papers. If you like your results we are grateful for a citation.

  1. Neese,F.
     The ORCA program system
     WIRES Comput. Molec. Sci., 2012 2(1)73-78
     doi.org/10.1002/wcms.81
  2. Neese,F.
     Software update: the ORCA program system, version 4.0
     WIRES Comput. Molec. Sci., 2018 8(1)1-6
     doi.org/10.1002/wcms.1327
  3. Neese,F.; Wennmohs,F.; Becker,U.; Riplinger,C.
     The ORCA quantum chemistry program package
     J. Chem. Phys., 2020 152 Art. No. L224108
     doi.org/10.1063/5.0004608

List of optional additional citations

  1. Neese,F.
     Approximate second-order SCF convergence for spin unrestricted wavefunctions
     Chem. Phys. Lett., 2000 325(1-3)93-98
     doi.org/10.1016/s0009-2614(00)00662-x

Timings for individual modules:

Sum of individual times          ...       24.232 sec (=   0.404 min)
Startup calculation              ...        1.016 sec (=   0.017 min)   4.2 %
SCF iterations                   ...       23.110 sec (=   0.385 min)  95.4 %
Property calculations            ...        0.107 sec (=   0.002 min)   0.4 %
                             ****ORCA TERMINATED NORMALLY****
TOTAL RUN TIME: 0 days 0 hours 0 minutes 24 seconds 900 msec
