
                                 *****************
                                 * O   R   C   A *
                                 *****************

                                            #,                                       
                                            ###                                      
                                            ####                                     
                                            #####                                    
                                            ######                                   
                                           ########,                                 
                                     ,,################,,,,,                         
                               ,,#################################,,                 
                          ,,##########################################,,             
                       ,#########################################, ''#####,          
                    ,#############################################,,   '####,        
                  ,##################################################,,,,####,       
                ,###########''''           ''''###############################       
              ,#####''   ,,,,##########,,,,          '''####'''          '####       
            ,##' ,,,,###########################,,,                        '##       
           ' ,,###''''                  '''############,,,                           
         ,,##''                                '''############,,,,        ,,,,,,###''
      ,#''                                            '''#######################'''  
     '                                                          ''''####''''         
             ,#######,   #######,   ,#######,      ##                                
            ,#'     '#,  ##    ##  ,#'     '#,    #''#        ,####,   ,####,        
            ##       ##  ##   ,#'  ##            #'  '#       #'       #'  '#        
            ##       ##  #######   ##           ,######,      #####,   #    #        
            '#,     ,#'  ##    ##  '#,     ,#' ,#      #,     #,   #   #,  ,#        
             '#######'   ##     ##  '#######'  #'      '#     '####' # '####'        



                #########################################################
                #                        -***-                          #
                #          Department of theory and spectroscopy        #
                #                                                       #
                #                      Frank Neese                      #
                #                                                       #
                #     Directorship, Architecture, Infrastructure        #
                #                    SHARK, DRIVERS                     #
                #        Core code/Algorithms in most modules           #
                #                                                       #
                #        Max Planck Institute fuer Kohlenforschung      #
                #                Kaiser Wilhelm Platz 1                 #
                #                 D-45470 Muelheim/Ruhr                 #
                #                      Germany                          #
                #                                                       #
                #                  All rights reserved                  #
                #                        -***-                          #
                #########################################################


                         Program Version 6.0.0  -   RELEASE  -


 With contributions from (in alphabetic order):
   Daniel Aravena         : Magnetic Suceptibility
   Michael Atanasov       : Ab Initio Ligand Field Theory (pilot matlab implementation)
   Alexander A. Auer      : GIAO ZORA, VPT2 properties, NMR spectrum
   Ute Becker             : All parallelization in ORCA, NUMFREQ, NUMCALC
   Giovanni Bistoni       : ED, misc. LED, open-shell LED, HFLD
   Martin Brehm           : Molecular dynamics
   Dmytro Bykov           : pre 5.0 version of the SCF Hessian
   Marcos Casanova-Páez   : Triplet and SCS-CIS(D). UHF-(DLPNO)-IP/EA/STEOM-CCSD. UHF-CVS-IP/STEOM-CCSD
   Vijay G. Chilkuri      : MRCI spin determinant printing, contributions to CSF-ICE
   Pauline Colinet        : FMM embedding
   Dipayan Datta          : RHF DLPNO-CCSD density
   Achintya Kumar Dutta   : EOM-CC, STEOM-CC
   Nicolas Foglia         : Exact transition moments, OPA infrastructure, MCD improvements
   Dmitry Ganyushin       : Spin-Orbit,Spin-Spin,Magnetic field MRCI
   Miquel Garcia          : C-PCM and meta-GGA Hessian, CCSD/C-PCM, Gaussian charge scheme
   Tiago L. C. Gouveia    : GS-ROHF, GS-ROCIS
   Yang Guo               : DLPNO-NEVPT2, F12-NEVPT2, CIM, IAO-localization
   Andreas Hansen         : Spin unrestricted coupled pair/coupled cluster methods
   Ingolf Harden          : AUTO-CI MPn and infrastructure 
   Benjamin Helmich-Paris : MC-RPA, TRAH-(SCF,CASSCF), AVAS, COSX integrals, SCF dyn. polar.
   Lee Huntington         : MR-EOM, pCC
   Robert Izsak           : Overlap fitted RIJCOSX, COSX-SCS-MP3, EOM
   Riya Kayal             : Wick's Theorem for AUTO-CI, AUTO-CI UHF-CCSDT
   Emily Kempfer          : AUTO-CI, RHF CISDT and CCSDT
   Christian Kollmar      : KDIIS, OOCD, Brueckner-CCSD(T), CCSD density, CASPT2, CASPT2-K, improved NEVPT2
   Axel Koslowski         : Symmetry handling
   Simone Kossmann        : Meta GGA functionals, TD-DFT gradient, OOMP2, (MP2 Hessian; deprecated post 5.0)
   Lucas Lang             : DCDCAS
   Marvin Lechner         : AUTO-CI (C++ implementation), FIC-MRCC
   Spencer Leger          : CASSCF response
   Dagmar Lenk            : GEPOL surface, SMD, ORCA-2-JSON
   Dimitrios Liakos       : Extrapolation schemes; Compound Job, initial MDCI parallelization
   Dimitrios Manganas     : Further ROCIS development; embedding schemes. LFT, Crystal Embedding
   Dimitrios Pantazis     : SARC Basis sets
   Anastasios Papadopoulos: AUTO-CI, single reference methods and gradients
   Taras Petrenko         : pre 6.0 DFT Hessian and TD-DFT gradient, (ASA, deprecated), ECA, 1-Electron XAS/XES, NRVS
   Peter Pinski           : DLPNO-MP2, DLPNO-MP2 Gradient
   Christoph Reimann      : Effective Core Potentials
   Marius Retegan         : Local ZFS, SOC
   Christoph Riplinger    : Optimizer, TS searches, QM/MM, DLPNO-CCSD(T), (RO)-DLPNO pert. Triples
   Michael Roemelt        : Original ROCIS implementation
   Masaaki Saitow         : Open-shell DLPNO-CCSD energy and density
   Barbara Sandhoefer     : DKH picture change effects
   Kantharuban Sivalingam : CASSCF convergence/infrastructure, NEVPT2 and variants, FIC-MRCI
   Bernardo de Souza      : ESD, SOC TD-DFT
   Georgi Stoychev        : AutoAux, RI-MP2 NMR, DLPNO-MP2 response, X2C
   Van Anh Tran           : RI-MP2 g-tensors
   Willem Van den Heuvel  : Paramagnetic NMR
   Zikuan Wang            : NOTCH, Electric field optimization 
   Frank Wennmohs         : Technical directorship and infrastructure
   Hang Xu                : AUTO-CI-Response properties 


 We gratefully acknowledge several colleagues who have allowed us to
 interface, adapt or use parts of their codes:
   Stefan Grimme, W. Hujo, H. Kruse, P. Pracht,  : VdW corrections, initial TS optimization,
                  C. Bannwarth, S. Ehlert,         DFT functionals, gCP, sTDA/sTD-DF
                  L. Wittmann, M. Mueller
   Ed Valeev, F. Pavosevic, A. Kumar             : LibInt (2-el integral package), F12 methods
   Garnet Chan, S. Sharma, J. Yang, R. Olivares  : DMRG
   Ulf Ekstrom                                   : XCFun DFT Library
   Mihaly Kallay                                 : mrcc  (arbitrary order and MRCC methods)
   Frank Weinhold                                : gennbo (NPA and NBO analysis)
   Simon Mueller                                 : openCOSMO-RS
   Christopher J. Cramer and Donald G. Truhlar   : smd solvation model
   Lars Goerigk                                  : TD-DFT with DH, B97 family of functionals
   V. Asgeirsson, H. Jonsson                     : NEB implementation
   FAccTs GmbH                                   : IRC, NEB, NEB-TS, DLPNO-Multilevel, CI-OPT
                                                   MM, QMMM, 2- and 3-layer-ONIOM, Crystal-QMMM,
                                                   LR-CPCM, SF, NACMEs, symmetry and pop. for TD-DFT,
                                                   nearIR, NL-DFT gradient (VV10), updates on ESD,
                                                   ML-optimized integration grids, MBIS, APM,
                                                   GOAT, DOCKER, SOLVATOR, interface openCOSMO-RS
   S Lehtola, MJT Oliveira, MAL Marques          : LibXC Library
   Liviu Ungur et al                             : ANISO software


 Your calculation uses the libint2 library for the computation of 2-el integrals
 For citations please refer to: http://libint.valeyev.net

 Your ORCA version has been built with support for libXC version: 6.2.2
 For citations please refer to: https://libxc.gitlab.io

 This ORCA versions uses:
   CBLAS   interface :  Fast vector & matrix operations
   LAPACKE interface :  Fast linear algebra routines
   SCALAPACK package :  Parallel linear algebra routines
   Shared memory     :  Shared parallel matrices
   BLAS/LAPACK       :  OpenBLAS 0.3.27  USE64BITINT DYNAMIC_ARCH NO_AFFINITY SkylakeX SINGLE_THREADED
        Core in use  :  SkylakeX
   Copyright (c) 2011-2014, The OpenBLAS Project


Your calculation utilizes the geometrical counterpoise correction gCP
Please cite in your paper:
H.Kruse, S. Grimme J.Chem.Phys., 136, (2012), 154101 
   

Your calculation utilizes the atom-pairwise dispersion correction
based on EEQ partial charges (D4)


================================================================================

----- Orbital basis set information -----
Your calculation utilizes the basis: def2-SV(P)
   F. Weigend and R. Ahlrichs, Phys. Chem. Chem. Phys. 7, 3297 (2005).

----- AuxJ basis set information -----
Your calculation utilizes the auxiliary basis: def2/J
   F. Weigend, Phys. Chem. Chem. Phys. 8, 1057 (2006).

================================================================================
                                        WARNINGS
                       Please study these warnings very carefully!
================================================================================


================================================================================
                                       INPUT FILE
================================================================================
NAME = sp.inp
|  1> ! pbe def2-sv(p) def2/J RI DEFGRID1 loosescf d4 GCP(DFT/SV(P)) printgap
|  2> %output
|  3>     printlevel normal
|  4> end
|  5> * xyz 0 1
|  6> C -2.4823568219 -0.4618414718 -0.2021921853
|  7> C -1.0450574576 -0.1833141849 0.2433034583
|  8> H -0.9605202575 -0.3970089669 1.3188574706
|  9> C -0.6290445488 1.2859722271 -0.009370158
| 10> H -1.2418306803 1.713793439 -0.8111520721
| 11> C 0.8441979529 1.3111930242 -0.470331004
| 12> H 1.2471468541 2.3154240043 -0.3048934938
| 13> C 1.6564622145 0.2981767234 0.3625681562
| 14> H 2.7006615793 0.3240795585 0.0274958937
| 15> C 1.1057667706 -1.1313614221 0.0973985072
| 16> H 1.0540530551 -1.6764994849 1.0547457869
| 17> O -0.190391837 -1.0706352676 -0.4712866235
| 18> O 1.916330637 -1.8812880404 -0.7277137239
| 19> O 1.5412218955 0.6625837928 1.7166264334
| 20> O 0.9736398022 1.0506140334 -1.8442261357
| 21> O -0.8560532998 2.0951156133 1.1102421524
| 22> O -2.9202484419 -1.7417025514 0.1735349347
| 23> H -2.5527812416 -0.3320551683 -1.2892857564
| 24> H -3.1448569134 0.2517498997 0.29031033
| 25> H 1.9582148797 -1.4829282639 -1.6117921999
| 26> H 2.2544785551 0.2664056678 2.2360879332
| 27> H 0.4192345487 0.2840227612 -2.0624576104
| 28> H -0.2215033079 1.8511732634 1.804445864
| 29> H -2.3310969164 -2.3975874994 -0.2273345926
| 30> *
| 31> 
| 32>                          ****END OF INPUT****
================================================================================

                       ****************************
                       * Single Point Calculation *
                       ****************************

---------------------------------
CARTESIAN COORDINATES (ANGSTROEM)
---------------------------------
  C     -2.482357   -0.461841   -0.202192
  C     -1.045057   -0.183314    0.243303
  H     -0.960520   -0.397009    1.318857
  C     -0.629045    1.285972   -0.009370
  H     -1.241831    1.713793   -0.811152
  C      0.844198    1.311193   -0.470331
  H      1.247147    2.315424   -0.304893
  C      1.656462    0.298177    0.362568
  H      2.700662    0.324080    0.027496
  C      1.105767   -1.131361    0.097399
  H      1.054053   -1.676499    1.054746
  O     -0.190392   -1.070635   -0.471287
  O      1.916331   -1.881288   -0.727714
  O      1.541222    0.662584    1.716626
  O      0.973640    1.050614   -1.844226
  O     -0.856053    2.095116    1.110242
  O     -2.920248   -1.741703    0.173535
  H     -2.552781   -0.332055   -1.289286
  H     -3.144857    0.251750    0.290310
  H      1.958215   -1.482928   -1.611792
  H      2.254479    0.266406    2.236088
  H      0.419235    0.284023   -2.062458
  H     -0.221503    1.851173    1.804446
  H     -2.331097   -2.397587   -0.227335

----------------------------
CARTESIAN COORDINATES (A.U.)
----------------------------
  NO LB      ZA    FRAG     MASS         X           Y           Z
   0 C     6.0000    0    12.011   -4.690975   -0.872754   -0.382088
   1 C     6.0000    0    12.011   -1.974872   -0.346414    0.459777
   2 H     1.0000    0     1.008   -1.815120   -0.750238    2.492279
   3 C     6.0000    0    12.011   -1.188722    2.430135   -0.017707
   4 H     1.0000    0     1.008   -2.346720    3.238600   -1.532855
   5 C     6.0000    0    12.011    1.595303    2.477796   -0.888797
   6 H     1.0000    0     1.008    2.356766    4.375517   -0.576165
   7 C     6.0000    0    12.011    3.130260    0.563472    0.685155
   8 H     1.0000    0     1.008    5.103511    0.612422    0.051960
   9 C     6.0000    0    12.011    2.089596   -2.137963    0.184057
  10 H     1.0000    0     1.008    1.991872   -3.168125    1.993181
  11 O     8.0000    0    15.999   -0.359788   -2.023207   -0.890603
  12 O     8.0000    0    15.999    3.621340   -3.555119   -1.375180
  13 O     8.0000    0    15.999    2.912487    1.252102    3.243954
  14 O     8.0000    0    15.999    1.839913    1.985373   -3.485082
  15 O     8.0000    0    15.999   -1.617706    3.959195    2.098054
  16 O     8.0000    0    15.999   -5.518470   -3.291341    0.327934
  17 H     1.0000    0     1.008   -4.824057   -0.627493   -2.436397
  18 H     1.0000    0     1.008   -5.942918    0.475738    0.548607
  19 H     1.0000    0     1.008    3.700490   -2.802328   -3.045846
  20 H     1.0000    0     1.008    4.260347    0.503434    4.225594
  21 H     1.0000    0     1.008    0.792238    0.536725   -3.897480
  22 H     1.0000    0     1.008   -0.418581    3.498210    3.409909
  23 H     1.0000    0     1.008   -4.405135   -4.530784   -0.429600

--------------------------------
INTERNAL COORDINATES (ANGSTROEM)
--------------------------------
 C      0   0   0     0.000000000000     0.00000000     0.00000000
 C      1   0   0     1.530318032512     0.00000000     0.00000000
 H      2   1   0     1.099831092227   108.75460446     0.00000000
 C      2   1   3     1.547809179825   112.19053063   239.51043763
 H      4   2   1     1.096080321002   109.85662844   335.95061699
 C      4   2   1     1.543879677620   108.70684307   217.99309526
 H      6   4   2     1.094631101400   108.73148657   200.14204295
 C      6   4   2     1.542626418619   109.30041801   319.12990275
 H      8   6   4     1.096948809841   108.71103968   180.00529901
 C      8   6   4     1.554721751351   108.97846646    62.68218767
 H     10   8   6     1.102888765848   108.84697107   222.14883346
 O     10   8   6     1.416727771936   110.67793481   342.00587690
 O     10   8   6     1.378482465706   113.20553720   104.35901920
 O      8   6   4     1.406963631870   107.84301134   300.98798711
 O      6   4   2     1.404366204273   112.14906544    82.62708368
 O      4   2   1     1.399920611342   111.99506679    92.95541704
 O      1   2   3     1.403910368451   112.39336588   307.86323962
 H      1   2   3     1.097076349118   109.10033266   184.71960433
 H      1   2   3     1.091181810833   108.65187577    65.61016958
 H     13  10   8     0.970587220731   110.32260383   295.72941840
 H     14   8   6     0.967229248403   110.51048079   199.60394038
 H     15   6   4     0.970902848009   108.28635968   313.82563660
 H     16   4   2     0.971637975531   108.68680856    70.06816335
 H     17   1   2     0.968494172894   108.47365479   300.74446574

---------------------------
INTERNAL COORDINATES (A.U.)
---------------------------
 C      0   0   0     0.000000000000     0.00000000     0.00000000
 C      1   0   0     2.891881979249     0.00000000     0.00000000
 H      2   1   0     2.078379557881   108.75460446     0.00000000
 C      2   1   3     2.924935457438   112.19053063   239.51043763
 H      4   2   1     2.071291627475   109.85662844   335.95061699
 C      4   2   1     2.917509774428   108.70684307   217.99309526
 H      6   4   2     2.068552999318   108.73148657   200.14204295
 C      6   4   2     2.915141458141   109.30041801   319.12990275
 H      8   6   4     2.072932833531   108.71103968   180.00529901
 C      8   6   4     2.937998324503   108.97846646    62.68218767
 H     10   8   6     2.084157723631   108.84697107   222.14883346
 O     10   8   6     2.677227495280   110.67793481   342.00587690
 O     10   8   6     2.604954340597   113.20553720   104.35901920
 O      8   6   4     2.658775944622   107.84301134   300.98798711
 O      6   4   2     2.653867517811   112.14906544    82.62708368
 O      4   2   1     2.645466564669   111.99506679    92.95541704
 O      1   2   3     2.653006112945   112.39336588   307.86323962
 H      1   2   3     2.073173847834   109.10033266   184.71960433
 H      1   2   3     2.062034784791   108.65187577    65.61016958
 H     13  10   8     1.834144036265   110.32260383   295.72941840
 H     14   8   6     1.827798388201   110.51048079   199.60394038
 H     15   6   4     1.834740485381   108.28635968   313.82563660
 H     16   4   2     1.836129675072   108.68680856    70.06816335
 H     17   1   2     1.830188749068   108.47365479   300.74446574

---------------------
BASIS SET INFORMATION
---------------------
There are 3 groups of distinct atoms

 Group   1 Type C   : 7s4p1d contracted to 3s2p1d pattern {511/31/1}
 Group   2 Type H   : 4s contracted to 2s pattern {31}
 Group   3 Type O   : 7s4p1d contracted to 3s2p1d pattern {511/31/1}

Atom   0C    basis set group =>   1
Atom   1C    basis set group =>   1
Atom   2H    basis set group =>   2
Atom   3C    basis set group =>   1
Atom   4H    basis set group =>   2
Atom   5C    basis set group =>   1
Atom   6H    basis set group =>   2
Atom   7C    basis set group =>   1
Atom   8H    basis set group =>   2
Atom   9C    basis set group =>   1
Atom  10H    basis set group =>   2
Atom  11O    basis set group =>   3
Atom  12O    basis set group =>   3
Atom  13O    basis set group =>   3
Atom  14O    basis set group =>   3
Atom  15O    basis set group =>   3
Atom  16O    basis set group =>   3
Atom  17H    basis set group =>   2
Atom  18H    basis set group =>   2
Atom  19H    basis set group =>   2
Atom  20H    basis set group =>   2
Atom  21H    basis set group =>   2
Atom  22H    basis set group =>   2
Atom  23H    basis set group =>   2
---------------------------------
AUXILIARY/J BASIS SET INFORMATION
---------------------------------
There are 3 groups of distinct atoms

 Group   1 Type C   : 12s5p4d2f1g contracted to 6s4p3d1f1g pattern {711111/2111/211/2/1}
 Group   2 Type H   : 5s2p1d contracted to 3s1p1d pattern {311/2/1}
 Group   3 Type O   : 12s5p4d2f1g contracted to 6s4p3d1f1g pattern {711111/2111/211/2/1}

Atom   0C    basis set group =>   1
Atom   1C    basis set group =>   1
Atom   2H    basis set group =>   2
Atom   3C    basis set group =>   1
Atom   4H    basis set group =>   2
Atom   5C    basis set group =>   1
Atom   6H    basis set group =>   2
Atom   7C    basis set group =>   1
Atom   8H    basis set group =>   2
Atom   9C    basis set group =>   1
Atom  10H    basis set group =>   2
Atom  11O    basis set group =>   3
Atom  12O    basis set group =>   3
Atom  13O    basis set group =>   3
Atom  14O    basis set group =>   3
Atom  15O    basis set group =>   3
Atom  16O    basis set group =>   3
Atom  17H    basis set group =>   2
Atom  18H    basis set group =>   2
Atom  19H    basis set group =>   2
Atom  20H    basis set group =>   2
Atom  21H    basis set group =>   2
Atom  22H    basis set group =>   2
Atom  23H    basis set group =>   2
------------------------------------------------------------------------------
                             ORCA STARTUP CALCULATIONS
                           -- RI-GTO INTEGRALS CHOSEN --
------------------------------------------------------------------------------
------------------------------------------------------------------------------
                   ___                                                        
                  /   \      - P O W E R E D   B Y -                         
                 /     \                                                     
                 |  |  |   _    _      __       _____    __    __             
                 |  |  |  | |  | |    /  \     |  _  \  |  |  /  |          
                  \  \/   | |  | |   /    \    | | | |  |  | /  /          
                 / \  \   | |__| |  /  /\  \   | |_| |  |  |/  /          
                |  |  |   |  __  | /  /__\  \  |    /   |      \           
                |  |  |   | |  | | |   __   |  |    \   |  |\   \          
                \     /   | |  | | |  |  |  |  | |\  \  |  | \   \       
                 \___/    |_|  |_| |__|  |__|  |_| \__\ |__|  \__/        
                                                                              
                      - O R C A' S   B I G   F R I E N D -                    
                                      &                                       
                       - I N T E G R A L  F E E D E R -                       
                                                                              
 v1 FN, 2020, v2 2021, v3 2022-2024                                           
------------------------------------------------------------------------------


----------------------
SHARK INTEGRAL PACKAGE
----------------------

Number of atoms                             ...     24
Number of basis functions                   ...    192
Number of shells                            ...     96
Maximum angular momentum                    ...      2
Integral batch strategy                     ... SHARK/LIBINT Hybrid
RI-J (if used) integral strategy            ... SPLIT-RIJ (Revised 2003 algorithm where possible)
Printlevel                                  ...      1
Contraction scheme used                     ... SEGMENTED contraction
Prescreening option                         ... SCHWARTZ
   Thresh                                   ... 1.000e-09
   Tcut                                     ... 1.000e-10
   Tpresel                                  ... 1.000e-10 
Coulomb Range Separation                    ... NOT USED
Exchange Range Separation                   ... NOT USED
Multipole approximations                    ... NOT USED
Finite Nucleus Model                        ... NOT USED
CABS basis                                  ... NOT available
Auxiliary Coulomb fitting basis             ... AVAILABLE
   # of basis functions in Aux-J            ...    720
   # of shells in Aux-J                     ...    240
   Maximum angular momentum in Aux-J        ...      4
Auxiliary J/K fitting basis                 ... NOT available
Auxiliary Correlation fitting basis         ... NOT available
Auxiliary 'external' fitting basis          ... NOT available

Checking pre-screening integrals            ... done (  0.0 sec) Dimension = 96
Check shell pair data                       ... done (  0.0 sec)
Shell pair information
Shell pair cut-off parameter TPreSel        ...   1.0e-10
Total number of shell pairs                 ...      4656
Shell pairs after pre-screening             ...      4239
Total number of primitive shell pairs       ...     18720
Primitive shell pairs kept                  ...     11416
          la=0 lb=0:   1644 shell pairs
          la=1 lb=0:   1344 shell pairs
          la=1 lb=1:    291 shell pairs
          la=2 lb=0:    622 shell pairs
          la=2 lb=1:    270 shell pairs
          la=2 lb=2:     68 shell pairs

Calculating one electron integrals          ... done (  0.0 sec)
Calculating RI/J V-Matrix + Cholesky decomp.... done (  0.1 sec)
Calculating Nuclear repulsion               ... done (  0.0 sec) ENN=    847.786937938333 Eh

Diagonalization of the overlap matrix:
Smallest eigenvalue                        ... 8.248e-04
Time for diagonalization                   ...    0.003 sec
Threshold for overlap eigenvalues          ... 1.000e-07
Number of eigenvalues below threshold      ... 0
Time for construction of square roots      ...    0.015 sec
Total time needed                          ...    0.027 sec

-------------------
DFT GRID GENERATION
-------------------

General Integration Accuracy     IntAcc      ... 4.159
Radial Grid Type                 RadialGrid  ... OptM3 with GC (2021)
Angular Grid (max. ang.)         AngularGrid ... 3 (Lebedev-194)
Angular grid pruning method      GridPruning ... 4 (adaptive)
Weight generation scheme         WeightScheme... mBecke (2022)
Basis function cutoff            BFCut       ... 1.0000e-10
Integration weight cutoff        WCut        ... 1.0000e-14
Partially contracted basis set               ... off
Rotationally invariant grid construction     ... off
Angular grids for H and He will be reduced by one unit

Total number of grid points                  ...    55638
Total number of batches                      ...      879
Average number of points per batch           ...       63
Average number of grid points per atom       ...     2318
Initializing property integral containers    ... done (  0.0 sec)

SHARK setup successfully completed in   0.9 seconds

Maximum memory used throughout the entire STARTUP-calculation: 27.9 MB
-------------------------------------------------------------------------------
                                 ORCA GUESS
                   Start orbitals & Density for SCF / CASSCF
-------------------------------------------------------------------------------

------------
SCF SETTINGS
------------
Hamiltonian:
 Density Functional     Method          .... DFT(GTOs)
 Exchange Functional    Exchange        .... PBE
   PBE kappa parameter   XKappa         ....  0.804000
   PBE mue parameter    XMuePBE         ....  0.219520
 Correlation Functional Correlation     .... PBE
   PBE beta parameter  CBetaPBE         ....  0.066725
 LDA part of GGA corr.  LDAOpt          .... PW91-LDA
 Gradients option       PostSCFGGA      .... off
   NL short-range parameter             ....  6.400000
 RI-approximation to the Coulomb term is turned on
   Number of AuxJ basis functions       .... 720


General Settings:
 Integral files         IntName         .... sp
 Hartree-Fock type      HFTyp           .... RHF
 Total Charge           Charge          ....    0
 Multiplicity           Mult            ....    1
 Number of Electrons    NEL             ....   96
 Basis Dimension        Dim             ....  192
 Nuclear Repulsion      ENuc            ....    847.7869379383 Eh

Convergence Acceleration:
 AO-DIIS                CNVDIIS         .... on
   Start iteration      DIISMaxIt       ....    12
   Startup error        DIISStart       ....  0.200000
   # of expansion vecs  DIISMaxEq       ....     5
   Bias factor          DIISBfac        ....   1.050
   Max. coefficient     DIISMaxC        ....  10.000
 MO-DIIS                CNVKDIIS        .... off
 Trust-Rad. Augm. Hess. CNVTRAH         .... auto
   Auto Start mean grad. ratio tolernc. ....  1.125000
   Auto Start start iteration           ....    50
   Auto Start num. interpolation iter.  ....    10
   Max. Number of Micro iterations      ....    24
   Max. Number of Macro iterations      .... Maxiter - #DIIS iter
   Number of Davidson start vectors     ....     2
   Converg. threshold    (grad. norm)   ....   1.000e-04
   Grad. Scal. Fac. for Micro threshold ....   0.100
   Minimum threshold for Micro iter.    ....   1.000e-02
   NR start threshold (gradient norm)   ....   1.000e-04
   Initial trust radius                 ....   0.400
   Minimum AH scaling param. (alpha)    ....   1.000
   Maximum AH scaling param. (alpha)    .... 1000.000
   Quad. conv. algorithm                .... NR
   White noise on init. David. guess    .... on
   Maximum white noise                  ....   0.010
   Pseudo random numbers                .... off
   Inactive MOs                         .... canonical
   Orbital update algorithm             .... Taylor
   Preconditioner                       .... Diag
   Full preconditioner red. dimension   ....   250
 SOSCF                  CNVSOSCF        .... on
   Start iteration      SOSCFMaxIt      ....   150
   Startup grad/error   SOSCFStart      ....  0.003300
   Hessian update       SOSCFHessUp     .... L-BFGS
 Level Shifting         CNVShift        .... on
   Level shift para.    LevelShift      ....    0.2500
   Turn off err/grad.   ShiftErr        ....    0.0010
 Zerner damping         CNVZerner       .... off
 Static damping         CNVDamp         .... on
   Fraction old density DampFac         ....    0.7000
   Max. Damping (<1)    DampMax         ....    0.9800
   Min. Damping (>=0)   DampMin         ....    0.0000
   Turn off err/grad.   DampErr         ....    0.1000

SCF Procedure:
 Maximum # iterations   MaxIter         ....   125
 SCF integral mode      SCFMode         .... Direct
   Integral package                     .... SHARK and LIBINT hybrid scheme
 Reset frequency        DirectResetFreq ....    20
 Integral Threshold     Thresh          ....  1.000e-09 Eh
 Primitive CutOff       TCut            ....  1.000e-10 Eh

Convergence Tolerance:
 Convergence Check Mode ConvCheckMode   .... Total+1el-Energy
 Convergence forced     ConvForced      .... 0
 Energy Change          TolE            ....  1.000e-05 Eh
 1-El. energy change                    ....  1.000e-02 Eh
 Orbital Gradient       TolG            ....  1.000e-04
 Orbital Rotation angle TolX            ....  1.000e-04
 DIIS Error             TolErr          ....  5.000e-04

------------------------------
INITIAL GUESS: MODEL POTENTIAL
------------------------------
Loading Hartree-Fock densities                     ... done
Calculating cut-offs                               ... done
Initializing the effective Hamiltonian             ... done
Setting up the integral package (SHARK)            ... done
Starting the Coulomb interaction                   ... done (   0.2 sec)
Making the grid                                    ... done (   0.3 sec)
Mapping shells                                     ... done
Starting the XC term evaluation                    ... done (   0.3 sec)
  promolecular density results
     # of electrons  =     95.992499259
     EX              =    -83.236965468
     EC              =     -3.273175047
     EX+EC           =    -86.510140515
Transforming the Hamiltonian                       ... done (   0.0 sec)
Diagonalizing the Hamiltonian                      ... done (   0.0 sec)
Back transforming the eigenvectors                 ... done (   0.0 sec)
Now organizing SCF variables                       ... done
                      ------------------
                      INITIAL GUESS DONE (   0.8 sec)
                      ------------------
             **** ENERGY FILE WAS UPDATED (sp.en.tmp) ****
Finished Guess after   1.0 sec
Maximum memory used throughout the entire GUESS-calculation: 21.8 MB

-------------------------------------------------------------------------------------------
                                      ORCA LEAN-SCF
                              memory conserving SCF solver
-------------------------------------------------------------------------------------------

----------------------------------------D-I-I-S--------------------------------------------
Iteration    Energy (Eh)           Delta-E    RMSDP     MaxDP     DIISErr   Damp  Time(sec)
-------------------------------------------------------------------------------------------
               ***  Starting incremental Fock matrix formation  ***
    1    -685.5272598425589194     0.00e+00  4.86e-03  1.46e-01  2.20e-01  0.700   1.2
    2    -685.6756634137190076    -1.48e-01  3.12e-03  1.03e-01  8.57e-02  0.700   1.2
                               ***Turning on AO-DIIS***
    3    -685.7228165846626098    -4.72e-02  1.11e-03  3.20e-02  1.93e-02  0.700   1.1
    4    -685.7542296774405486    -3.14e-02  1.44e-03  2.59e-02  8.82e-03  0.000   1.1
    5    -685.8266232952852306    -7.24e-02  4.70e-04  1.71e-02  5.63e-03  0.000   1.1
                              *** Initializing SOSCF ***
---------------------------------------S-O-S-C-F--------------------------------------
Iteration    Energy (Eh)           Delta-E    RMSDP     MaxDP     MaxGrad    Time(sec)
--------------------------------------------------------------------------------------
    6    -685.8269461354724399    -3.23e-04  1.39e-04  3.45e-03  1.07e-03     1.1
               *** Restarting incremental Fock matrix formation ***
    7    -685.8269728727030952    -2.67e-05  9.73e-05  2.53e-03  1.72e-04     1.2
    8    -685.8269720909985381     7.82e-07  4.00e-05  6.75e-04  2.14e-04     1.0
                 **** Energy Check signals convergence ****

               *****************************************************
               *                     SUCCESS                       *
               *           SCF CONVERGED AFTER   8 CYCLES          *
               *****************************************************

             **** ENERGY FILE WAS UPDATED (sp.en.tmp) ****

----------------
TOTAL SCF ENERGY
----------------

Total Energy       :       -685.82697209099854 Eh          -18662.30068 eV

Components:
Nuclear Repulsion  :        847.78693793833315 Eh           23069.45541 eV
Electronic Energy  :      -1533.61391002933169 Eh          -41731.75609 eV
One Electron Energy:      -2624.11353770317919 Eh          -71405.75956 eV
Two Electron Energy:       1090.49962767384750 Eh           29674.00347 eV

Virial components:
Potential Energy   :      -1366.92408917812054 Eh          -37195.89547 eV
Kinetic Energy     :        681.09711708712189 Eh           18533.59479 eV
Virial Ratio       :          2.00694446487177

DFT components:
N(Alpha)           :       48.000088950132 electrons
N(Beta)            :       48.000088950132 electrons
N(Total)           :       96.000177900263 electrons
E(X)               :      -84.601497316301 Eh       
E(C)               :       -3.284466385312 Eh       
E(XC)              :      -87.885963701614 Eh       

---------------
SCF CONVERGENCE
---------------

  Last Energy change         ...   -7.8170e-07  Tolerance :   1.0000e-05
  Last MAX-Density change    ...    6.7517e-04  Tolerance :   1.0000e-03
  Last RMS-Density change    ...    4.0004e-05  Tolerance :   1.0000e-04
  Last DIIS Error            ...    1.0674e-03  Tolerance :   5.0000e-04
  Last Orbital Gradient      ...    2.1380e-04  Tolerance :   1.0000e-04
  Last Orbital Rotation      ...    1.5051e-04  Tolerance :   1.0000e-04


----------------
ORBITAL ENERGIES
----------------

  NO   OCC          E(Eh)            E(eV) 
   0   2.0000     -18.789029      -511.2755 
   1   2.0000     -18.786917      -511.2180 
   2   2.0000     -18.771964      -510.8111 
   3   2.0000     -18.762505      -510.5537 
   4   2.0000     -18.745572      -510.0930 
   5   2.0000     -18.745186      -510.0824 
   6   2.0000      -9.998890      -272.0836 
   7   2.0000      -9.954566      -270.8775 
   8   2.0000      -9.948246      -270.7055 
   9   2.0000      -9.945470      -270.6300 
  10   2.0000      -9.943467      -270.5755 
  11   2.0000      -9.935507      -270.3589 
  12   2.0000      -0.998928       -27.1822 
  13   2.0000      -0.959418       -26.1071 
  14   2.0000      -0.942519       -25.6473 
  15   2.0000      -0.933692       -25.4070 
  16   2.0000      -0.922990       -25.1158 
  17   2.0000      -0.917316       -24.9614 
  18   2.0000      -0.702061       -19.1040 
  19   2.0000      -0.696147       -18.9431 
  20   2.0000      -0.623002       -16.9527 
  21   2.0000      -0.597075       -16.2472 
  22   2.0000      -0.572095       -15.5675 
  23   2.0000      -0.541229       -14.7276 
  24   2.0000      -0.513589       -13.9755 
  25   2.0000      -0.504529       -13.7289 
  26   2.0000      -0.487583       -13.2678 
  27   2.0000      -0.469096       -12.7647 
  28   2.0000      -0.458723       -12.4825 
  29   2.0000      -0.431970       -11.7545 
  30   2.0000      -0.417144       -11.3511 
  31   2.0000      -0.403467       -10.9789 
  32   2.0000      -0.383487       -10.4352 
  33   2.0000      -0.378558       -10.3011 
  34   2.0000      -0.366837        -9.9821 
  35   2.0000      -0.359566        -9.7843 
  36   2.0000      -0.344024        -9.3614 
  37   2.0000      -0.320927        -8.7329 
  38   2.0000      -0.316950        -8.6246 
  39   2.0000      -0.306995        -8.3538 
  40   2.0000      -0.283195        -7.7061 
  41   2.0000      -0.276183        -7.5153 
  42   2.0000      -0.271218        -7.3802 
  43   2.0000      -0.263379        -7.1669 
  44   2.0000      -0.251063        -6.8318 
  45   2.0000      -0.225727        -6.1424 
  46   2.0000      -0.215649        -5.8681 
  47   2.0000      -0.202462        -5.5093 
  48   0.0000      -0.005084        -0.1384 
  49   0.0000       0.016400         0.4463 
  50   0.0000       0.033231         0.9043 
  51   0.0000       0.049827         1.3559 
  52   0.0000       0.060138         1.6365 
  53   0.0000       0.068092         1.8529 
  54   0.0000       0.072225         1.9653 
  55   0.0000       0.079906         2.1743 
  56   0.0000       0.095692         2.6039 
  57   0.0000       0.101423         2.7599 
  58   0.0000       0.104900         2.8545 
*Only the first 10 virtual orbitals were printed.

                    ********************************
                    * MULLIKEN POPULATION ANALYSIS *
                    ********************************

-----------------------
MULLIKEN ATOMIC CHARGES
-----------------------
   0 C :    0.075203
   1 C :   -0.011151
   2 H :    0.061625
   3 C :    0.058987
   4 H :    0.071017
   5 C :    0.044354
   6 H :    0.083133
   7 C :   -0.006559
   8 H :    0.081888
   9 C :    0.190293
  10 H :    0.060241
  11 O :   -0.322071
  12 O :   -0.375229
  13 O :   -0.423424
  14 O :   -0.423027
  15 O :   -0.425512
  16 O :   -0.433189
  17 H :    0.068697
  18 H :    0.103754
  19 H :    0.297173
  20 H :    0.318459
  21 H :    0.299347
  22 H :    0.307002
  23 H :    0.298987
Sum of atomic charges:   -0.0000000

--------------------------------
MULLIKEN REDUCED ORBITAL CHARGES
--------------------------------
  0 C s       :     3.019614  s :     3.019614
      pz      :     1.023344  p :     2.841554
      px      :     0.986203
      py      :     0.832008
      dz2     :     0.014417  d :     0.063629
      dxz     :     0.005368
      dyz     :     0.013397
      dx2y2   :     0.013144
      dxy     :     0.017302

  1 C s       :     3.062984  s :     3.062984
      pz      :     0.988557  p :     2.883370
      px      :     0.980328
      py      :     0.914486
      dz2     :     0.015444  d :     0.064797
      dxz     :     0.010768
      dyz     :     0.009482
      dx2y2   :     0.014680
      dxy     :     0.014423

  2 H s       :     0.938375  s :     0.938375

  3 C s       :     3.067823  s :     3.067823
      pz      :     0.881506  p :     2.805070
      px      :     0.999980
      py      :     0.923584
      dz2     :     0.013696  d :     0.068120
      dxz     :     0.014871
      dyz     :     0.016578
      dx2y2   :     0.013495
      dxy     :     0.009480

  4 H s       :     0.928983  s :     0.928983

  5 C s       :     3.048005  s :     3.048005
      pz      :     0.748359  p :     2.840283
      px      :     1.027762
      py      :     1.064162
      dz2     :     0.020290  d :     0.067358
      dxz     :     0.015904
      dyz     :     0.013735
      dx2y2   :     0.009461
      dxy     :     0.007968

  6 H s       :     0.916867  s :     0.916867

  7 C s       :     3.081628  s :     3.081628
      pz      :     0.742900  p :     2.860112
      px      :     1.083084
      py      :     1.034129
      dz2     :     0.018901  d :     0.064819
      dxz     :     0.012681
      dyz     :     0.015885
      dx2y2   :     0.011787
      dxy     :     0.005564

  8 H s       :     0.918112  s :     0.918112

  9 C s       :     3.039581  s :     3.039581
      pz      :     0.949429  p :     2.670255
      px      :     0.749264
      py      :     0.971562
      dz2     :     0.017316  d :     0.099871
      dxz     :     0.020219
      dyz     :     0.017534
      dx2y2   :     0.024934
      dxy     :     0.019868

 10 H s       :     0.939759  s :     0.939759

 11 O s       :     3.770729  s :     3.770729
      pz      :     1.617448  p :     4.536286
      px      :     1.269433
      py      :     1.649405
      dz2     :     0.002100  d :     0.015056
      dxz     :     0.004140
      dyz     :     0.002857
      dx2y2   :     0.003276
      dxy     :     0.002683

 12 O s       :     3.760959  s :     3.760959
      pz      :     1.247431  p :     4.598576
      px      :     1.693713
      py      :     1.657432
      dz2     :     0.003640  d :     0.015693
      dxz     :     0.001274
      dyz     :     0.005397
      dx2y2   :     0.002259
      dxy     :     0.003124

 13 O s       :     3.778376  s :     3.778376
      pz      :     1.263425  p :     4.630301
      px      :     1.597737
      py      :     1.769139
      dz2     :     0.002537  d :     0.014747
      dxz     :     0.004319
      dyz     :     0.003308
      dx2y2   :     0.001560
      dxy     :     0.003024

 14 O s       :     3.786319  s :     3.786319
      pz      :     1.354760  p :     4.621067
      px      :     1.717486
      py      :     1.548821
      dz2     :     0.005463  d :     0.015640
      dxz     :     0.002408
      dyz     :     0.001898
      dx2y2   :     0.001196
      dxy     :     0.004675

 15 O s       :     3.785274  s :     3.785274
      pz      :     1.272552  p :     4.624708
      px      :     1.668993
      py      :     1.683163
      dz2     :     0.001371  d :     0.015530
      dxz     :     0.005348
      dyz     :     0.003736
      dx2y2   :     0.002460
      dxy     :     0.002615

 16 O s       :     3.789111  s :     3.789111
      pz      :     1.772377  p :     4.628364
      px      :     1.659871
      py      :     1.196117
      dz2     :     0.001627  d :     0.015713
      dxz     :     0.003060
      dyz     :     0.003634
      dx2y2   :     0.001588
      dxy     :     0.005804

 17 H s       :     0.931303  s :     0.931303

 18 H s       :     0.896246  s :     0.896246

 19 H s       :     0.702827  s :     0.702827

 20 H s       :     0.681541  s :     0.681541

 21 H s       :     0.700653  s :     0.700653

 22 H s       :     0.692998  s :     0.692998

 23 H s       :     0.701013  s :     0.701013


------------------------
MULLIKEN OVERLAP CHARGES
------------------------
B(  0-C ,  1-C ) :   0.6578 B(  0-C , 11-O ) :  -0.0862 B(  0-C , 16-O ) :   0.6944 
B(  0-C , 17-H ) :   0.6530 B(  0-C , 18-H ) :   0.6858 B(  0-C , 23-H ) :  -0.0988 
B(  1-C ,  2-H ) :   0.5609 B(  1-C ,  3-C ) :   0.1261 B(  1-C ,  4-H ) :  -0.1073 
B(  1-C ,  7-C ) :  -0.0542 B(  1-C ,  9-C ) :  -0.0555 B(  1-C , 11-O ) :   0.5142 
B(  1-C , 15-O ) :  -0.0709 B(  1-C , 16-O ) :  -0.0889 B(  1-C , 17-H ) :  -0.0547 
B(  2-H , 11-O ) :  -0.0659 B(  3-C ,  4-H ) :   0.6754 B(  3-C ,  5-C ) :   0.2839 
B(  3-C ,  6-H ) :  -0.0616 B(  3-C ,  7-C ) :   0.0561 B(  3-C ,  9-C ) :  -0.0979 
B(  3-C , 11-O ) :  -0.1471 B(  3-C , 15-O ) :   0.5527 B(  3-C , 22-H ) :  -0.0937 
B(  4-H ,  5-C ) :  -0.0887 B(  5-C ,  6-H ) :   0.6447 B(  5-C ,  7-C ) :   0.1110 
B(  5-C , 11-O ) :   0.1047 B(  5-C , 13-O ) :  -0.1063 B(  5-C , 14-O ) :   0.5206 
B(  5-C , 21-H ) :  -0.1126 B(  6-H ,  7-C ) :  -0.0668 B(  7-C ,  8-H ) :   0.6426 
B(  7-C ,  9-C ) :   0.2195 B(  7-C , 10-H ) :  -0.1680 B(  7-C , 11-O ) :  -0.1642 
B(  7-C , 12-O ) :  -0.0525 B(  7-C , 13-O ) :   0.4504 B(  7-C , 14-O ) :  -0.1186 
B(  7-C , 20-H ) :  -0.0521 B(  8-H ,  9-C ) :  -0.1095 B(  9-C , 10-H ) :   0.6874 
B(  9-C , 11-O ) :   0.5122 B(  9-C , 12-O ) :   0.6837 B(  9-C , 13-O ) :  -0.0724 
B(  9-C , 14-O ) :   0.0514 B(  9-C , 19-H ) :  -0.0692 B( 10-H , 11-O ) :  -0.0623 
B( 10-H , 12-O ) :  -0.0577 B( 11-O , 12-O ) :  -0.1148 B( 11-O , 21-H ) :   0.0587 
B( 12-O , 19-H ) :   0.5192 B( 13-O , 20-H ) :   0.5194 B( 13-O , 22-H ) :   0.0753 
B( 14-O , 21-H ) :   0.5331 B( 15-O , 22-H ) :   0.5527 B( 16-O , 17-H ) :  -0.0640 
B( 16-O , 18-H ) :  -0.0622 B( 16-O , 23-H ) :   0.5330 B( 17-H , 18-H ) :  -0.0740 



                     *******************************
                     * LOEWDIN POPULATION ANALYSIS *
                     *******************************

----------------------
LOEWDIN ATOMIC CHARGES
----------------------
   0 C :   -0.124820
   1 C :   -0.083461
   2 H :    0.109396
   3 C :   -0.074046
   4 H :    0.116338
   5 C :   -0.071991
   6 H :    0.121140
   7 C :   -0.100327
   8 H :    0.112200
   9 C :   -0.004583
  10 H :    0.099381
  11 O :   -0.166299
  12 O :   -0.287583
  13 O :   -0.313334
  14 O :   -0.313702
  15 O :   -0.313638
  16 O :   -0.335161
  17 H :    0.098225
  18 H :    0.125847
  19 H :    0.281594
  20 H :    0.297823
  21 H :    0.268211
  22 H :    0.276387
  23 H :    0.282401

-------------------------------
LOEWDIN REDUCED ORBITAL CHARGES
-------------------------------
  0 C s       :     2.917512  s :     2.917512
      pz      :     1.092856  p :     3.062445
      px      :     1.057162
      py      :     0.912427
      dz2     :     0.033981  d :     0.144863
      dxz     :     0.011728
      dyz     :     0.029743
      dx2y2   :     0.031277
      dxy     :     0.038134

  1 C s       :     2.911601  s :     2.911601
      pz      :     1.045877  p :     3.020649
      px      :     0.995415
      py      :     0.979356
      dz2     :     0.037618  d :     0.151211
      dxz     :     0.023237
      dyz     :     0.020782
      dx2y2   :     0.037857
      dxy     :     0.031718

  2 H s       :     0.890604  s :     0.890604

  3 C s       :     2.892074  s :     2.892074
      pz      :     0.962643  p :     3.022048
      px      :     1.057795
      py      :     1.001610
      dz2     :     0.030528  d :     0.159924
      dxz     :     0.034589
      dyz     :     0.037250
      dx2y2   :     0.037699
      dxy     :     0.019859

  4 H s       :     0.883662  s :     0.883662

  5 C s       :     2.895100  s :     2.895100
      pz      :     0.869908  p :     3.019546
      px      :     1.071691
      py      :     1.077948
      dz2     :     0.047037  d :     0.157344
      dxz     :     0.036657
      dyz     :     0.031409
      dx2y2   :     0.023698
      dxy     :     0.018543

  6 H s       :     0.878860  s :     0.878860

  7 C s       :     2.912799  s :     2.912799
      pz      :     0.863878  p :     3.033492
      px      :     1.097970
      py      :     1.071644
      dz2     :     0.043868  d :     0.154036
      dxz     :     0.028841
      dyz     :     0.037204
      dx2y2   :     0.028953
      dxy     :     0.015170

  8 H s       :     0.887800  s :     0.887800

  9 C s       :     2.896330  s :     2.896330
      pz      :     1.007331  p :     2.885625
      px      :     0.845727
      py      :     1.032567
      dz2     :     0.037124  d :     0.222629
      dxz     :     0.045171
      dyz     :     0.039724
      dx2y2   :     0.057129
      dxy     :     0.043480

 10 H s       :     0.900619  s :     0.900619

 11 O s       :     3.484884  s :     3.484884
      pz      :     1.658154  p :     4.652351
      px      :     1.325259
      py      :     1.668938
      dz2     :     0.003411  d :     0.029063
      dxz     :     0.008123
      dyz     :     0.004468
      dx2y2   :     0.007276
      dxy     :     0.005785

 12 O s       :     3.522836  s :     3.522836
      pz      :     1.325060  p :     4.736962
      px      :     1.718035
      py      :     1.693867
      dz2     :     0.006957  d :     0.027785
      dxz     :     0.003216
      dyz     :     0.009870
      dx2y2   :     0.002904
      dxy     :     0.004838

 13 O s       :     3.525379  s :     3.525379
      pz      :     1.335219  p :     4.761552
      px      :     1.643262
      py      :     1.783070
      dz2     :     0.006078  d :     0.026403
      dxz     :     0.007917
      dyz     :     0.006172
      dx2y2   :     0.002022
      dxy     :     0.004214

 14 O s       :     3.530961  s :     3.530961
      pz      :     1.425336  p :     4.755421
      px      :     1.738306
      py      :     1.591779
      dz2     :     0.010754  d :     0.027321
      dxz     :     0.004075
      dyz     :     0.003486
      dx2y2   :     0.001604
      dxy     :     0.007403

 15 O s       :     3.527621  s :     3.527621
      pz      :     1.345070  p :     4.758876
      px      :     1.698147
      py      :     1.715659
      dz2     :     0.003154  d :     0.027141
      dxz     :     0.009538
      dyz     :     0.007605
      dx2y2   :     0.003509
      dxy     :     0.003335

 16 O s       :     3.539178  s :     3.539178
      pz      :     1.800692  p :     4.768841
      px      :     1.690344
      py      :     1.277805
      dz2     :     0.002441  d :     0.027142
      dxz     :     0.003874
      dyz     :     0.006572
      dx2y2   :     0.003550
      dxy     :     0.010705

 17 H s       :     0.901775  s :     0.901775

 18 H s       :     0.874153  s :     0.874153

 19 H s       :     0.718406  s :     0.718406

 20 H s       :     0.702177  s :     0.702177

 21 H s       :     0.731789  s :     0.731789

 22 H s       :     0.723613  s :     0.723613

 23 H s       :     0.717599  s :     0.717599


---------------------------------
LOEWDIN BOND ORDERS (THRESH 0.050000)
---------------------------------
B(  0-C ,  1-C ) :   1.0729 B(  0-C ,  3-C ) :   0.0611 B(  0-C , 11-O ) :   0.0552 
B(  0-C , 16-O ) :   1.2558 B(  0-C , 17-H ) :   0.9027 B(  0-C , 18-H ) :   0.9041 
B(  1-C ,  2-H ) :   0.8618 B(  1-C ,  3-C ) :   1.0040 B(  1-C ,  5-C ) :   0.0567 
B(  1-C ,  9-C ) :   0.0696 B(  1-C , 11-O ) :   1.1064 B(  1-C , 15-O ) :   0.0825 
B(  1-C , 16-O ) :   0.0858 B(  3-C ,  4-H ) :   0.8699 B(  3-C ,  5-C ) :   1.0144 
B(  3-C ,  7-C ) :   0.0536 B(  3-C , 11-O ) :   0.0615 B(  3-C , 14-O ) :   0.0740 
B(  3-C , 15-O ) :   1.2429 B(  5-C ,  6-H ) :   0.8738 B(  5-C ,  7-C ) :   1.0152 
B(  5-C ,  9-C ) :   0.0525 B(  5-C , 13-O ) :   0.0615 B(  5-C , 14-O ) :   1.2240 
B(  5-C , 15-O ) :   0.0800 B(  7-C ,  8-H ) :   0.8741 B(  7-C ,  9-C ) :   1.0029 
B(  7-C , 11-O ) :   0.0602 B(  7-C , 12-O ) :   0.0779 B(  7-C , 13-O ) :   1.2015 
B(  7-C , 14-O ) :   0.0819 B(  9-C , 10-H ) :   0.8766 B(  9-C , 11-O ) :   1.1399 
B(  9-C , 12-O ) :   1.3157 B(  9-C , 13-O ) :   0.0776 B( 11-O , 12-O ) :   0.0760 
B( 11-O , 21-H ) :   0.0527 B( 12-O , 19-H ) :   0.8686 B( 13-O , 20-H ) :   0.8765 
B( 13-O , 22-H ) :   0.0598 B( 14-O , 21-H ) :   0.8653 B( 15-O , 22-H ) :   0.8648 
B( 16-O , 23-H ) :   0.8847 

------------------------------------------
LOEWDIN REDUCED ORBITAL POPULATIONS PER MO
-------------------------------------------
THRESHOLD FOR PRINTING IS 0.1%%
                      0         1         2         3         4         5   
                 -18.78903 -18.78692 -18.77196 -18.76250 -18.74557 -18.74519
                   2.00000   2.00000   2.00000   2.00000   2.00000   2.00000
                  --------  --------  --------  --------  --------  --------
11 O  s              99.9       0.0       0.0       0.0       0.0       0.0
12 O  s               0.0       0.0      99.9       0.0       0.0       0.0
13 O  s               0.0      99.9       0.0       0.0       0.0       0.0
14 O  s               0.0       0.0       0.0      99.9       0.0       0.0
15 O  s               0.0       0.0       0.0       0.0      99.9       0.0
16 O  s               0.0       0.0       0.0       0.0       0.0      99.9

                      6         7         8         9        10        11   
                  -9.99889  -9.95457  -9.94825  -9.94547  -9.94347  -9.93551
                   2.00000   2.00000   2.00000   2.00000   2.00000   2.00000
                  --------  --------  --------  --------  --------  --------
 0 C  s               0.0       0.0       0.0       0.0       0.0      99.6
 1 C  s               0.0       0.0       0.0      99.5       0.1       0.0
 3 C  s               0.0       0.0       0.0       0.1      99.5       0.0
 5 C  s               0.0       0.0      99.6       0.0       0.0       0.0
 7 C  s               0.0      99.6       0.0       0.0       0.0       0.0
 9 C  s              99.6       0.0       0.0       0.0       0.0       0.0
13 O  pz              0.0       0.1       0.0       0.0       0.0       0.0
14 O  pz              0.0       0.0       0.1       0.0       0.0       0.0

                     12        13        14        15        16        17   
                  -0.99893  -0.95942  -0.94252  -0.93369  -0.92299  -0.91732
                   2.00000   2.00000   2.00000   2.00000   2.00000   2.00000
                  --------  --------  --------  --------  --------  --------
 0 C  s               0.5       0.0       0.5       3.8       0.6       5.7
 0 C  pz              0.0       0.0       0.0       0.2       0.0       0.3
 0 C  px              0.4       0.0       0.1       0.1       0.1       1.0
 0 C  py              0.0       0.0       0.1       1.8       0.8       5.2
 0 C  dx2y2           0.0       0.0       0.0       0.1       0.0       0.3
 0 C  dxy             0.0       0.0       0.0       0.0       0.0       0.1
 1 C  s               4.4       0.1       1.4       3.6       0.0       0.4
 1 C  pz              0.9       0.1       0.2       0.4       0.1       0.2
 1 C  px              1.9       0.0       0.1       0.1       0.1       2.7
 1 C  py              1.1       0.4       0.0       1.0       1.7       0.3
 1 C  dxy             0.1       0.0       0.0       0.1       0.0       0.1
 2 H  s               0.6       0.0       0.2       0.5       0.0       0.0
 3 C  s               0.9       0.5       3.0       0.2       7.4       0.2
 3 C  pz              0.0       0.1       0.1       0.5       6.2       0.1
 3 C  px              0.1       0.2       0.3       0.4       0.3       0.0
 3 C  py              0.4       0.1       0.0       0.2       2.7       0.3
 3 C  dz2             0.0       0.0       0.0       0.0       0.2       0.0
 3 C  dyz             0.0       0.0       0.0       0.0       0.5       0.0
 4 H  s               0.1       0.1       0.5       0.0       0.8       0.0
 5 C  s               1.4       1.6       6.1       2.5       0.1       0.1
 5 C  pz              0.0       0.2       4.6       3.4       1.5       0.1
 5 C  px              0.0       0.1       0.3       0.1       0.9       0.0
 5 C  py              0.6       0.2       0.2       0.1       0.2       0.0
 5 C  dz2             0.0       0.0       0.3       0.3       0.1       0.0
 6 H  s               0.2       0.3       0.7       0.3       0.0       0.0
 7 C  s               3.1       7.7       0.3       0.1       0.2       0.0
 7 C  pz              0.1       7.2       2.0       0.6       0.1       0.0
 7 C  px              0.5       0.0       0.3       0.0       0.0       0.0
 7 C  py              0.6       1.3       0.4       0.0       0.0       0.0
 7 C  dz2             0.0       0.7       0.0       0.0       0.0       0.0
 8 H  s               0.5       0.8       0.0       0.1       0.0       0.0
 9 C  s              14.7       0.5       1.2       0.2       0.0       0.0
 9 C  pz              2.9       1.3       0.4       0.5       0.1       0.1
 9 C  px              0.7       0.1       2.4       5.0       0.3       4.3
 9 C  py              0.1       1.6       0.8       0.7       0.2       0.6
 9 C  dxz             0.0       0.0       0.2       0.3       0.0       0.3
 9 C  dx2y2           0.2       0.1       0.0       0.1       0.0       0.1
10 H  s               1.8       0.0       0.2       0.0       0.0       0.0
11 O  s              28.4       2.4       1.8      10.6       0.6      10.9
11 O  pz              0.9       0.0       0.1       0.5       0.0       0.3
11 O  px              0.7       0.1       0.2       0.2       0.0       0.0
11 O  py              0.3       0.0       0.2       0.3       0.0       0.2
12 O  s              16.9       3.8      13.9      14.0       1.5       8.9
12 O  px              0.8       0.1       0.2       0.1       0.0       0.0
12 O  py              1.1       0.1       0.5       0.5       0.0       0.3
13 O  s               3.0      50.1       5.2       0.3       1.0       0.0
13 O  pz              0.1       0.5       0.0       0.0       0.0       0.0
13 O  px              0.1       1.1       0.2       0.0       0.1       0.0
13 O  py              0.1       0.8       0.1       0.0       0.0       0.0
14 O  s               1.8       1.6      30.4      19.3       4.1       0.8
14 O  pz              0.1       0.1       1.0       0.5       0.1       0.0
14 O  px              0.0       0.0       0.5       0.3       0.1       0.0
14 O  py              0.0       0.0       0.4       0.2       0.1       0.0
15 O  s               0.4       1.4       4.9       0.8      48.1       1.7
15 O  pz              0.0       0.0       0.1       0.0       0.1       0.0
15 O  px              0.0       0.1       0.1       0.0       1.2       0.0
15 O  py              0.0       0.1       0.2       0.0       1.5       0.0
16 O  s               0.3       0.1       1.2      13.2       4.3      39.7
16 O  pz              0.0       0.0       0.0       0.3       0.1       0.8
16 O  px              0.0       0.0       0.1       0.5       0.2       1.3
16 O  py              0.0       0.0       0.0       0.1       0.0       0.2
17 H  s               0.1       0.0       0.1       0.5       0.1       0.6
18 H  s               0.1       0.0       0.1       0.4       0.0       0.7
19 H  s               3.5       0.7       2.5       2.9       0.3       1.8
20 H  s               0.6       9.9       1.1       0.1       0.3       0.0
21 H  s               0.8       0.3       6.4       3.5       0.8       0.1
22 H  s               0.2       0.8       0.8       0.2       9.3       0.3
23 H  s               0.1       0.0       0.3       2.9       0.9       7.7

                     18        19        20        21        22        23   
                  -0.70206  -0.69615  -0.62300  -0.59708  -0.57209  -0.54123
                   2.00000   2.00000   2.00000   2.00000   2.00000   2.00000
                  --------  --------  --------  --------  --------  --------
 0 C  s               4.6       4.1      11.6       0.7       8.8       1.3
 0 C  pz              0.0       0.0       0.0       0.0       0.3       0.4
 0 C  px              1.6       1.8       0.0       0.1       2.7       3.3
 0 C  py              1.4       0.8       1.4       0.1       0.4       0.3
 0 C  dx2y2           0.1       0.1       0.0       0.0       0.0       0.0
 1 C  s              11.5       7.8       1.2       0.1       4.0       4.1
 1 C  pz              0.0       0.3       0.4       0.2       0.8       1.4
 1 C  px              0.5       1.5       5.1       0.2       3.1       0.1
 1 C  py              2.8       0.1       0.1       5.5       0.2       2.2
 1 C  dxz             0.0       0.0       0.1       0.0       0.0       0.0
 1 C  dyz             0.0       0.0       0.0       0.1       0.0       0.0
 1 C  dx2y2           0.0       0.0       0.1       0.1       0.1       0.0
 2 H  s               1.9       1.2       0.7       0.0       2.0       3.1
 3 C  s              11.1       0.1       3.1      10.9       0.1       1.8
 3 C  pz              1.1       0.0       1.0       1.1       0.6       0.2
 3 C  px              0.4       2.6       2.4       0.8       1.1       0.8
 3 C  py              3.4       1.0       0.3       0.0       3.0       0.9
 3 C  dz2             0.1       0.0       0.0       0.0       0.0       0.0
 3 C  dyz             0.1       0.0       0.0       0.0       0.0       0.0
 3 C  dx2y2           0.0       0.1       0.0       0.0       0.1       0.0
 4 H  s               2.4       0.1       0.7       4.8       0.0       1.7
 5 C  s               8.3       5.5       5.1       0.4       6.2       2.2
 5 C  pz              2.5       2.1       0.2       0.3       0.4       2.0
 5 C  px              0.7       1.2       1.5       7.4       0.2       1.1
 5 C  py              0.1       0.7       1.1       0.2       3.3       1.9
 5 C  dz2             0.1       0.0       0.0       0.0       0.0       0.1
 6 H  s               1.5       1.2       1.8       0.3       4.0       1.9
 7 C  s               3.9      13.7       2.5       4.1       1.7       1.0
 7 C  pz              0.8       2.2       0.0       0.4       0.4       0.3
 7 C  px              0.5       0.7       0.3       0.3       0.0       0.1
 7 C  py              0.8       0.2       5.3       3.2       1.9       0.0
 7 C  dz2             0.0       0.1       0.0       0.0       0.0       0.0
 8 H  s               0.7       2.6       0.9       1.8       0.5       0.1
 9 C  s               0.4       8.1       7.4       5.9       0.1       0.5
 9 C  pz              0.2       0.5       2.2       0.7       1.4       2.7
 9 C  px              1.8       0.1       1.2       0.1       1.6       2.3
 9 C  py              1.1       2.8       0.2       2.3       2.2       3.8
 9 C  dxz             0.1       0.1       0.0       0.0       0.1       0.2
 9 C  dx2y2           0.1       0.0       0.1       0.0       0.1       0.0
10 H  s               0.1       1.5       3.2       3.4       0.0       2.4
11 O  s               3.5       0.2       1.8       0.9       1.2       0.7
11 O  pz              0.1       0.0       0.3       0.1       0.6       2.6
11 O  px              2.6       6.5       0.4       5.3       3.2       5.7
11 O  py              1.5       0.5       0.1       0.5       2.9       0.1
12 O  s               0.3       2.6       1.2       0.6       0.1       0.2
12 O  pz              0.1       2.2       6.0       8.0       0.2       9.4
12 O  px              0.2       0.5       0.6       2.1       0.9       0.2
12 O  py              0.0       0.2       0.3       0.0       0.0       0.1
13 O  s               1.0       3.1       0.5       0.2       0.3       0.0
13 O  pz              1.8       4.8       0.8       4.8       2.7       3.6
13 O  px              0.3       0.8       0.0       0.5       0.4       0.3
13 O  py              0.0       0.0       0.3       0.4       0.2       0.0
14 O  s               3.0       1.7       1.0       0.0       0.4       0.0
14 O  pz              1.4       1.2       1.6       0.3       5.2       5.1
14 O  px              0.1       0.2       0.0       0.6       0.6       1.3
14 O  py              0.6       0.3       1.0       0.0       4.1       5.7
15 O  s               4.6       0.0       0.6       1.4       0.0       0.1
15 O  pz              2.1       0.0       1.3       7.4       0.0       4.3
15 O  px              0.2       0.1       0.0       0.7       0.1       0.5
15 O  py              0.3       0.0       0.0       0.6       0.3       0.1
16 O  s               1.1       1.5       1.8       0.3       0.8       0.0
16 O  px              0.0       0.0       0.1       0.0       0.4       0.6
16 O  py              0.9       0.9       5.6       0.6       9.1       2.2
17 H  s               1.0       1.0       2.8       0.2       3.2       1.0
18 H  s               1.1       0.9       3.9       0.1       4.2       1.3
19 H  s               0.1       1.5       2.2       3.1       0.3       2.6
20 H  s               0.9       2.5       0.3       1.7       0.9       1.0
21 H  s               1.4       1.0       0.8       0.1       2.7       3.8
22 H  s               1.8       0.0       0.4       2.9       0.0       1.4
23 H  s               0.5       0.6       2.2       0.2       2.8       0.7

                     24        25        26        27        28        29   
                  -0.51359  -0.50453  -0.48758  -0.46910  -0.45872  -0.43197
                   2.00000   2.00000   2.00000   2.00000   2.00000   2.00000
                  --------  --------  --------  --------  --------  --------
 0 C  s               0.0       0.0       0.2       0.0       0.7       0.8
 0 C  pz              1.2       1.7       3.7       0.0       8.5       2.4
 0 C  px              0.6       0.8       0.1       2.8       1.6       1.9
 0 C  py              0.0       0.0       0.0       3.5       4.5       0.5
 0 C  dxy             0.0       0.0       0.0       0.0       0.1       0.1
 1 C  s               0.3       0.5       0.5       1.2       0.2       0.0
 1 C  pz              5.1       4.6       9.2       0.9       2.3       0.7
 1 C  px              0.3       0.4       0.8       3.8       1.2       1.5
 1 C  py              0.3       1.7       0.5       4.4       0.8       2.9
 1 C  dxz             0.0       0.0       0.0       0.1       0.1       0.1
 1 C  dyz             0.1       0.1       0.0       0.1       0.0       0.0
 2 H  s               2.4       2.1       3.8       0.7       1.0       0.4
 3 C  s               0.2       0.1       0.0       0.0       0.1       0.2
 3 C  pz              0.6       0.5       3.1       1.0       1.7       0.8
 3 C  px              3.7       0.1       5.5       1.7       1.7       3.9
 3 C  py              2.2       3.3       3.4       3.4       0.1       2.5
 4 H  s               1.3       0.9       0.1       0.2       0.8       0.8
 5 C  s               0.1       0.1       0.3       0.0       0.1       1.5
 5 C  pz              1.6       0.5       1.6       0.4       4.0       9.9
 5 C  px              1.3       0.0       4.6       3.4       0.1       0.1
 5 C  py              0.1       2.6       2.4       0.7       0.0       2.1
 5 C  dz2             0.0       0.0       0.1       0.0       0.1       0.4
 6 H  s               0.0       0.4       0.4       0.0       0.2       4.0
 7 C  s               2.5       0.1       0.2       0.0       0.1       0.1
 7 C  pz              4.9       6.1       1.0       1.5       1.8       2.1
 7 C  px             12.2       0.8       1.5       0.7       1.9       0.1
 7 C  py              2.4       3.1       0.3       6.4       2.4       0.3
 7 C  dz2             0.1       0.1       0.0       0.0       0.0       0.3
 7 C  dyz             0.0       0.1       0.0       0.0       0.0       0.1
 8 H  s               8.9       0.0       0.5       0.6       1.6       0.1
 9 C  s               0.1       0.2       0.0       0.3       0.7       0.4
 9 C  pz              0.5       0.2       0.8      14.5       2.5       2.9
 9 C  px              3.9       1.8       3.4       0.5       1.3       0.9
 9 C  py              2.0       8.5       0.2       1.4       1.0       0.1
10 H  s               0.6       0.3       0.3       4.0       1.2       2.7
11 O  s               0.9       1.7       0.0       0.1       0.2       0.3
11 O  pz              1.6       1.0       3.0       3.4       0.0       1.6
11 O  px              3.2       7.4       1.1       6.5       1.1       0.0
11 O  py              0.3       1.1       3.9       2.3       0.1       2.0
12 O  s               0.3       0.5       0.0       0.4       0.1       0.0
12 O  pz              0.2       9.5       4.6       2.0       5.6       2.0
12 O  px              0.2       0.6       0.2       5.7       0.5       0.4
12 O  py              1.0       0.8       0.3       0.3       0.0       0.2
13 O  s               1.1       0.1       0.1       0.3       0.1       0.4
13 O  pz              4.2      16.2       3.2       0.0       1.1       4.9
13 O  px             10.3       1.8       0.0       0.1       1.9       1.2
13 O  py              1.4       0.9       0.1       3.0       0.7       0.0
14 O  s               0.1       0.3       1.4       0.0       0.1       0.2
14 O  pz              0.7       1.8       0.2       0.0       3.1       8.5
14 O  px              0.5       0.3       2.7       0.4       0.4       1.0
14 O  py              0.2       0.0       3.4       0.6       4.0       6.1
15 O  s               0.8       0.0       0.0       0.1       0.1       0.1
15 O  pz              3.2       2.3      12.1       0.9       2.1       1.6
15 O  px              1.7       0.1       3.8       0.1       0.0       1.0
15 O  py              0.1       0.1       0.5       0.6       0.3       0.0
16 O  s               0.0       0.2       0.0       0.0       0.5       1.3
16 O  pz              0.2       0.3       0.5       0.0       2.2       1.2
16 O  px              0.2       0.3       0.0       0.9       1.3       2.6
16 O  py              1.1       0.6       0.0       9.2      13.9       3.6
17 H  s               0.2       0.5       1.7       0.0       5.4       2.3
18 H  s               0.2       0.2       0.0       0.1       0.1       0.0
19 H  s               0.0       2.8       1.3       1.2       1.7       0.9
20 H  s               3.7       4.9       0.5       0.0       0.6       1.7
21 H  s               0.3       0.4       1.4       0.1       1.9       3.9
22 H  s               1.5       0.5       4.7       0.2       0.5       0.2
23 H  s               0.4       0.3       0.0       2.8       4.8       1.8

                     30        31        32        33        34        35   
                  -0.41714  -0.40347  -0.38349  -0.37856  -0.36684  -0.35957
                   2.00000   2.00000   2.00000   2.00000   2.00000   2.00000
                  --------  --------  --------  --------  --------  --------
 0 C  s               0.1       0.0       0.1       0.1       0.3       0.1
 0 C  pz              3.3       7.0       2.2      10.4       0.8       2.0
 0 C  px              0.0       9.6       1.8       4.3       0.3       3.7
 0 C  py              0.4       0.8       0.2      18.4       2.3       1.0
 0 C  dz2             0.0       0.0       0.0       0.0       0.0       0.1
 0 C  dxz             0.0       0.1       0.0       0.1       0.0       0.0
 0 C  dxy             0.0       0.0       0.0       0.2       0.2       0.2
 1 C  s               0.1       0.1       0.2       0.1       0.2       0.0
 1 C  pz              0.2       0.2       0.7       0.9       1.1       6.7
 1 C  px              0.4       9.4       2.1       0.2       0.4       2.9
 1 C  py              0.6       5.2       0.5       0.1       0.3       6.4
 1 C  dxz             0.0       0.0       0.0       0.1       0.0       0.0
 1 C  dyz             0.1       0.0       0.0       0.0       0.0       0.1
 1 C  dxy             0.0       0.1       0.0       0.3       0.0       0.2
 2 H  s               0.2       0.4       0.5       0.8       0.2       5.2
 3 C  s               0.8       0.2       0.0       0.4       0.1       0.3
 3 C  pz             10.6       2.7       3.0       0.1       4.3       4.0
 3 C  px              0.1       0.3       2.1       0.4       9.0       0.2
 3 C  py              0.7       5.2       0.2       0.5       0.2       4.6
 3 C  dxz             0.1       0.0       0.0       0.0       0.3       0.0
 3 C  dyz             0.3       0.0       0.0       0.0       0.1       0.0
 3 C  dxy             0.1       0.0       0.2       0.0       0.0       0.2
 4 H  s               3.6       0.8       2.1       0.0       7.2       2.2
 5 C  s               0.0       0.1       0.3       0.1       0.5       0.1
 5 C  pz              0.1       0.1       0.1       0.6       1.0       0.5
 5 C  px              2.7       2.1       0.6       1.1       6.9       1.6
 5 C  py              3.5       0.8      17.2       0.8       3.5       0.8
 5 C  dz2             0.1       0.0       0.0       0.0       0.2       0.0
 5 C  dxz             0.1       0.0       0.1       0.0       0.0       0.1
 5 C  dx2y2           0.1       0.0       0.0       0.1       0.0       0.0
 5 C  dxy             0.0       0.0       0.2       0.0       0.0       0.1
 6 H  s               0.6       0.2       5.1       1.7       3.7       1.3
 7 C  s               0.3       0.0       0.2       0.0       0.1       0.0
 7 C  pz              1.2       0.1       2.9       0.2       2.1       0.1
 7 C  px             13.8       2.5       1.6       1.6       0.1       0.4
 7 C  py              0.0       4.0       4.2       0.1       0.7       0.4
 7 C  dz2             0.0       0.0       0.0       0.0       0.1       0.0
 7 C  dyz             0.0       0.1       0.1       0.0       0.0       0.1
 7 C  dx2y2           0.1       0.1       0.0       0.1       0.1       0.0
 8 H  s               6.1       1.9       0.1       0.7       0.1       0.3
 9 C  s               0.0       0.4       0.1       0.0       0.6       0.4
 9 C  pz              0.8       3.4       3.3       0.5       0.0       3.8
 9 C  px              1.2       1.3       1.5       0.8       0.1       0.1
 9 C  py              1.5       4.7       2.9       0.5       0.2       0.3
 9 C  dz2             0.0       0.0       0.0       0.0       0.0       0.2
 9 C  dxz             0.1       0.0       0.0       0.0       0.1       0.1
 9 C  dyz             0.0       0.1       0.1       0.0       0.1       0.1
 9 C  dx2y2           0.1       0.0       0.1       0.0       0.0       0.1
 9 C  dxy             0.1       0.1       0.0       0.0       0.0       0.1
10 H  s               0.8       2.0       3.5       0.1       0.1       4.1
11 O  s               0.1       0.0       0.0       0.4       1.0       1.3
11 O  pz              0.1       2.3       0.1       0.1       3.1      15.5
11 O  px              1.0       0.0       0.3       1.3       0.4       0.3
11 O  py              2.3       0.6       2.0       2.1       2.5       1.3
12 O  s               0.0       1.6       0.6       0.1       0.2       0.2
12 O  pz              1.6       0.2       0.1       0.4       0.1       1.7
12 O  px              0.1       1.1       0.3       1.5       0.0       0.2
12 O  py              0.5       8.3       8.1       0.0       1.5       0.3
13 O  s               1.6       0.4       0.2       0.1       1.8       0.2
13 O  pz              2.2       0.0       1.0       0.8       3.2       0.2
13 O  px              5.8       2.5       0.1       1.0       4.6       0.1
13 O  py              0.3       0.3       1.2       0.0       9.2       1.8
14 O  s               0.1       0.3       1.7       0.0       0.7       0.3
14 O  pz              0.9       0.1       6.7       0.9       8.2       1.1
14 O  px              2.9       1.5       0.2       0.1       3.6       3.0
14 O  py              0.1       0.0       7.1       0.1       0.2       0.2
15 O  s               0.1       0.1       1.0       0.1       0.0       0.7
15 O  pz             13.6       0.0       0.1       0.0       1.7       0.0
15 O  px              2.0       0.1       2.7       0.4       0.7       0.5
15 O  py              1.2       2.4       2.1       0.9       1.6       6.8
16 O  s               0.2       0.4       0.0       1.7       0.2       0.1
16 O  pz              1.3       1.4       0.8       7.6       0.1       1.1
16 O  px              0.1       5.0       0.8       4.2       0.2       0.2
16 O  py              0.0       0.2       0.4       8.9       2.0       1.8
17 H  s               1.6       3.6       1.5       2.9       0.0       2.4
18 H  s               0.2       0.7       0.2      16.0       2.9       1.3
19 H  s               0.4       0.1       0.1       0.0       0.1       0.8
20 H  s               0.0       0.2       0.0       0.0       0.4       0.1
21 H  s               0.3       0.1       0.1       0.2       0.1       0.2
22 H  s               3.7       0.0       0.0       0.1       1.1       0.1
23 H  s               0.0       0.0       0.0       0.6       0.8       0.4

                     36        37        38        39        40        41   
                  -0.34402  -0.32093  -0.31695  -0.30700  -0.28319  -0.27618
                   2.00000   2.00000   2.00000   2.00000   2.00000   2.00000
                  --------  --------  --------  --------  --------  --------
 0 C  s               0.0       0.7       0.1       0.1       0.1       0.0
 0 C  pz              0.0       2.5       0.6       0.0       3.1       0.3
 0 C  px              1.2       2.2       0.5       0.6       5.5       0.5
 0 C  py              0.3       0.1       0.3       0.1       0.4       0.1
 0 C  dz2             0.0       0.0       0.0       0.0       0.1       0.0
 0 C  dyz             0.0       0.0       0.0       0.0       0.2       0.0
 0 C  dx2y2           0.0       0.0       0.0       0.0       0.3       0.0
 0 C  dxy             0.0       0.1       0.0       0.0       0.3       0.0
 1 C  s               0.6       0.2       0.2       0.0       0.5       0.3
 1 C  pz              1.1       2.7       6.1       0.1       0.2       0.1
 1 C  px              0.0       0.9       0.1       0.2       2.1       0.3
 1 C  py              0.3       0.2       0.2       0.7       0.7       0.4
 1 C  dz2             0.0       0.4       0.2       0.0       0.1       0.0
 1 C  dx2y2           0.1       0.3       0.0       0.1       0.1       0.0
 1 C  dxy             0.0       0.0       0.0       0.0       0.0       0.1
 2 H  s               0.5       4.2       4.3       0.1       0.2       0.2
 3 C  s               0.9       0.2       0.1       0.9       0.1       0.1
 3 C  pz              0.0       0.1       0.8       1.6       0.2       0.2
 3 C  px              0.4       1.6       1.1       0.1       0.0       5.2
 3 C  py              0.6       0.3       0.1       0.2       1.6       1.4
 3 C  dz2             0.1       0.0       0.0       0.0       0.0       0.3
 3 C  dxz             0.1       0.0       0.0       0.2       0.1       0.3
 3 C  dyz             0.0       0.1       0.2       0.1       0.0       0.0
 4 H  s               0.5       0.1       2.0       2.5       0.0       4.1
 5 C  s               0.7       0.6       0.1       0.0       0.1       0.0
 5 C  pz              0.7       0.1       0.2       2.8       0.3       0.5
 5 C  px              1.4       1.3       0.4       0.0       0.1       5.1
 5 C  py              0.7       0.6       0.4       4.5       0.1       0.7
 5 C  dxz             0.1       0.1       0.0       0.1       0.0       0.0
 5 C  dyz             0.0       0.1       0.0       0.2       0.0       0.3
 5 C  dx2y2           0.2       0.1       0.0       0.1       0.0       0.1
 5 C  dxy             0.1       0.0       0.0       0.1       0.0       0.0
[...]
 3 C  s               0.1       0.5       0.5       1.1       0.9       0.1
 3 C  pz              0.0       0.2       0.3       1.1       0.8       0.1
 3 C  px              0.0       0.0       0.0       0.1       0.1       0.0
 3 C  py              0.0       0.1       0.3       0.6       0.3       0.1
 3 C  dz2             0.0       0.2       0.6       1.5       0.4       0.2
 3 C  dxz             0.1       0.2       0.7       0.3       0.0       0.1
 3 C  dyz             0.0       1.1       1.0       2.4       2.7       0.3
 3 C  dx2y2           0.0       0.2       0.1       0.3       0.7       0.0
 3 C  dxy             0.0       0.0       0.4       0.3       0.0       0.0
 5 C  s               0.3       0.4       1.2       0.1       0.9       0.1
 5 C  pz              0.1       0.4       1.4       0.1       1.6       0.1
 5 C  py              0.0       0.0       0.0       0.0       0.2       0.0
 5 C  dz2             1.3       1.3       5.1       0.3       3.6       0.2
 5 C  dxz             0.1       0.2       0.4       0.6       0.1       0.0
 5 C  dyz             0.1       0.1       0.5       0.0       0.8       0.1
 5 C  dxy             0.0       0.0       0.1       0.0       0.0       0.0
 7 C  s               1.6       0.0       0.1       0.3       0.6       0.1
 7 C  pz              2.0       0.0       0.0       0.6       1.0       0.1
 7 C  px              0.0       0.0       0.0       0.0       0.1       0.1
 7 C  dz2             6.5       0.0       0.3       2.1       1.7       0.1
 7 C  dxz             0.0       0.0       0.0       0.1       0.2       0.1
 7 C  dyz             1.5       0.0       0.1       0.2       1.2       0.0
 7 C  dx2y2           0.2       0.0       0.0       0.1       0.0       0.0
 7 C  dxy             0.0       0.0       0.0       0.0       0.0       0.2
 9 C  s               1.3       0.0       0.5       1.0       0.5       0.1
 9 C  pz              0.3       0.0       0.2       0.3       0.1       0.0
 9 C  px              0.2       0.0       0.1       0.4       0.0       2.9
 9 C  py              0.2       0.0       0.1       0.4       0.1       0.3
 9 C  dz2             0.2       0.0       0.0       0.1       0.3       0.8
 9 C  dxz             0.7       0.2       0.3       2.3       0.2       3.6
 9 C  dyz             1.3       0.0       0.1       0.2       0.0       1.8
 9 C  dx2y2           0.1       0.0       0.1       0.2       0.7       2.8
 9 C  dxy             1.4       0.1       0.8       2.4       0.4       0.2
11 O  s               0.0       0.3       0.0       0.4       0.0       0.1
11 O  px              0.2       0.0       0.1       0.1       0.8       4.7
11 O  py              0.0       0.0       0.0       0.0       0.0       1.1
11 O  dz2             0.3       0.6       0.0       2.3       0.0       0.3
11 O  dxz             3.0       0.4       1.0       1.1       5.6      22.2
11 O  dyz             0.1       0.1       0.0       0.2       0.8       6.8
11 O  dx2y2           0.0       0.7       0.0       0.0       0.0      12.3
11 O  dxy             1.7       0.7       0.8       4.8       3.7       6.2
12 O  s               0.8       0.0       0.5       1.7       0.2       1.4
12 O  pz              0.8       0.0       0.3       0.7       0.1       0.4
12 O  px              0.3       0.0       0.1       0.3       0.0       0.5
12 O  py              0.1       0.0       0.1       0.4       0.1       0.2
12 O  dz2             0.0       0.1       0.1       0.2       0.2       0.3
12 O  dxz             6.4       0.1       2.3       5.9       0.4       4.9
12 O  dyz             8.0       0.2       2.9       7.8       1.4       2.4
12 O  dx2y2           0.2       0.0       0.0       0.5       1.0       0.9
12 O  dxy             4.0       0.0       1.8       5.4       0.3       5.7
13 O  s               2.3       0.0       0.1       0.9       1.8       0.3
13 O  pz              2.9       0.0       0.0       0.7       1.1       0.1
13 O  dz2            30.1       0.1       0.1       5.8      11.0       0.4
13 O  dxz             2.2       0.0       0.0       0.2       0.0       0.1
13 O  dyz             8.5       0.0       0.9       3.3       1.6       0.5
13 O  dx2y2           0.3       0.0       0.0       0.1       0.0       0.0
14 O  s               0.2       0.5       1.5       0.1       2.9       0.2
14 O  pz              0.2       0.5       1.7       0.0       1.6       0.1
14 O  py              0.1       0.1       0.3       0.0       0.1       0.0
14 O  dz2             2.5       7.8      26.5       0.3      19.6       1.3
14 O  dxz             0.9       0.1       0.3       1.3       1.2       0.1
14 O  dyz             1.3       0.6       2.0       0.3       0.5       0.0
14 O  dxy             0.1       0.1       0.4       0.0       0.0       0.0
15 O  s               0.0       0.4       0.4       2.3       1.7       0.2
15 O  pz              0.0       0.5       0.7       1.4       1.0       0.1
15 O  py              0.0       0.1       0.2       0.5       0.2       0.0
15 O  dz2             0.1       1.6       2.2       3.3       3.4       0.1
15 O  dxz             0.1       0.8       0.5       1.8       2.6       0.1
15 O  dyz             0.0       5.9       8.1      17.8       9.3       1.4
15 O  dx2y2           0.0       0.9       2.0       3.0       0.3       0.2
15 O  dxy             0.0       0.0       0.0       0.6       1.5       0.0
16 O  s               0.0       3.2       1.0       0.1       0.0       0.0
16 O  py              0.0       3.2       1.1       0.1       0.0       0.0
16 O  dz2             0.0       7.0       2.0       0.1       0.0       0.0
16 O  dxz             0.0       0.5       0.2       0.0       0.0       0.0
16 O  dyz             0.0       9.4       3.7       0.4       0.0       0.0
16 O  dx2y2           0.0      17.5       6.5       0.3       0.1       0.1
16 O  dxy             0.0      15.8       5.3       0.4       0.0       0.0
19 H  s               0.2       0.0       0.0       0.1       0.0       0.1
20 H  s               0.5       0.0       0.0       0.1       0.0       0.0
21 H  s               0.1       0.1       0.3       0.0       0.2       0.0
22 H  s               0.0       0.1       0.2       0.3       0.1       0.0
23 H  s               0.0       0.5       0.2       0.0       0.0       0.0



                      *****************************
                      * MAYER POPULATION ANALYSIS *
                      *****************************

  NA   - Mulliken gross atomic population
  ZA   - Total nuclear charge
  QA   - Mulliken gross atomic charge
  VA   - Mayer's total valence
  BVA  - Mayer's bonded valence
  FA   - Mayer's free valence

  ATOM       NA         ZA         QA         VA         BVA        FA
  0 C      5.9248     6.0000     0.0752     3.9886     3.9886    -0.0000
  1 C      6.0112     6.0000    -0.0112     4.0140     4.0140     0.0000
  2 H      0.9384     1.0000     0.0616     1.0028     1.0028    -0.0000
  3 C      5.9410     6.0000     0.0590     4.0011     4.0011    -0.0000
  4 H      0.9290     1.0000     0.0710     0.9775     0.9775     0.0000
  5 C      5.9556     6.0000     0.0444     4.0151     4.0151    -0.0000
  6 H      0.9169     1.0000     0.0831     0.9757     0.9757    -0.0000
  7 C      6.0066     6.0000    -0.0066     3.8850     3.8850    -0.0000
  8 H      0.9181     1.0000     0.0819     0.9782     0.9782     0.0000
  9 C      5.8097     6.0000     0.1903     4.1063     4.1063    -0.0000
 10 H      0.9398     1.0000     0.0602     0.9833     0.9833     0.0000
 11 O      8.3221     8.0000    -0.3221     2.1333     2.1333     0.0000
 12 O      8.3752     8.0000    -0.3752     2.0614     2.0614    -0.0000
 13 O      8.4234     8.0000    -0.4234     2.0139     2.0139    -0.0000
 14 O      8.4230     8.0000    -0.4230     2.0077     2.0077    -0.0000
 15 O      8.4255     8.0000    -0.4255     2.0105     2.0105    -0.0000
 16 O      8.4332     8.0000    -0.4332     2.0149     2.0149    -0.0000
 17 H      0.9313     1.0000     0.0687     0.9611     0.9611    -0.0000
 18 H      0.8962     1.0000     0.1038     0.9584     0.9584    -0.0000
 19 H      0.7028     1.0000     0.2972     0.9126     0.9126     0.0000
 20 H      0.6815     1.0000     0.3185     0.8724     0.8724     0.0000
 21 H      0.7007     1.0000     0.2993     0.9223     0.9223    -0.0000
 22 H      0.6930     1.0000     0.3070     0.9172     0.9172    -0.0000
 23 H      0.7010     1.0000     0.2990     0.8937     0.8937     0.0000

  Mayer bond orders larger than 0.100000
B(  0-C ,  1-C ) :   1.0568 B(  0-C , 16-O ) :   1.0788 B(  0-C , 17-H ) :   0.9056 
B(  0-C , 18-H ) :   0.9180 B(  1-C ,  2-H ) :   0.8602 B(  1-C ,  3-C ) :   0.9591 
B(  1-C , 11-O ) :   0.9815 B(  3-C ,  4-H ) :   0.8930 B(  3-C ,  5-C ) :   0.9926 
B(  3-C , 15-O ) :   1.0564 B(  5-C ,  6-H ) :   0.8882 B(  5-C ,  7-C ) :   0.9830 
B(  5-C , 14-O ) :   1.0422 B(  7-C ,  8-H ) :   0.9011 B(  7-C ,  9-C ) :   0.9223 
B(  7-C , 13-O ) :   1.0360 B(  9-C , 10-H ) :   0.8999 B(  9-C , 11-O ) :   1.0011 
B(  9-C , 12-O ) :   1.1578 B( 12-O , 19-H ) :   0.8333 B( 13-O , 20-H ) :   0.8389 
B( 14-O , 21-H ) :   0.8213 B( 15-O , 22-H ) :   0.8234 B( 16-O , 23-H ) :   0.8461 


-------
TIMINGS
-------

Total SCF time: 0 days 0 hours 0 min 9 sec 

Total time                  ....       9.283 sec
Sum of individual times     ....       8.863 sec  ( 95.5%)

SCF preparation             ....       0.178 sec  (  1.9%)
Fock matrix formation       ....       7.969 sec  ( 85.8%)
  Startup                   ....       0.048 sec  (  0.6% of F)
  Split-RI-J                ....       3.576 sec  ( 44.9% of F)
  XC integration            ....       3.937 sec  ( 49.4% of F)
    Basis function eval.    ....       1.327 sec  ( 33.7% of XC)
    Density eval.           ....       0.746 sec  ( 19.0% of XC)
    XC-Functional eval.     ....       0.273 sec  (  6.9% of XC)
    XC-Potential eval.      ....       0.990 sec  ( 25.2% of XC)
Diagonalization             ....       0.000 sec  (  0.0%)
Density matrix formation    ....       0.151 sec  (  1.6%)
Total Energy calculation    ....       0.025 sec  (  0.3%)
Population analysis         ....       0.099 sec  (  1.1%)
Orbital Transformation      ....       0.059 sec  (  0.6%)
Orbital Orthonormalization  ....       0.000 sec  (  0.0%)
DIIS solution               ....       0.291 sec  (  3.1%)
  MO trafo                  ....       0.000 sec  (  0.0 % of DIIS)
  Orb grad                  ....       0.000 sec  (  0.0 % of DIIS)
  Energy W gradient         ....       0.000 sec  (  0.0 % of DIIS)
  DIIS error                ....       0.006 sec  (  2.1 % of DIIS)
  DIIS work                 ....       0.238 sec  ( 81.8 % of DIIS)
  Form Q                    ....       0.000 sec  (  0.0 % of DIIS)
  Form QpQm                 ....       0.000 sec  (  0.0 % of DIIS)
  Exp/Cayley                ....       0.000 sec  (  0.0 % of DIIS)
  Orb update                ....       0.000 sec  (  0.0 % of DIIS)
  Wake-sleep                ....       0.014 sec  (  4.7 % of DIIS)
SOSCF solution              ....       0.090 sec  (  1.0%)
  MO trafo                  ....       0.047 sec  ( 52.5 % of SOSCF)
  Orb grad                  ....       0.003 sec  (  3.3 % of SOSCF)
  Rot update                ....       0.020 sec  ( 22.1 % of SOSCF)
  Step                      ....       0.020 sec  ( 22.0 % of SOSCF)
Finished LeanSCF after   9.4 sec

Maximum memory used throughout the entire LEANSCF-calculation: 18.3 MB


-------------------------------------------------------------------------------
                          DFT DISPERSION CORRECTION                            
                                                                               
                                DFTD4 V3.4.0                                   
-------------------------------------------------------------------------------
The PBE functional is recognized
Active option DFTDOPT                   ...         5   

-------------------------   ----------------
Dispersion correction           -0.024940658
-------------------------   ----------------

------------------   -----------------
gCP correction             0.157158629
------------------   -----------------

-------------------------   --------------------
FINAL SINGLE POINT ENERGY      -685.694754120321
-------------------------   --------------------


------------------------------------------------------------------------------
                              ORCA PROPERTY CALCULATIONS
------------------------------------------------------------------------------

GBWName                                 ... sp.gbw
Number of atoms                         ...     24
Number of basis functions               ...    192
Max core memory                         ...   1024 MB

Electric properties:
Dipole moment                           ... YES
Quadrupole moment                       ...  NO
Static polarizability (Dipole/Dipole)   ...  NO
Static polarizability (Dipole/Quad.)    ...  NO
Static polarizability (Quad./Quad.)     ...  NO
Static polarizability (Velocity)        ...  NO

Atomic electric properties:
Dipole moment                           ...  NO
Quadrupole moment                       ...  NO
Static polarizability                   ...  NO

Choice of electric origin               ... Center of mass
Position of electric origin             ...    -0.000003     0.000004     0.000001

General magnetic properties:
Magnetizability                         ...  NO

EPR properties:
g-Tensor (aka g-matrix)                 ...  NO
Zero-Field splitting spin-orbit         ...  NO
Zero-field splitting spin-spin          ...  NO
Hyperfine couplings                     ...  NO (   0 nuclei)
Quadrupole couplings                    ...  NO (   0 nuclei)
Contact density                         ...  NO (   0 nuclei)

NMR properties:
Chemical shifts                         ...  NO (   0 nuclei)
Spin-rotation constants                 ...  NO (   0 nuclei)
Spin-spin couplings                     ...  NO (   0 nuclei,    0 pairs)

Choice of magnetic origin               ... GIAO
Position of magnetic origin             ...     0.000000     0.000000     0.000000

Properties with geometric perturbations:
SCF Hessian                             ...  NO
IR spectrum                             ...  NO
VCD spectrum                            ...  NO
X-ray spectroscopy properties:
SCF XES/XAS/RIXS spectra                ...  NO


-------------
DIPOLE MOMENT
-------------

Method             : SCF
Type of density    : Electron Density
Multiplicity       :   1
Irrep              :   0
Energy             :  -685.8269720909985381 Eh
Relativity type    : 
Basis              : AO
                                X                 Y                 Z
Electronic contribution:      1.794255187      -0.984666481      -0.255468762
Nuclear contribution   :     -0.761292234       0.662901048       0.398113749
                        -----------------------------------------
Total Dipole Moment    :      1.032962953      -0.321765433       0.142644987
                        -----------------------------------------
Magnitude (a.u.)       :      1.091280463
Magnitude (Debye)      :      2.773814498



--------------------
Rotational spectrum 
--------------------
 
Rotational constants in cm-1:             0.037536             0.027697             0.021880 
Rotational constants in MHz :          1125.297546           830.342933           655.940571 

Dipole components along the rotational axes: 
x,y,z [a.u.] :     0.910986    -0.495978     0.339121 
x,y,z [Debye]:     2.315542    -1.260677     0.861978 

 

Dipole moment calculation done in   0.0 sec 

Maximum memory used throughout the entire PROP-calculation: 12.0 MB

--------------------------------
SUGGESTED CITATIONS FOR THIS RUN
--------------------------------

Below you find a list of papers that are relevant to this ORCA run
We neither can nor want to force you to cite these papers, but we appreciate if you do
You receive ORCA, which is the product of decades of hard work by many enthusiastic individuals, for free
The only thing we kindly ask in return is that you cite our papers,
We deeply appreciate it, if you show your appreciation for ORCA by not just citing the generic ORCA reference.

Please note that relegating all ORCA citations to the supporting information does *not* help us.
SI sections are not indexed - citations you put there will not count into any citation statistics
But we need these citations in order to attract the funding resources that allow us to do what we are doing

Therefore, if you are a happy ORCA user, please consider citing a few of the papers listed below in the main body of your paper

In addition to the list printed below, the program has created the file sp.bibtex that contains the list in bibtex format
You can import this file easily into all common literature databanks and citation aid programs


List of essential papers. We consider these as the minimum necessary citations

  1. Neese,F.
     Software update: the ORCA program system, version 5.0
     WIRES Comput. Molec. Sci., 2022 12(1)e1606
     doi.org/10.1002/wcms.1606

List of papers to cite with high priority. The work reported in these papers was absolutely
necessary for this run to complete.
Our perspective: the developers of density functionals and basis sets usually get cited in chemistry papers
Good! But without the algorithms to do something with them, the functionals or basis sets would not do anything.
Hence, in our opinion, the algorithm design and method developments papers are equally worthy of getting cited

  1. Neese,F.
     An improvement of the resolution of the identity approximation for the formation of the Coulomb matrix
     J. Comp. Chem., 2003 24(14)1740-1747
     doi.org/10.1002/jcc.10318
  2. Neese,F.
     The SHARK Integral Generation and Digestion System
     J. Comp. Chem., 2022  1-16
     doi.org/10.1002/jcc.26942
  3. Caldeweyher,E.; Bannwarth,C.; Grimme,S.
     Extension of the D3 dispersion coefficient model
     J. Chem. Phys., 2017 147 034112-XXXX
     doi.org/10.1063/1.4993215
  4. Caldeweyher,E.; Ehlert,S.; Hansen,A.; Neugebauer,H.; Spicher,S.; Bannwarth,C.; Grimme,S.
     A generally applicable atomic-charge dependent London dispersion correction
     J. Chem. Phys., 2019 150 154122-XXXX
     doi.org/10.1063/1.5090222
  5. Caldeweyher,E.; Mewes,J.; Ehlert,S.; Grimme,S.
     Extension and evaluation of the D4 London-dispersion model for periodic systems
     Phys. Chem. Chem. Phys., 2020 22(16)8499-8512
     doi.org/10.1039/D0CP00502A

List of suggested additional citations. These are papers that are important in the 'surrounding' of 
of this run, or papers that preceded the highly important papers. If you like your results we are grateful for a citation.

  1. Neese,F.
     The ORCA program system
     WIRES Comput. Molec. Sci., 2012 2(1)73-78
     doi.org/10.1002/wcms.81
  2. Neese,F.
     Software update: the ORCA program system, version 4.0
     WIRES Comput. Molec. Sci., 2018 8(1)1-6
     doi.org/10.1002/wcms.1327
  3. Neese,F.; Wennmohs,F.; Becker,U.; Riplinger,C.
     The ORCA quantum chemistry program package
     J. Chem. Phys., 2020 152 Art. No. L224108
     doi.org/10.1063/5.0004608

List of optional additional citations

  1. Neese,F.
     Approximate second-order SCF convergence for spin unrestricted wavefunctions
     Chem. Phys. Lett., 2000 325(1-3)93-98
     doi.org/10.1016/s0009-2614(00)00662-x

Timings for individual modules:

Sum of individual times          ...       11.420 sec (=   0.190 min)
Startup calculation              ...        0.921 sec (=   0.015 min)   8.1 %
SCF iterations                   ...       10.405 sec (=   0.173 min)  91.1 %
Property calculations            ...        0.094 sec (=   0.002 min)   0.8 %
                             ****ORCA TERMINATED NORMALLY****
TOTAL RUN TIME: 0 days 0 hours 0 minutes 12 seconds 98 msec
