      -----------------------------------------------------------      
     |                   =====================                   |     
     |                           x T B                           |     
     |                   =====================                   |     
     |                         S. Grimme                         |     
     |          Mulliken Center for Theoretical Chemistry        |     
     |                    University of Bonn                     |     
      -----------------------------------------------------------      

   * xtb version 6.7.1 (edcfbbe) compiled by 'albert@albert-system' on 2024-07-22

   xtb is free software: you can redistribute it and/or modify it under
   the terms of the GNU Lesser General Public License as published by
   the Free Software Foundation, either version 3 of the License, or
   (at your option) any later version.
   
   xtb is distributed in the hope that it will be useful,
   but WITHOUT ANY WARRANTY; without even the implied warranty of
   MERCHANTABILITY or FITNESS FOR A PARTICULAR PURPOSE.  See the
   GNU Lesser General Public License for more details.
   
   Cite this work as:
   * C. Bannwarth, E. Caldeweyher, S. Ehlert, A. Hansen, P. Pracht,
     J. Seibert, S. Spicher, S. Grimme, WIREs Comput. Mol. Sci., 2020, 11,
     e01493. DOI: 10.1002/wcms.1493
   
   for GFN2-xTB:
   * C. Bannwarth, S. Ehlert and S. Grimme., J. Chem. Theory Comput., 2019,
     15, 1652-1671. DOI: 10.1021/acs.jctc.8b01176
   for GFN1-xTB:
   * S. Grimme, C. Bannwarth, P. Shushkov, J. Chem. Theory Comput., 2017,
     13, 1989-2009. DOI: 10.1021/acs.jctc.7b00118
   for GFN0-xTB:
   * P. Pracht, E. Caldeweyher, S. Ehlert, S. Grimme, ChemRxiv, 2019, preprint.
     DOI: 10.26434/chemrxiv.8326202.v1
   for GFN-FF:
   * S. Spicher and S. Grimme, Angew. Chem. Int. Ed., 2020, 59, 15665-15673.
     DOI: 10.1002/anie.202004239
   
   for ALPB and GBSA implicit solvation:
   * S. Ehlert, M. Stahn, S. Spicher, S. Grimme, J. Chem. Theory Comput.,
     2021, 17, 4250-4261. DOI: 10.1021/acs.jctc.1c00471
   
   for ddCOSMO and CPCM-X implicit solvation:
   * M. Stahn, S. Ehlert, S. Grimme, J. Phys. Chem. A,
     2023, XX, XXXX-XXXX. DOI: 10.1021/acs.jpca.3c04382
   
   for DFT-D4:
   * E. Caldeweyher, C. Bannwarth and S. Grimme, J. Chem. Phys., 2017,
     147, 034112. DOI: 10.1063/1.4993215
   * E. Caldeweyher, S. Ehlert, A. Hansen, H. Neugebauer, S. Spicher,
     C. Bannwarth and S. Grimme, J. Chem. Phys., 2019, 150, 154122.
     DOI: 10.1063/1.5090222
   * E. Caldeweyher, J.-M. Mewes, S. Ehlert and S. Grimme, Phys. Chem. Chem. Phys.
     2020, 22, 8499-8512. DOI: 10.1039/D0CP00502A
   
   for sTDA-xTB:
   * S. Grimme and C. Bannwarth, J. Chem. Phys., 2016, 145, 054103.
     DOI: 10.1063/1.4959605
   
   in the mass-spec context:
   * V. Asgeirsson, C. Bauer and S. Grimme, Chem. Sci., 2017, 8, 4879.
     DOI: 10.1039/c7sc00601b
   * J. Koopman and S. Grimme, ACS Omega 2019, 4, 12, 15120-15133.
     DOI: 10.1021/acsomega.9b02011
   
   for metadynamics refer to:
   * S. Grimme, J. Chem. Theory Comput., 2019, 155, 2847-2862
     DOI: 10.1021/acs.jctc.9b00143
   
   for SPH calculations refer to:
   * S. Spicher and S. Grimme, J. Chem. Theory Comput., 2021, 17, 1701-1714
     DOI: 10.1021/acs.jctc.0c01306
   
   for ONIOM refer to:
   * C. Plett, A. Katbashev, S. Ehlert, S. Grimme, M. Bursch,
     Phys. Chem. Chem. Phys., 2023, 25, 17860-17868. DOI: 10.1039/D3CP02178E
   
   for DIPRO refer to:
   * J. Kohn, N. Gildemeister, S. Grimme, D. Fazzi, A. Hansen,
     J. Chem. Phys., 2023, just accepted.
   
   for PTB refer to:
   * S. Grimme, M. Mueller, A. Hansen, J. Chem. Phys., 2023, 158, 124111.
     DOI: 10.1063/5.0137838
   
   with help from (in alphabetical order)
   P. Atkinson, C. Bannwarth, F. Bohle, G. Brandenburg, E. Caldeweyher
   M. Checinski, S. Dohm, S. Ehlert, S. Ehrlich, I. Gerasimov, C. Hölzer
   A. Katbashev, J. Kohn, J. Koopman, C. Lavigne, S. Lehtola, F. März, M. Müller,
   F. Musil, H. Neugebauer, J. Pisarek, C. Plett, P. Pracht, F. Pultar,
   J. Seibert, P. Shushkov, S. Spicher, M. Stahn, M. Steiner, T. Strunk,
   J. Stückrath, T. Rose, and J. Unsleber
   
 * started run on 2025/04/05 at 00:07:42.418     
   ID    Z sym.   atoms
    1    6 C      1-3, 5, 7
    2    8 O      4, 6
    3    1 H      8-17

           -------------------------------------------------
          |                Calculation Setup                |
           -------------------------------------------------

          program call               : /srv/scratch/z5358697/.xtb/bin/xtb xtb_rrho.coord --gfn2 --ohess vtight --chrg 0 --enso --norestart -I rrho-xcontrol-inp --parallel 1 --alpb water
          hostname                   : k150
          coordinate file            : xtb_rrho.coord
          omp threads                :                     1


           -------------------------------------------------
          |                 G F N 2 - x T B                 |
           -------------------------------------------------

        Reference                      10.1021/acs.jctc.8b01176
      * Hamiltonian:
        H0-scaling (s, p, d)           1.850000    2.230000    2.230000
        zeta-weighting                 0.500000
      * Dispersion:
        s8                             2.700000
        a1                             0.520000
        a2                             5.000000
        s9                             5.000000
      * Repulsion:
        kExp                           1.500000    1.000000
        rExp                           1.000000
      * Coulomb:
        alpha                          2.000000
        third order                    shell-resolved
        anisotropic                    true
        a3                             3.000000
        a5                             4.000000
        cn-shift                       1.200000
        cn-exp                         4.000000
        max-rad                        5.000000

      * Solvation model:               ALPB
        Solvent                        water
        Parameter file                 internal GFN2-xTB/ALPB
        Dielectric constant                8.0200E+01
        Reference state                gsolv [1 M gas/solution]
        Free energy shift                  1.0808E-03 Eh       6.7819E-01 kcal/mol
        Temperature                        2.9815E+02 K
        Density                            1.0000E+00 kg/L
        Solvent mass                       1.8000E+01 g/mol
        Interaction kernel             P16
        Born radius scaling (c1)           1.4744E+00
        Born radii integrator          GBOBC
        Born offset                        0.0000E+00 a0       0.0000E+00 AA
        H-bond correction              true
        Ion screening                  false
        Surface tension                    1.0000E-05 Eh       1.5569E+01 dyn/cm
        Grid points                               974 per atom

          ...................................................
          :                      SETUP                      :
          :.................................................:
          :  # basis functions                  38          :
          :  # atomic orbitals                  38          :
          :  # shells                           24          :
          :  # electrons                        42          :
          :  max. iterations                   250          :
          :  Hamiltonian                  GFN2-xTB          :
          :  restarted?                      false          :
          :  GBSA solvation                   true          :
          :  PC potential                    false          :
          :  electronic temp.          300.0000000     K    :
          :  accuracy                    1.0000000          :
          :  -> integral cutoff          0.2500000E+02      :
          :  -> integral neglect         0.1000000E-07      :
          :  -> SCF convergence          0.1000000E-05 Eh   :
          :  -> wf. convergence          0.1000000E-03 e    :
          :  Broyden damping             0.4000000          :
          :  net charge                          0          :
          :  unpaired electrons                  0          :
          ...................................................

 iter      E             dE          RMSdq      gap      omega  full diag
   1    -24.1607239 -0.241607E+02  0.407E+00    5.92       0.0  T
   2    -24.2197826 -0.590587E-01  0.198E+00    4.86       1.0  T
   3    -24.2219424 -0.215974E-02  0.106E+00    5.22       1.0  T
   4    -24.2233761 -0.143372E-02  0.158E-01    4.99       1.0  T
   5    -24.2235269 -0.150819E-03  0.680E-02    5.05       1.0  T
   6    -24.2235281 -0.117626E-05  0.256E-02    5.04       1.0  T
   7    -24.2235298 -0.166641E-05  0.443E-03    5.04       5.5  T
   8    -24.2235298 -0.480627E-07  0.253E-03    5.04       9.6  T
   9    -24.2235298 -0.127781E-07  0.538E-04    5.04      45.0  T
  10    -24.2235298 -0.126384E-08  0.253E-04    5.04      95.7  T

   *** convergence criteria satisfied after 10 iterations ***

         #    Occupation            Energy/Eh            Energy/eV
      -------------------------------------------------------------
         1        2.0000           -0.7404730             -20.1493
       ...           ...                  ...                  ...
        15        2.0000           -0.4749675             -12.9245
        16        2.0000           -0.4701851             -12.7944
        17        2.0000           -0.4644175             -12.6374
        18        2.0000           -0.4618235             -12.5669
        19        2.0000           -0.4460638             -12.1380
        20        2.0000           -0.4396245             -11.9628
        21        2.0000           -0.4244469             -11.5498 (HOMO)
        22                         -0.2390959              -6.5061 (LUMO)
        23                         -0.0374788              -1.0199
        24                          0.0890670               2.4236
        25                          0.1237567               3.3676
        26                          0.1329006               3.6164
       ...                                ...                  ...
        38                          0.5871957              15.9784
      -------------------------------------------------------------
                  HL-Gap            0.1853510 Eh            5.0437 eV
             Fermi-level           -0.3317714 Eh           -9.0280 eV

 SCC (total)                   0 d,  0 h,  0 min,  0.008 sec
 SCC setup                      ...        0 min,  0.001 sec (  9.444%)
 Dispersion                     ...        0 min,  0.000 sec (  0.761%)
 classical contributions        ...        0 min,  0.000 sec (  0.178%)
 integral evaluation            ...        0 min,  0.001 sec ( 11.948%)
 iterations                     ...        0 min,  0.004 sec ( 45.520%)
 molecular gradient             ...        0 min,  0.003 sec ( 30.786%)
 printout                       ...        0 min,  0.000 sec (  1.208%)

         :::::::::::::::::::::::::::::::::::::::::::::::::::::
         ::                     SUMMARY                     ::
         :::::::::::::::::::::::::::::::::::::::::::::::::::::
         :: total energy             -23.962666858520 Eh    ::
         :: total w/o Gsasa/hb       -23.962237768912 Eh    ::
         :: gradient norm              0.036698169455 Eh/a0 ::
         :: HOMO-LUMO gap              5.043656876920 eV    ::
         ::.................................................::
         :: SCC energy               -24.223498387016 Eh    ::
         :: -> isotropic ES            0.062511435478 Eh    ::
         :: -> anisotropic ES         -0.000372665653 Eh    ::
         :: -> anisotropic XC          0.007143715503 Eh    ::
         :: -> dispersion             -0.009340671522 Eh    ::
         :: -> Gsolv                  -0.010426125703 Eh    ::
         ::    -> Gelec               -0.009997036094 Eh    ::
         ::    -> Gsasa                0.001290801248 Eh    ::
         ::    -> Ghb                 -0.002800650554 Eh    ::
         ::    -> Gshift               0.001080759698 Eh    ::
         :: repulsion energy           0.260831528496 Eh    ::
         :: add. restraining           0.000000000000 Eh    ::
         :: total charge              -0.000000000000 e     ::
         :::::::::::::::::::::::::::::::::::::::::::::::::::::

      ----------------------------------------------------------- 
     |                   =====================                   |
     |                        A N C O P T                        |
     |                   =====================                   |
     |               Approximate Normal Coordinate               |
     |                Rational Function Optimizer                |
      ----------------------------------------------------------- 
      ----------------------------------------------------------- 
     |                   =====================                   |
     |                        A N C O P T                        |
     |                   =====================                   |
     |               Approximate Normal Coordinate               |
     |                Rational Function Optimizer                |
      ----------------------------------------------------------- 

          ...................................................
          :                      SETUP                      :
          :.................................................:
          :   optimization level         verytight          :
          :   max. optcycles                   340          :
          :   ANC micro-cycles                  20          :
          :   degrees of freedom                45          :
          :.................................................:
          :   RF solver                   davidson          :
          :   write xtbopt.log                true          :
          :   linear?                        false          :
          :   energy convergence         0.1000000E-06 Eh   :
          :   grad. convergence          0.2000000E-03 Eh/α :
          :   maxmium RF displ.          1.0000000          :
          :   Hlow (freq-cutoff)         0.1000000E-01      :
          :   Hmax (freq-cutoff)         5.0000000          :
          :   S6 in model hess.         20.0000000          :
          ...................................................

generating ANC from exact Hessian ...
Using Lindh-Hessian (1995)
 Shifting diagonal of input Hessian by   7.799583119945349E-003
 Lowest  eigenvalues of input Hessian
    0.000000    0.000000    0.000000    0.000000    0.000000    0.000000
    0.010000    0.011195    0.014195    0.017429    0.018633    0.019156
    0.023120    0.037355    0.041129    0.049045    0.061336    0.062750
 Highest eigenvalues
    1.165196    1.223266    1.241715    1.307487    1.733468    2.271964
 

........................................................................
.............................. CYCLE    1 ..............................
........................................................................

 iter      E             dE          RMSdq      gap      omega  full diag
   1    -24.2235298 -0.242235E+02  0.623E-05    5.04       0.0  T
   2    -24.2235298 -0.167191E-10  0.306E-05    5.04     791.5  T
   3    -24.2235298 -0.230926E-11  0.191E-05    5.04    1267.9  T
     SCC iter.                  ...        0 min,  0.001 sec
     gradient                   ...        0 min,  0.003 sec
 * total energy  :   -23.9626669 Eh     change       -0.1257270E-09 Eh
   gradient norm :     0.0366969 Eh/α   predicted     0.0000000E+00 (-100.00%)
   displ. norm   :     0.0856342 α      lambda       -0.1704726E-02
   maximum displ.:     0.0380334 α      in ANC's #8, #14, #9, ...

........................................................................
.............................. CYCLE    2 ..............................
........................................................................

 iter      E             dE          RMSdq      gap      omega  full diag
   1    -24.2333622 -0.242334E+02  0.102E-01    5.16       0.0  T
   2    -24.2333913 -0.290441E-04  0.580E-02    5.13       1.0  T
   3    -24.2333922 -0.953221E-06  0.263E-02    5.14       1.0  T
   4    -24.2333933 -0.107882E-05  0.498E-03    5.13       4.9  T
   5    -24.2333934 -0.969823E-07  0.177E-03    5.13      13.7  T
   6    -24.2333934 -0.370433E-08  0.443E-04    5.13      54.7  T
   7    -24.2333934 -0.189324E-09  0.181E-04    5.13     133.7  T
     SCC iter.                  ...        0 min,  0.002 sec
     gradient                   ...        0 min,  0.003 sec
 * total energy  :   -23.9637943 Eh     change       -0.1127445E-02 Eh
   gradient norm :     0.0149169 Eh/α   predicted    -0.8586123E-03 ( -23.84%)
   displ. norm   :     0.0765018 α      lambda       -0.4359708E-03
   maximum displ.:     0.0374475 α      in ANC's #8, #3, #5, ...

........................................................................
.............................. CYCLE    3 ..............................
........................................................................

 iter      E             dE          RMSdq      gap      omega  full diag
   1    -24.2371010 -0.242371E+02  0.553E-02    5.18       0.0  T
   2    -24.2371199 -0.189153E-04  0.307E-02    5.16       1.0  T
   3    -24.2371205 -0.543796E-06  0.172E-02    5.16       1.4  T
   4    -24.2371205 -0.866668E-08  0.424E-03    5.16       5.7  T
   5    -24.2371206 -0.105455E-06  0.104E-03    5.16      23.2  T
   6    -24.2371206 -0.136018E-08  0.282E-04    5.16      86.0  T
   7    -24.2371206 -0.668798E-10  0.116E-04    5.16     209.0  T
     SCC iter.                  ...        0 min,  0.001 sec
     gradient                   ...        0 min,  0.003 sec
 * total energy  :   -23.9640401 Eh     change       -0.2458304E-03 Eh
   gradient norm :     0.0045958 Eh/α   predicted    -0.2192601E-03 ( -10.81%)
   displ. norm   :     0.0391876 α      lambda       -0.4434962E-04
   maximum displ.:     0.0303829 α      in ANC's #3, #2, #4, ...

........................................................................
.............................. CYCLE    4 ..............................
........................................................................

 iter      E             dE          RMSdq      gap      omega  full diag
   1    -24.2365614 -0.242366E+02  0.199E-02    5.16       0.0  T
   2    -24.2365627 -0.131751E-05  0.116E-02    5.16       2.1  T
   3    -24.2365627 -0.362056E-07  0.514E-03    5.16       4.7  T
   4    -24.2365627 -0.652724E-08  0.729E-04    5.16      33.2  T
   5    -24.2365627 -0.255622E-08  0.431E-04    5.16      56.3  T
     SCC iter.                  ...        0 min,  0.001 sec
     gradient                   ...        0 min,  0.003 sec
 * total energy  :   -23.9640705 Eh     change       -0.3035504E-04 Eh
   gradient norm :     0.0017209 Eh/α   predicted    -0.2220848E-04 ( -26.84%)
   displ. norm   :     0.0685022 α      lambda       -0.2153351E-04
   maximum displ.:     0.0500882 α      in ANC's #3, #2, #4, ...

........................................................................
.............................. CYCLE    5 ..............................
........................................................................

 iter      E             dE          RMSdq      gap      omega  full diag
   1    -24.2354334 -0.242354E+02  0.315E-02    5.14       0.0  T
   2    -24.2354341 -0.659720E-06  0.186E-02    5.15       1.3  T
   3    -24.2354341 -0.165020E-07  0.361E-03    5.14       6.7  T
   4    -24.2354341 -0.514613E-07  0.109E-03    5.14      22.4  T
   5    -24.2354341 -0.567927E-08  0.617E-04    5.14      39.3  T
   6    -24.2354341 -0.593381E-09  0.128E-04    5.14     188.8  T
     SCC iter.                  ...        0 min,  0.001 sec
     gradient                   ...        0 min,  0.003 sec
 * total energy  :   -23.9640831 Eh     change       -0.1261884E-04 Eh
   gradient norm :     0.0023713 Eh/α   predicted    -0.1078974E-04 ( -14.50%)
   displ. norm   :     0.0137307 α      lambda       -0.6835431E-05
   maximum displ.:     0.0070488 α      in ANC's #2, #3, #7, ...

........................................................................
.............................. CYCLE    6 ..............................
........................................................................

 iter      E             dE          RMSdq      gap      omega  full diag
   1    -24.2355963 -0.242356E+02  0.724E-03    5.15       0.0  T
   2    -24.2355964 -0.104934E-06  0.415E-03    5.15       5.8  T
   3    -24.2355964 -0.321824E-08  0.140E-03    5.15      17.3  T
   4    -24.2355964 -0.713950E-09  0.194E-04    5.15     124.9  T
   5    -24.2355964 -0.883169E-10  0.119E-04    5.15     203.4  T
     SCC iter.                  ...        0 min,  0.001 sec
     gradient                   ...        0 min,  0.003 sec
 * total energy  :   -23.9640883 Eh     change       -0.5221235E-05 Eh
   gradient norm :     0.0014712 Eh/α   predicted    -0.3418680E-05 ( -34.52%)
   displ. norm   :     0.0539632 α      lambda       -0.1048670E-04
   maximum displ.:     0.0346564 α      in ANC's #2, #4, #3, ...

........................................................................
.............................. CYCLE    7 ..............................
........................................................................

 iter      E             dE          RMSdq      gap      omega  full diag
   1    -24.2362759 -0.242363E+02  0.293E-02    5.16       0.0  T
   2    -24.2362767 -0.786027E-06  0.172E-02    5.16       1.4  T
   3    -24.2362768 -0.365753E-07  0.341E-03    5.16       7.1  T
   4    -24.2362768 -0.142752E-07  0.827E-04    5.16      29.3  T
   5    -24.2362768 -0.329781E-08  0.480E-04    5.16      50.6  T
     SCC iter.                  ...        0 min,  0.001 sec
     gradient                   ...        0 min,  0.003 sec
 * total energy  :   -23.9640963 Eh     change       -0.7956343E-05 Eh
   gradient norm :     0.0014741 Eh/α   predicted    -0.5250200E-05 ( -34.01%)
   displ. norm   :     0.0366216 α      lambda       -0.3785739E-05
   maximum displ.:     0.0232356 α      in ANC's #2, #4, #3, ...

........................................................................
.............................. CYCLE    8 ..............................
........................................................................

 iter      E             dE          RMSdq      gap      omega  full diag
   1    -24.2361565 -0.242362E+02  0.191E-02    5.16       0.0  T
   2    -24.2361566 -0.816872E-07  0.111E-02    5.16       2.2  T
   3    -24.2361566 -0.154054E-07  0.986E-04    5.16      24.6  T
   4    -24.2361566 -0.226771E-08  0.447E-04    5.16      54.3  T
     SCC iter.                  ...        0 min,  0.001 sec
     gradient                   ...        0 min,  0.003 sec
 * total energy  :   -23.9641010 Eh     change       -0.4684859E-05 Eh
   gradient norm :     0.0008946 Eh/α   predicted    -0.1894349E-05 ( -59.56%)
   displ. norm   :     0.0609801 α      lambda       -0.4709365E-05
   maximum displ.:     0.0383986 α      in ANC's #2, #4, #7, ...

........................................................................
.............................. CYCLE    9 ..............................
........................................................................

 iter      E             dE          RMSdq      gap      omega  full diag
   1    -24.2359462 -0.242359E+02  0.348E-02    5.16       0.0  T
   2    -24.2359464 -0.259504E-06  0.203E-02    5.16       1.2  T
   3    -24.2359465 -0.515762E-07  0.176E-03    5.16      13.8  T
   4    -24.2359465 -0.664365E-08  0.801E-04    5.16      30.3  T
   5    -24.2359465 -0.754707E-09  0.430E-04    5.16      56.3  T
     SCC iter.                  ...        0 min,  0.001 sec
     gradient                   ...        0 min,  0.003 sec
 * total energy  :   -23.9641054 Eh     change       -0.4396047E-05 Eh
   gradient norm :     0.0004565 Eh/α   predicted    -0.2357911E-05 ( -46.36%)
   displ. norm   :     0.0281228 α      lambda       -0.1037460E-05
   maximum displ.:     0.0170184 α      in ANC's #2, #7, #1, ...

........................................................................
.............................. CYCLE   10 ..............................
........................................................................

 iter      E             dE          RMSdq      gap      omega  full diag
   1    -24.2359471 -0.242359E+02  0.163E-02    5.16       0.0  T
   2    -24.2359472 -0.352433E-07  0.951E-03    5.16       2.6  T
   3    -24.2359472 -0.112905E-07  0.700E-04    5.16      34.6  T
   4    -24.2359472 -0.148676E-08  0.391E-04    5.16      62.1  T
     SCC iter.                  ...        0 min,  0.001 sec
     gradient                   ...        0 min,  0.003 sec
 * total energy  :   -23.9641065 Eh     change       -0.1180214E-05 Eh
   gradient norm :     0.0003616 Eh/α   predicted    -0.5190708E-06 ( -56.02%)
   displ. norm   :     0.0301722 α      lambda       -0.1032002E-05
   maximum displ.:     0.0173618 α      in ANC's #2, #7, #1, ...

........................................................................
.............................. CYCLE   11 ..............................
........................................................................

 iter      E             dE          RMSdq      gap      omega  full diag
   1    -24.2360067 -0.242360E+02  0.189E-02    5.16       0.0  T
   2    -24.2360067 -0.327563E-07  0.110E-02    5.16       2.2  T
   3    -24.2360067 -0.142281E-07  0.785E-04    5.16      30.9  T
   4    -24.2360068 -0.257750E-08  0.468E-04    5.16      51.9  T
     SCC iter.                  ...        0 min,  0.001 sec
     gradient                   ...        0 min,  0.003 sec
 * total energy  :   -23.9641077 Eh     change       -0.1132955E-05 Eh
   gradient norm :     0.0002508 Eh/α   predicted    -0.5157876E-06 ( -54.47%)
   displ. norm   :     0.0242616 α      lambda       -0.7558804E-06
   maximum displ.:     0.0125600 α      in ANC's #6, #7, #2, ...

........................................................................
.............................. CYCLE   12 ..............................
........................................................................

 iter      E             dE          RMSdq      gap      omega  full diag
   1    -24.2360296 -0.242360E+02  0.144E-02    5.16       0.0  T
   2    -24.2360296 -0.156679E-07  0.846E-03    5.16       2.9  T
   3    -24.2360296 -0.820225E-08  0.576E-04    5.16      42.1  T
   4    -24.2360296 -0.126562E-08  0.354E-04    5.16      68.5  T
     SCC iter.                  ...        0 min,  0.001 sec
     gradient                   ...        0 min,  0.003 sec
 * total energy  :   -23.9641086 Eh     change       -0.9098640E-06 Eh
   gradient norm :     0.0001827 Eh/α   predicted    -0.3792161E-06 ( -58.32%)
   displ. norm   :     0.0322126 α      lambda       -0.8658330E-06
   maximum displ.:     0.0196355 α      in ANC's #6, #7, #1, ...

........................................................................
.............................. CYCLE   13 ..............................
........................................................................

 iter      E             dE          RMSdq      gap      omega  full diag
   1    -24.2360374 -0.242360E+02  0.181E-02    5.16       0.0  T
   2    -24.2360375 -0.213777E-07  0.106E-02    5.16       2.3  T
   3    -24.2360375 -0.124215E-07  0.625E-04    5.16      38.8  T
   4    -24.2360375 -0.685883E-09  0.386E-04    5.16      62.9  T
     SCC iter.                  ...        0 min,  0.001 sec
     gradient                   ...        0 min,  0.003 sec
 * total energy  :   -23.9641095 Eh     change       -0.9355710E-06 Eh
   gradient norm :     0.0001642 Eh/α   predicted    -0.4343696E-06 ( -53.57%)
   displ. norm   :     0.0174202 α      lambda       -0.4102862E-06
   maximum displ.:     0.0121182 α      in ANC's #6, #4, #7, ...

........................................................................
.............................. CYCLE   14 ..............................
........................................................................

 iter      E             dE          RMSdq      gap      omega  full diag
   1    -24.2360395 -0.242360E+02  0.728E-03    5.16       0.0  T
   2    -24.2360395 -0.332193E-08  0.430E-03    5.16       5.6  T
   3    -24.2360396 -0.165822E-08  0.260E-04    5.16      93.3  T
   4    -24.2360396 -0.197588E-09  0.157E-04    5.16     154.3  T
     SCC iter.                  ...        0 min,  0.001 sec
     gradient                   ...        0 min,  0.003 sec
 * total energy  :   -23.9641100 Eh     change       -0.4328379E-06 Eh
   gradient norm :     0.0001838 Eh/α   predicted    -0.2040031E-06 ( -52.87%)
   displ. norm   :     0.0134203 α      lambda       -0.2473509E-06
   maximum displ.:     0.0090512 α      in ANC's #6, #4, #7, ...

........................................................................
.............................. CYCLE   15 ..............................
........................................................................

 iter      E             dE          RMSdq      gap      omega  full diag
   1    -24.2359975 -0.242360E+02  0.573E-03    5.16       0.0  T
   2    -24.2359975 -0.345532E-08  0.338E-03    5.16       7.2  T
   3    -24.2359975 -0.711712E-09  0.318E-04    5.16      76.2  T
   4    -24.2359975 -0.800359E-09  0.145E-04    5.16     167.3  T
     SCC iter.                  ...        0 min,  0.001 sec
     gradient                   ...        0 min,  0.003 sec
 * total energy  :   -23.9641102 Eh     change       -0.2486866E-06 Eh
   gradient norm :     0.0000850 Eh/α   predicted    -0.1248411E-06 ( -49.80%)
   displ. norm   :     0.0120813 α      lambda       -0.2122403E-06
   maximum displ.:     0.0065442 α      in ANC's #2, #4, #1, ...

........................................................................
.............................. CYCLE   16 ..............................
........................................................................

 iter      E             dE          RMSdq      gap      omega  full diag
   1    -24.2360225 -0.242360E+02  0.334E-03    5.16       0.0  T
   2    -24.2360225 -0.547303E-09  0.200E-03    5.16      12.1  T
   3    -24.2360225 -0.120490E-09  0.112E-04    5.16     217.4  T
   4    -24.2360225 -0.712603E-10  0.529E-05    5.16     458.9  T
     SCC iter.                  ...        0 min,  0.001 sec
     gradient                   ...        0 min,  0.003 sec
 * total energy  :   -23.9641104 Eh     change       -0.2377287E-06 Eh
   gradient norm :     0.0001059 Eh/α   predicted    -0.1062948E-06 ( -55.29%)
   displ. norm   :     0.0188659 α      lambda       -0.3181673E-06
   maximum displ.:     0.0105320 α      in ANC's #7, #6, #4, ...

........................................................................
.............................. CYCLE   17 ..............................
........................................................................

 iter      E             dE          RMSdq      gap      omega  full diag
   1    -24.2359813 -0.242360E+02  0.581E-03    5.16       0.0  T
   2    -24.2359813 -0.281522E-08  0.346E-03    5.16       7.0  T
   3    -24.2359813 -0.724761E-09  0.251E-04    5.16      96.6  T
   4    -24.2359813 -0.368555E-09  0.127E-04    5.16     191.2  T
     SCC iter.                  ...        0 min,  0.001 sec
     gradient                   ...        0 min,  0.003 sec
 * total energy  :   -23.9641108 Eh     change       -0.3819771E-06 Eh
   gradient norm :     0.0001721 Eh/α   predicted    -0.1589216E-06 ( -58.39%)
   displ. norm   :     0.0394055 α      lambda       -0.6549774E-06
   maximum displ.:     0.0218909 α      in ANC's #7, #2, #3, ...

........................................................................
.............................. CYCLE   18 ..............................
........................................................................

 iter      E             dE          RMSdq      gap      omega  full diag
   1    -24.2359500 -0.242359E+02  0.109E-02    5.16       0.0  T
   2    -24.2359500 -0.758309E-08  0.651E-03    5.16       3.7  T
   3    -24.2359500 -0.257133E-08  0.317E-04    5.16      76.5  T
   4    -24.2359500 -0.107008E-09  0.170E-04    5.16     142.7  T
     SCC iter.                  ...        0 min,  0.001 sec
     gradient                   ...        0 min,  0.003 sec
 * total energy  :   -23.9641115 Eh     change       -0.6970185E-06 Eh
   gradient norm :     0.0001985 Eh/α   predicted    -0.3289294E-06 ( -52.81%)
   displ. norm   :     0.0246105 α      lambda       -0.3991093E-06
   maximum displ.:     0.0151169 α      in ANC's #7, #2, #3, ...

........................................................................
.............................. CYCLE   19 ..............................
........................................................................

 iter      E             dE          RMSdq      gap      omega  full diag
   1    -24.2359690 -0.242360E+02  0.707E-03    5.16       0.0  T
   2    -24.2359690 -0.507955E-08  0.422E-03    5.16       5.7  T
   3    -24.2359690 -0.805379E-09  0.293E-04    5.16      82.8  T
   4    -24.2359690 -0.444960E-09  0.136E-04    5.16     177.9  T
     SCC iter.                  ...        0 min,  0.001 sec
     gradient                   ...        0 min,  0.003 sec
 * total energy  :   -23.9641120 Eh     change       -0.4758728E-06 Eh
   gradient norm :     0.0001496 Eh/α   predicted    -0.2012516E-06 ( -57.71%)
   displ. norm   :     0.0218199 α      lambda       -0.3962764E-06
   maximum displ.:     0.0144766 α      in ANC's #7, #2, #6, ...

........................................................................
.............................. CYCLE   20 ..............................
........................................................................

 iter      E             dE          RMSdq      gap      omega  full diag
   1    -24.2359923 -0.242360E+02  0.772E-03    5.16       0.0  T
   2    -24.2359923 -0.573749E-08  0.457E-03    5.16       5.3  T
   3    -24.2359923 -0.129616E-08  0.338E-04    5.16      71.8  T
   4    -24.2359923 -0.597726E-09  0.172E-04    5.16     140.6  T
     SCC iter.                  ...        0 min,  0.001 sec
     gradient                   ...        0 min,  0.003 sec
 * total energy  :   -23.9641125 Eh     change       -0.4934107E-06 Eh
   gradient norm :     0.0000866 Eh/α   predicted    -0.1979648E-06 ( -59.88%)
   displ. norm   :     0.0273088 α      lambda       -0.4404243E-06
   maximum displ.:     0.0176716 α      in ANC's #7, #6, #2, ...
 * RMSD in coord.:     0.1090304 α      energy gain  -0.1445634E-02 Eh

generating ANC from exact Hessian ...
Using Lindh-Hessian (1995)
 Shifting diagonal of input Hessian by   7.674555062775899E-003
 Lowest  eigenvalues of input Hessian
    0.000000    0.000000    0.000000    0.000000    0.000000    0.000000
    0.010000    0.011265    0.014541    0.017602    0.018619    0.019418
    0.023218    0.039247    0.042610    0.050807    0.060897    0.063124
 Highest eigenvalues
    1.194700    1.231742    1.278566    1.294481    1.816024    2.336283
 

........................................................................
.............................. CYCLE   21 ..............................
........................................................................

 iter      E             dE          RMSdq      gap      omega  full diag
   1    -24.2359999 -0.242360E+02  0.110E-02    5.16       0.0  T
   2    -24.2359999 -0.963798E-08  0.648E-03    5.16       3.7  T
   3    -24.2359999 -0.300628E-08  0.414E-04    5.16      58.6  T
   4    -24.2359999 -0.680028E-09  0.231E-04    5.16     105.0  T
     SCC iter.                  ...        0 min,  0.001 sec
     gradient                   ...        0 min,  0.003 sec
 * total energy  :   -23.9641131 Eh     change       -0.5584568E-06 Eh
   gradient norm :     0.0001443 Eh/α   predicted     0.0000000E+00 (-100.00%)
   displ. norm   :     0.0055142 α      lambda       -0.2172219E-06
   maximum displ.:     0.0045063 α      in ANC's #2, #4, #6, ...

........................................................................
.............................. CYCLE   22 ..............................
........................................................................

 iter      E             dE          RMSdq      gap      omega  full diag
   1    -24.2360034 -0.242360E+02  0.184E-03    5.16       0.0  T
   2    -24.2360034 -0.502450E-09  0.108E-03    5.16      22.4  T
   3    -24.2360034 -0.720526E-10  0.956E-05    5.16     253.6  T
   4    -24.2360034 -0.494254E-10  0.438E-05    5.16     553.5  T
     SCC iter.                  ...        0 min,  0.001 sec
     gradient                   ...        0 min,  0.003 sec
 * total energy  :   -23.9641133 Eh     change       -0.2733699E-06 Eh
   gradient norm :     0.0000856 Eh/α   predicted    -0.1087128E-06 ( -60.23%)
   displ. norm   :     0.0119648 α      lambda       -0.3571208E-06
   maximum displ.:     0.0092542 α      in ANC's #2, #4, #6, ...

........................................................................
.............................. CYCLE   23 ..............................
........................................................................

 iter      E             dE          RMSdq      gap      omega  full diag
   1    -24.2360110 -0.242360E+02  0.393E-03    5.16       0.0  T
   2    -24.2360110 -0.291526E-08  0.232E-03    5.16      10.5  T
   3    -24.2360110 -0.481364E-09  0.221E-04    5.16     109.5  T
   4    -24.2360110 -0.184112E-09  0.102E-04    5.16     238.5  T
     SCC iter.                  ...        0 min,  0.001 sec
     gradient                   ...        0 min,  0.003 sec
 * total energy  :   -23.9641137 Eh     change       -0.4074755E-06 Eh
   gradient norm :     0.0000879 Eh/α   predicted    -0.1787587E-06 ( -56.13%)
   displ. norm   :     0.0116111 α      lambda       -0.2353936E-06
   maximum displ.:     0.0092415 α      in ANC's #2, #4, #6, ...

........................................................................
.............................. CYCLE   24 ..............................
........................................................................

 iter      E             dE          RMSdq      gap      omega  full diag
   1    -24.2360082 -0.242360E+02  0.370E-03    5.16       0.0  T
   2    -24.2360082 -0.196474E-08  0.219E-03    5.16      11.1  T
   3    -24.2360082 -0.512571E-09  0.181E-04    5.16     133.9  T
   4    -24.2360082 -0.122302E-09  0.950E-05    5.16     255.4  T
     SCC iter.                  ...        0 min,  0.001 sec
     gradient                   ...        0 min,  0.003 sec
 * total energy  :   -23.9641140 Eh     change       -0.2778363E-06 Eh
   gradient norm :     0.0001129 Eh/α   predicted    -0.1180492E-06 ( -57.51%)
   displ. norm   :     0.0104210 α      lambda       -0.1743967E-06
   maximum displ.:     0.0083282 α      in ANC's #2, #4, #6, ...

........................................................................
.............................. CYCLE   25 ..............................
........................................................................

 iter      E             dE          RMSdq      gap      omega  full diag
   1    -24.2360049 -0.242360E+02  0.362E-03    5.16       0.0  T
   2    -24.2360049 -0.844551E-09  0.215E-03    5.16      11.3  T
   3    -24.2360049 -0.481350E-09  0.134E-04    5.16     181.7  T
   4    -24.2360049 -0.243432E-10  0.794E-05    5.16     305.4  T
     SCC iter.                  ...        0 min,  0.001 sec
     gradient                   ...        0 min,  0.003 sec
 * total energy  :   -23.9641142 Eh     change       -0.2242934E-06 Eh
   gradient norm :     0.0000949 Eh/α   predicted    -0.8880859E-07 ( -60.41%)
   displ. norm   :     0.0126157 α      lambda       -0.1998572E-06
   maximum displ.:     0.0096110 α      in ANC's #2, #4, #1, ...

........................................................................
.............................. CYCLE   26 ..............................
........................................................................

 iter      E             dE          RMSdq      gap      omega  full diag
   1    -24.2360029 -0.242360E+02  0.438E-03    5.16       0.0  T
   2    -24.2360029 -0.157269E-08  0.260E-03    5.16       9.3  T
   3    -24.2360029 -0.636899E-09  0.169E-04    5.16     143.8  T
   4    -24.2360029 -0.761062E-10  0.989E-05    5.16     245.1  T
     SCC iter.                  ...        0 min,  0.001 sec
     gradient                   ...        0 min,  0.003 sec
 * total energy  :   -23.9641145 Eh     change       -0.2512036E-06 Eh
   gradient norm :     0.0000773 Eh/α   predicted    -0.1017876E-06 ( -59.48%)
   displ. norm   :     0.0156273 α      lambda       -0.2237754E-06
   maximum displ.:     0.0118673 α      in ANC's #2, #1, #4, ...

........................................................................
.............................. CYCLE   27 ..............................
........................................................................

 iter      E             dE          RMSdq      gap      omega  full diag
   1    -24.2359970 -0.242360E+02  0.581E-03    5.16       0.0  T
   2    -24.2359970 -0.273782E-08  0.344E-03    5.16       7.0  T
   3    -24.2359970 -0.922800E-09  0.206E-04    5.16     117.6  T
   4    -24.2359970 -0.109221E-09  0.117E-04    5.16     208.1  T
     SCC iter.                  ...        0 min,  0.001 sec
     gradient                   ...        0 min,  0.003 sec
 * total energy  :   -23.9641148 Eh     change       -0.2686214E-06 Eh
   gradient norm :     0.0000730 Eh/α   predicted    -0.1104036E-06 ( -58.90%)
   displ. norm   :     0.0140628 α      lambda       -0.1726117E-06
   maximum displ.:     0.0105536 α      in ANC's #2, #1, #7, ...

........................................................................
.............................. CYCLE   28 ..............................
........................................................................

 iter      E             dE          RMSdq      gap      omega  full diag
   1    -24.2359971 -0.242360E+02  0.506E-03    5.16       0.0  T
   2    -24.2359971 -0.144490E-08  0.300E-03    5.16       8.1  T
   3    -24.2359971 -0.716504E-09  0.163E-04    5.16     149.1  T
   4    -24.2359971 -0.316831E-10  0.936E-05    5.16     259.2  T
     SCC iter.                  ...        0 min,  0.001 sec
     gradient                   ...        0 min,  0.003 sec
 * total energy  :   -23.9641150 Eh     change       -0.2346311E-06 Eh
   gradient norm :     0.0000908 Eh/α   predicted    -0.8776235E-07 ( -62.60%)
   displ. norm   :     0.0206942 α      lambda       -0.2580241E-06
   maximum displ.:     0.0152891 α      in ANC's #2, #1, #7, ...

........................................................................
.............................. CYCLE   29 ..............................
........................................................................

 iter      E             dE          RMSdq      gap      omega  full diag
   1    -24.2359961 -0.242360E+02  0.728E-03    5.16       0.0  T
   2    -24.2359961 -0.223326E-08  0.432E-03    5.16       5.6  T
   3    -24.2359961 -0.132353E-08  0.216E-04    5.16     112.4  T
   4    -24.2359961 -0.311502E-10  0.115E-04    5.16     211.7  T
     SCC iter.                  ...        0 min,  0.001 sec
     gradient                   ...        0 min,  0.003 sec
 * total energy  :   -23.9641153 Eh     change       -0.3443930E-06 Eh
   gradient norm :     0.0001043 Eh/α   predicted    -0.1300592E-06 ( -62.24%)
   displ. norm   :     0.0297956 α      lambda       -0.3563657E-06
   maximum displ.:     0.0221099 α      in ANC's #2, #1, #7, ...

........................................................................
.............................. CYCLE   30 ..............................
........................................................................

 iter      E             dE          RMSdq      gap      omega  full diag
   1    -24.2359867 -0.242360E+02  0.996E-03    5.16       0.0  T
   2    -24.2359867 -0.381316E-08  0.592E-03    5.16       4.1  T
   3    -24.2359867 -0.228855E-08  0.287E-04    5.16      84.6  T
   4    -24.2359867 -0.453930E-10  0.145E-04    5.16     166.9  T
     SCC iter.                  ...        0 min,  0.001 sec
     gradient                   ...        0 min,  0.003 sec
 * total energy  :   -23.9641158 Eh     change       -0.4451315E-06 Eh
   gradient norm :     0.0001072 Eh/α   predicted    -0.1771688E-06 ( -60.20%)
   displ. norm   :     0.0310099 α      lambda       -0.3326927E-06
   maximum displ.:     0.0233911 α      in ANC's #2, #1, #7, ...

........................................................................
.............................. CYCLE   31 ..............................
........................................................................

 iter      E             dE          RMSdq      gap      omega  full diag
   1    -24.2359852 -0.242360E+02  0.965E-03    5.16       0.0  T
   2    -24.2359852 -0.345806E-08  0.575E-03    5.16       4.2  T
   3    -24.2359852 -0.199027E-08  0.273E-04    5.16      89.0  T
   4    -24.2359852 -0.603499E-10  0.149E-04    5.16     163.2  T
     SCC iter.                  ...        0 min,  0.001 sec
     gradient                   ...        0 min,  0.003 sec
 * total energy  :   -23.9641162 Eh     change       -0.4227345E-06 Eh
   gradient norm :     0.0001001 Eh/α   predicted    -0.1672273E-06 ( -60.44%)
   displ. norm   :     0.0324372 α      lambda       -0.3579754E-06
   maximum displ.:     0.0249987 α      in ANC's #2, #7, #1, ...

........................................................................
.............................. CYCLE   32 ..............................
........................................................................

 iter      E             dE          RMSdq      gap      omega  full diag
   1    -24.2359878 -0.242360E+02  0.925E-03    5.16       0.0  T
   2    -24.2359878 -0.295069E-08  0.554E-03    5.16       4.4  T
   3    -24.2359878 -0.159661E-08  0.246E-04    5.16      98.7  T
   4    -24.2359878 -0.650111E-10  0.138E-04    5.16     176.0  T
     SCC iter.                  ...        0 min,  0.001 sec
     gradient                   ...        0 min,  0.003 sec
 * total energy  :   -23.9641167 Eh     change       -0.4689266E-06 Eh
   gradient norm :     0.0001019 Eh/α   predicted    -0.1795094E-06 ( -61.72%)
   displ. norm   :     0.0428189 α      lambda       -0.5194406E-06
   maximum displ.:     0.0332643 α      in ANC's #2, #7, #6, ...

........................................................................
.............................. CYCLE   33 ..............................
........................................................................

 iter      E             dE          RMSdq      gap      omega  full diag
   1    -24.2359783 -0.242360E+02  0.114E-02    5.16       0.0  T
   2    -24.2359783 -0.378773E-08  0.684E-03    5.16       3.5  T
   3    -24.2359783 -0.203985E-08  0.261E-04    5.16      93.1  T
   4    -24.2359783 -0.583285E-10  0.140E-04    5.16     173.7  T
     SCC iter.                  ...        0 min,  0.001 sec
     gradient                   ...        0 min,  0.003 sec
 * total energy  :   -23.9641174 Eh     change       -0.6808878E-06 Eh
   gradient norm :     0.0001459 Eh/α   predicted    -0.2594472E-06 ( -61.90%)
   displ. norm   :     0.0913447 α      lambda       -0.1094074E-05
   maximum displ.:     0.0711243 α      in ANC's #2, #7, #6, ...

........................................................................
.............................. CYCLE   34 ..............................
........................................................................

 iter      E             dE          RMSdq      gap      omega  full diag
   1    -24.2358475 -0.242358E+02  0.237E-02    5.16       0.0  T
   2    -24.2358475 -0.185953E-07  0.143E-02    5.16       1.7  T
   3    -24.2358476 -0.821283E-08  0.497E-04    5.16      48.8  T
   4    -24.2358476 -0.201556E-09  0.279E-04    5.16      86.8  T
     SCC iter.                  ...        0 min,  0.001 sec
     gradient                   ...        0 min,  0.003 sec
 * total energy  :   -23.9641184 Eh     change       -0.1008960E-05 Eh
   gradient norm :     0.0005357 Eh/α   predicted    -0.5486851E-06 ( -45.62%)
   displ. norm   :     0.0429196 α      lambda       -0.8729248E-06
   maximum displ.:     0.0319027 α      in ANC's #2, #7, #6, ...

........................................................................
.............................. CYCLE   35 ..............................
........................................................................

 iter      E             dE          RMSdq      gap      omega  full diag
   1    -24.2359603 -0.242360E+02  0.115E-02    5.16       0.0  T
   2    -24.2359603 -0.590639E-08  0.690E-03    5.16       3.5  T
   3    -24.2359603 -0.149737E-08  0.270E-04    5.16      89.9  T
   4    -24.2359603 -0.291664E-09  0.143E-04    5.16     169.9  T
     SCC iter.                  ...        0 min,  0.001 sec
     gradient                   ...        0 min,  0.003 sec
 * total energy  :   -23.9641193 Eh     change       -0.9429324E-06 Eh
   gradient norm :     0.0003087 Eh/α   predicted    -0.4361682E-06 ( -53.74%)
   displ. norm   :     0.0677775 α      lambda       -0.7356160E-06
   maximum displ.:     0.0508787 α      in ANC's #2, #7, #6, ...

........................................................................
.............................. CYCLE   36 ..............................
........................................................................

 iter      E             dE          RMSdq      gap      omega  full diag
   1    -24.2358633 -0.242359E+02  0.178E-02    5.16       0.0  T
   2    -24.2358633 -0.136859E-07  0.107E-02    5.16       2.3  T
   3    -24.2358633 -0.391305E-08  0.348E-04    5.16      69.7  T
   4    -24.2358633 -0.994440E-10  0.178E-04    5.16     136.2  T
     SCC iter.                  ...        0 min,  0.001 sec
     gradient                   ...        0 min,  0.003 sec
 * total energy  :   -23.9641200 Eh     change       -0.7311316E-06 Eh
   gradient norm :     0.0004401 Eh/α   predicted    -0.3707311E-06 ( -49.29%)
   displ. norm   :     0.0551112 α      lambda       -0.1281046E-05
   maximum displ.:     0.0356087 α      in ANC's #2, #7, #6, ...

........................................................................
.............................. CYCLE   37 ..............................
........................................................................

 iter      E             dE          RMSdq      gap      omega  full diag
   1    -24.2360339 -0.242360E+02  0.174E-02    5.16       0.0  T
   2    -24.2360339 -0.280019E-07  0.104E-02    5.16       2.3  T
   3    -24.2360339 -0.499609E-08  0.565E-04    5.16      42.9  T
   4    -24.2360339 -0.737153E-09  0.269E-04    5.16      90.0  T
     SCC iter.                  ...        0 min,  0.001 sec
     gradient                   ...        0 min,  0.003 sec
 * total energy  :   -23.9641209 Eh     change       -0.9056910E-06 Eh
   gradient norm :     0.0003094 Eh/α   predicted    -0.6426478E-06 ( -29.04%)
   displ. norm   :     0.0987218 α      lambda       -0.8833193E-06
   maximum displ.:     0.0705518 α      in ANC's #2, #7, #6, ...

........................................................................
.............................. CYCLE   38 ..............................
........................................................................

 iter      E             dE          RMSdq      gap      omega  full diag
   1    -24.2356867 -0.242357E+02  0.269E-02    5.16       0.0  T
   2    -24.2356868 -0.500005E-07  0.162E-02    5.16       1.5  T
   3    -24.2356868 -0.106873E-07  0.684E-04    5.16      35.5  T
   4    -24.2356868 -0.456883E-09  0.354E-04    5.16      68.6  T
     SCC iter.                  ...        0 min,  0.001 sec
     gradient                   ...        0 min,  0.003 sec
 * total energy  :   -23.9641206 Eh     change        0.3550983E-06 Eh
   gradient norm :     0.0009298 Eh/α   predicted    -0.4426033E-06 (-224.64%)
   displ. norm   :     0.0648305 α      lambda       -0.1972104E-05
   maximum displ.:     0.0486180 α      in ANC's #2, #7, #6, ...

........................................................................
.............................. CYCLE   39 ..............................
........................................................................

 iter      E             dE          RMSdq      gap      omega  full diag
   1    -24.2360204 -0.242360E+02  0.176E-02    5.16       0.0  T
   2    -24.2360204 -0.325300E-07  0.105E-02    5.16       2.3  T
   3    -24.2360204 -0.432238E-08  0.547E-04    5.16      44.3  T
   4    -24.2360204 -0.571358E-09  0.240E-04    5.16     101.1  T
     SCC iter.                  ...        0 min,  0.001 sec
     gradient                   ...        0 min,  0.003 sec
 * total energy  :   -23.9641217 Eh     change       -0.1144074E-05 Eh
   gradient norm :     0.0001366 Eh/α   predicted    -0.9859353E-06 ( -13.82%)
   displ. norm   :     0.0187718 α      lambda       -0.3799539E-06
   maximum displ.:     0.0116830 α      in ANC's #7, #2, #6, ...

........................................................................
.............................. CYCLE   40 ..............................
........................................................................

 iter      E             dE          RMSdq      gap      omega  full diag
   1    -24.2360083 -0.242360E+02  0.563E-03    5.16       0.0  T
   2    -24.2360083 -0.144767E-08  0.337E-03    5.16       7.2  T
   3    -24.2360083 -0.597442E-09  0.152E-04    5.16     159.8  T
   4    -24.2360083 -0.274341E-10  0.846E-05    5.16     286.5  T
     SCC iter.                  ...        0 min,  0.001 sec
     gradient                   ...        0 min,  0.003 sec
 * total energy  :   -23.9641223 Eh     change       -0.5466948E-06 Eh
   gradient norm :     0.0001122 Eh/α   predicted    -0.1891896E-06 ( -65.39%)
   displ. norm   :     0.1524024 α      lambda       -0.3133006E-05
   maximum displ.:     0.0976125 α      in ANC's #7, #6, #2, ...

........................................................................
.............................. CYCLE   41 ..............................
........................................................................

 iter      E             dE          RMSdq      gap      omega  full diag
   1    -24.2355589 -0.242356E+02  0.469E-02    5.16       0.0  T
   2    -24.2355591 -0.145066E-06  0.280E-02    5.16       1.0  T
   3    -24.2355591 -0.480362E-07  0.142E-03    5.16      17.1  T
   4    -24.2355591 -0.261060E-08  0.824E-04    5.16      29.4  T
   5    -24.2355591 -0.224471E-09  0.254E-04    5.16      95.6  T
     SCC iter.                  ...        0 min,  0.001 sec
     gradient                   ...        0 min,  0.003 sec
 * total energy  :   -23.9641241 Eh     change       -0.1804671E-05 Eh
   gradient norm :     0.0012250 Eh/α   predicted    -0.1581523E-05 ( -12.36%)
   displ. norm   :     0.0577014 α      lambda       -0.2332504E-05
   maximum displ.:     0.0385928 α      in ANC's #2, #7, #6, ...

........................................................................
.............................. CYCLE   42 ..............................
........................................................................

 iter      E             dE          RMSdq      gap      omega  full diag
   1    -24.2359944 -0.242360E+02  0.164E-02    5.16       0.0  T
   2    -24.2359944 -0.462768E-07  0.974E-03    5.16       2.5  T
   3    -24.2359944 -0.435405E-08  0.716E-04    5.16      33.9  T
   4    -24.2359944 -0.943611E-09  0.270E-04    5.16      89.8  T
     SCC iter.                  ...        0 min,  0.001 sec
     gradient                   ...        0 min,  0.003 sec
 * total energy  :   -23.9641251 Eh     change       -0.1054804E-05 Eh
   gradient norm :     0.0000890 Eh/α   predicted    -0.1168243E-05 (  10.75%)
   displ. norm   :     0.0374322 α      lambda       -0.5217827E-06
   maximum displ.:     0.0254586 α      in ANC's #7, #6, #2, ...
 * RMSD in coord.:     0.1510119 α      energy gain  -0.1264182E-04 Eh

generating ANC from exact Hessian ...
Using Lindh-Hessian (1995)
 Shifting diagonal of input Hessian by   7.603709137555383E-003
 Lowest  eigenvalues of input Hessian
    0.000000    0.000000    0.000000    0.000000    0.000000    0.000000
    0.010000    0.011223    0.014464    0.017532    0.018569    0.019370
    0.023263    0.039232    0.042468    0.050612    0.060832    0.063073
 Highest eigenvalues
    1.194480    1.231244    1.278476    1.294579    1.815917    2.335389
 

........................................................................
.............................. CYCLE   43 ..............................
........................................................................

 iter      E             dE          RMSdq      gap      omega  full diag
   1    -24.2359401 -0.242359E+02  0.127E-02    5.16       0.0  T
   2    -24.2359401 -0.900604E-08  0.754E-03    5.16       3.2  T
   3    -24.2359401 -0.425498E-08  0.399E-04    5.16      60.8  T
   4    -24.2359401 -0.171365E-09  0.234E-04    5.16     103.7  T
     SCC iter.                  ...        0 min,  0.001 sec
     gradient                   ...        0 min,  0.003 sec
 * total energy  :   -23.9641258 Eh     change       -0.6480747E-06 Eh
   gradient norm :     0.0001380 Eh/α   predicted     0.0000000E+00 (-100.00%)
   displ. norm   :     0.0025086 α      lambda       -0.7772806E-07
   maximum displ.:     0.0016350 α      in ANC's #3, #4, #1, ...

........................................................................
.............................. CYCLE   44 ..............................
........................................................................

 iter      E             dE          RMSdq      gap      omega  full diag
   1    -24.2360021 -0.242360E+02  0.954E-04    5.16       0.0  T
   2    -24.2360021 -0.847319E-09  0.545E-04    5.16      44.5  T
   3    -24.2360021 -0.373035E-12  0.149E-04    5.16     162.8  T
     SCC iter.                  ...        0 min,  0.001 sec
     gradient                   ...        0 min,  0.003 sec
 * total energy  :   -23.9641259 Eh     change       -0.8101581E-07 Eh
   gradient norm :     0.0000413 Eh/α   predicted    -0.3866977E-07 ( -52.27%)
   displ. norm   :     0.0053918 α      lambda       -0.8778616E-07
   maximum displ.:     0.0035218 α      in ANC's #3, #4, #7, ...

   *** GEOMETRY OPTIMIZATION CONVERGED AFTER 44 ITERATIONS ***

------------------------------------------------------------------------
 total energy gain   :        -0.0014590 Eh       -0.9155 kcal/mol
 total RMSD          :         0.2026609 a0        0.1072 Å
 total power (kW/mol):        -0.0870595 (step)  -14.8691 (real)
------------------------------------------------------------------------

 ANCopt (total)                0 d,  0 h,  0 min,  0.258 sec
 optimizer setup                ...        0 min,  0.000 sec (  0.104%)
 model hessian                  ...        0 min,  0.008 sec (  3.108%)
 ANC generation                 ...        0 min,  0.001 sec (  0.297%)
 coordinate transformation      ...        0 min,  0.000 sec (  0.065%)
 single point calculation       ...        0 min,  0.236 sec ( 91.424%)
 optimization log               ...        0 min,  0.008 sec (  3.055%)
 hessian update                 ...        0 min,  0.000 sec (  0.070%)
 rational function              ...        0 min,  0.004 sec (  1.373%)

================
 final structure:
================
$coord
        4.04451334598314        1.92273843294989       -1.06219242640072      C
        2.20967158988752       -0.19863353905596       -0.43312158304594      C
        3.20465626321093       -1.93407148093693        1.63924349164201      C
       -0.10615472219204        0.98169918509838        0.41317081789667      O
       -2.28216999220708       -0.18809143499958        0.02268734243861      C
       -2.46523371217692       -2.22743070172730       -1.01871785199780      O
       -4.47254132371268        1.32799865098094        0.99398707026503      C
        3.24136029793364        3.15563679249891       -2.49387026449799      H
        4.42893436513532        3.02840109760297        0.62387625702501      H
        5.79732742770907        1.12632741215444       -1.76723298782546      H
        1.75642071879023       -1.31473331632952       -2.12212157283226      H
        3.52948534455636       -0.85676442876782        3.35759974580520      H
        4.96483453760847       -2.79322062739477        1.03219844398085      H
        1.83909976954306       -3.42120659071258        2.02732422562402      H
       -5.56368370177866        2.00582464423879       -0.61012387455770      H
       -3.79049128478200        2.91397418453601        2.09774788306631      H
       -5.68908804288052        0.11666707875153        2.11934163729645      H
$end
 
 Bond Distances (Angstroems)
 ---------------------------
C1-C2=1.5211         C1-H8=1.0864         C1-H9=1.0862         C1-H10=1.0850        C2-C1=1.5211         C2-C3=1.5242         
C2-O4=1.4465         C2-H11=1.0978        C3-C2=1.5242         C3-H12=1.0869        C3-H13=1.0851        C3-H14=1.0880        
O4-C2=1.4465         O4-C5=1.3236         C5-O4=1.3236         C5-O6=1.2156         C5-C7=1.5004         O6-C5=1.2156         
C7-C5=1.5004         C7-H15=1.0875        C7-H16=1.0843        C7-H17=1.0863        H8-C1=1.0864         H9-C1=1.0862         
H10-C1=1.0850        H11-C2=1.0978        H12-C3=1.0869        H13-C3=1.0851        H14-C3=1.0880        H15-C7=1.0875        
H16-C7=1.0843        H17-C7=1.0863        
 C  H  Rav=1.0873 sigma=0.0037  Rmin=1.0843  Rmax=1.0978    10
 C  C  Rav=1.5153 sigma=0.0105  Rmin=1.5004  Rmax=1.5242     3
 O  C  Rav=1.3286 sigma=0.0943  Rmin=1.2156  Rmax=1.4465     3
 
 selected bond angles (degree)
 --------------------
H8-C1-C2=110.25                H9-C1-C2=109.71                H9-C1-H8=108.82                H10-C1-C2=109.53               
H10-C1-H8=109.14               H10-C1-H9=109.37               C3-C2-C1=112.43                O4-C2-C1=106.85                
O4-C2-C3=109.27                H11-C2-C1=111.00               H11-C2-C3=109.70               H11-C2-O4=107.41               
H12-C3-C2=109.91               H13-C3-C2=109.63               H13-C3-H12=109.37              H14-C3-C2=110.01               
H14-C3-H12=109.06              H14-C3-H13=108.84              C5-O4-C2=119.13                O6-C5-O4=123.73                
C7-C5-O4=111.62                C7-C5-O6=124.64                H15-C7-C5=108.61               H16-C7-C5=109.95               
H16-C7-H15=109.99              H17-C7-C5=109.27               H17-C7-H15=107.93              H17-C7-H16=111.02              
 
 selected dihedral angles (degree)
 ---------------------------------
C3-C2-C1-H8=182.07            C3-C2-C1-H9=301.90            C3-C2-C1-H10= 61.96           O4-C2-C1-H8=301.95            
O4-C2-C1-H9= 61.78            O4-C2-C1-H10=181.84           H11-C2-C1-H8= 58.77           H11-C2-C1-H9=178.60           
H11-C2-C1-H10=298.66          H12-C3-C2-C1= 59.97           H12-C3-C2-O4=301.51           H12-C3-C2-H11=184.00          
H13-C3-C2-C1=299.73           H13-C3-C2-O4=181.27           H13-C3-C2-H11= 63.75          H14-C3-C2-C1=180.07           
H14-C3-C2-O4= 61.61           H14-C3-C2-H11=304.10          C5-O4-C2-C1=150.17            C5-O4-C2-C3=272.06            
C5-O4-C2-H11= 31.00           O6-C5-O4-C2=  0.03            C7-C5-O4-C2=180.71            H15-C7-C5-O4=110.74           
H15-C7-C5-O6=291.42           H16-C7-C5-O4=350.33           H16-C7-C5-O6=171.02           H17-C7-C5-O4=228.25           
H17-C7-C5-O6= 48.93           
           -------------------------------------------------
          |                Final Singlepoint                |
           -------------------------------------------------

          ...................................................
          :                      SETUP                      :
          :.................................................:
          :  # basis functions                  38          :
          :  # atomic orbitals                  38          :
          :  # shells                           24          :
          :  # electrons                        42          :
          :  max. iterations                   250          :
          :  Hamiltonian                  GFN2-xTB          :
          :  restarted?                      false          :
          :  GBSA solvation                   true          :
          :  PC potential                    false          :
          :  electronic temp.          300.0000000     K    :
          :  accuracy                    1.0000000          :
          :  -> integral cutoff          0.2500000E+02      :
          :  -> integral neglect         0.1000000E-07      :
          :  -> SCF convergence          0.1000000E-05 Eh   :
          :  -> wf. convergence          0.1000000E-03 e    :
          :  Broyden damping             0.4000000          :
          :  net charge                          0          :
          :  unpaired electrons                  0          :
          ...................................................

 iter      E             dE          RMSdq      gap      omega  full diag
   1    -24.2360021 -0.242360E+02  0.304E-05    5.16       0.0  T
   2    -24.2360021 -0.277467E-11  0.181E-05    5.16    1337.2  T
   3    -24.2360021 -0.373035E-12  0.103E-05    5.16    2358.5  T

   *** convergence criteria satisfied after 3 iterations ***

         #    Occupation            Energy/Eh            Energy/eV
      -------------------------------------------------------------
         1        2.0000           -0.7465110             -20.3136
       ...           ...                  ...                  ...
        15        2.0000           -0.4753763             -12.9356
        16        2.0000           -0.4707030             -12.8085
        17        2.0000           -0.4658607             -12.6767
        18        2.0000           -0.4624609             -12.5842
        19        2.0000           -0.4444517             -12.0941
        20        2.0000           -0.4388385             -11.9414
        21        2.0000           -0.4237468             -11.5307 (HOMO)
        22                         -0.2341656              -6.3720 (LUMO)
        23                         -0.0112930              -0.3073
        24                          0.0894613               2.4344
        25                          0.1254087               3.4125
        26                          0.1339073               3.6438
       ...                                ...                  ...
        38                          0.6139059              16.7052
      -------------------------------------------------------------
                  HL-Gap            0.1895813 Eh            5.1588 eV
             Fermi-level           -0.3289562 Eh           -8.9514 eV

 SCC (total)                   0 d,  0 h,  0 min,  0.006 sec
 SCC setup                      ...        0 min,  0.001 sec ( 13.227%)
 Dispersion                     ...        0 min,  0.000 sec (  0.689%)
 classical contributions        ...        0 min,  0.000 sec (  0.221%)
 integral evaluation            ...        0 min,  0.001 sec ( 21.399%)
 iterations                     ...        0 min,  0.001 sec ( 13.097%)
 molecular gradient             ...        0 min,  0.003 sec ( 49.680%)
 printout                       ...        0 min,  0.000 sec (  1.490%)

         :::::::::::::::::::::::::::::::::::::::::::::::::::::
         ::                     SUMMARY                     ::
         :::::::::::::::::::::::::::::::::::::::::::::::::::::
         :: total energy             -23.964125863837 Eh    ::
         :: total w/o Gsasa/hb       -23.963669022344 Eh    ::
         :: gradient norm              0.000041751403 Eh/a0 ::
         :: HOMO-LUMO gap              5.158768653490 eV    ::
         ::.................................................::
         :: SCC energy               -24.235970179425 Eh    ::
         :: -> isotropic ES            0.061875031746 Eh    ::
         :: -> anisotropic ES         -0.000774390083 Eh    ::
         :: -> anisotropic XC          0.006443990103 Eh    ::
         :: -> dispersion             -0.009365701732 Eh    ::
         :: -> Gsolv                  -0.010367178538 Eh    ::
         ::    -> Gelec               -0.009910337045 Eh    ::
         ::    -> Gsasa                0.001262417416 Eh    ::
         ::    -> Ghb                 -0.002800018608 Eh    ::
         ::    -> Gshift               0.001080759698 Eh    ::
         :: repulsion energy           0.271844315587 Eh    ::
         :: add. restraining           0.000000000000 Eh    ::
         :: total charge               0.000000000000 e     ::
         :::::::::::::::::::::::::::::::::::::::::::::::::::::

           ------------------------------------------------- 
          |                Numerical Hessian                |
           ------------------------------------------------- 
step length          :   0.00500
SCC accuracy         :   0.30000
Hessian scale factor :   1.00000
frozen atoms in %    :   0.00000    0
RMS gradient         :   0.00004
estimated CPU  time      0.01 min
estimated wall time      0.01 min

writing file <hessian>.

 projected vibrational frequencies (cm⁻¹)
eigval :       -0.00    -0.00    -0.00     0.00     0.00     0.00
eigval :        9.68    42.82   114.07   170.19   183.04   229.21
eigval :      298.05   390.12   418.56   468.91   590.84   616.31
eigval :      856.42   925.97   945.39   969.38   981.28  1002.50
eigval :     1012.52  1121.99  1153.04  1177.82  1209.15  1302.93
eigval :     1309.85  1358.07  1389.88  1402.14  1422.80  1431.39
eigval :     1463.16  1473.61  1478.04  1488.95  1689.56  2902.05
eigval :     3032.78  3034.04  3044.50  3049.03  3049.91  3054.59
eigval :     3059.79  3063.96  3074.63
           -------------------------------------------------
          |                Property Printout                |
           -------------------------------------------------

    * Orbital Energies and Occupations

         #    Occupation            Energy/Eh            Energy/eV
      -------------------------------------------------------------
         1        2.0000           -0.7465109             -20.3136
       ...           ...                  ...                  ...
         9        2.0000           -0.5638028             -15.3419
        10        2.0000           -0.5426258             -14.7656
        11        2.0000           -0.5175074             -14.0821
        12        2.0000           -0.5045407             -13.7293
        13        2.0000           -0.4932786             -13.4228
        14        2.0000           -0.4812120             -13.0944
        15        2.0000           -0.4753764             -12.9356
        16        2.0000           -0.4707029             -12.8085
        17        2.0000           -0.4658607             -12.6767
        18        2.0000           -0.4624608             -12.5842
        19        2.0000           -0.4444516             -12.0941
        20        2.0000           -0.4388385             -11.9414
        21        2.0000           -0.4237469             -11.5307 (HOMO)
        22                         -0.2341656              -6.3720 (LUMO)
        23                         -0.0112930              -0.3073
        24                          0.0894613               2.4344
        25                          0.1254087               3.4125
        26                          0.1339073               3.6438
        27                          0.1552415               4.2243
        28                          0.1608141               4.3760
        29                          0.1677334               4.5643
        30                          0.1930692               5.2537
        31                          0.1958682               5.3298
        32                          0.2182785               5.9397
       ...                                ...                  ...
        38                          0.6139059              16.7052
      -------------------------------------------------------------
                  HL-Gap            0.1895813 Eh            5.1588 eV
             Fermi-level           -0.3289562 Eh           -8.9514 eV

     #   Z          covCN         q      C6AA      α(0)
     1   6 C        3.754    -0.133    23.125     6.857
     2   6 C        3.739     0.117    18.738     6.177
     3   6 C        3.753    -0.126    22.981     6.836
     4   8 O        1.703    -0.273    18.527     5.811
     5   6 C        2.706     0.370    20.732     7.453
     6   8 O        0.856    -0.503    23.843     6.547
     7   6 C        3.754    -0.171    23.893     6.970
     8   1 H        0.925     0.060     2.198     2.318
     9   1 H        0.925     0.071     2.079     2.255
    10   1 H        0.925     0.069     2.092     2.262
    11   1 H        0.924     0.043     2.413     2.429
    12   1 H        0.925     0.065     2.145     2.290
    13   1 H        0.925     0.067     2.119     2.277
    14   1 H        0.925     0.046     2.368     2.406
    15   1 H        0.925     0.105     1.740     2.063
    16   1 H        0.925     0.095     1.835     2.118
    17   1 H        0.925     0.099     1.793     2.094

 Mol. C6AA /au·bohr⁶  :       2193.153291
 Mol. C8AA /au·bohr⁸  :      46871.617024
 Mol. α(0) /au        :         69.163459


Wiberg/Mayer (AO) data.
largest (>0.10) Wiberg bond orders for each atom

 ---------------------------------------------------------------------------
     #   Z sym  total        # sym  WBO       # sym  WBO       # sym  WBO
 ---------------------------------------------------------------------------
     1   6 C    3.988 --     2 C    1.007     8 H    0.984     9 H    0.983
                            10 H    0.981
     2   6 C    3.914 --     1 C    1.007     3 C    1.003    11 H    0.963
                             4 O    0.901
     3   6 C    3.991 --     2 C    1.003    14 H    0.986    12 H    0.984
                            13 H    0.981
     4   8 O    2.322 --     5 C    1.176     2 C    0.901     6 O    0.171
     5   6 C    3.905 --     6 O    1.679     4 O    1.176     7 C    0.997
     6   8 O    1.959 --     5 C    1.679     4 O    0.171
     7   6 C    3.982 --     5 C    0.997    16 H    0.980    17 H    0.961
                            15 H    0.949
     8   1 H    0.996 --     1 C    0.984
     9   1 H    0.995 --     1 C    0.983
    10   1 H    0.994 --     1 C    0.981
    11   1 H    0.998 --     2 C    0.963
    12   1 H    0.996 --     3 C    0.984
    13   1 H    0.995 --     3 C    0.981
    14   1 H    0.998 --     3 C    0.986
    15   1 H    0.989 --     7 C    0.949
    16   1 H    0.991 --     7 C    0.980
    17   1 H    0.990 --     7 C    0.961
 ---------------------------------------------------------------------------

Topologies differ in total number of bonds
Writing topology from bond orders to xtbtopo.mol

molecular dipole:
                 x           y           z       tot (Debye)
 q only:        0.629       1.042       0.527
   full:        0.554       1.020       0.497       3.211
molecular quadrupole (traceless):
                xx          xy          yy          xz          yz          zz
 q only:        6.829      -5.466      -4.733      -3.271      -2.069      -2.097
  q+dip:        5.484      -5.757      -5.041      -3.031      -2.337      -0.443
   full:        5.607      -5.924      -5.200      -3.173      -2.898      -0.407

           -------------------------------------------------
          |                Geometry Summary                 |
           -------------------------------------------------

      molecular mass/u    :      102.1318968
   center of mass at/Å    :        0.0100289      -0.0247114       0.0442998
  moments of inertia/u·Å² :        0.1060551E+03   0.3032127E+03   0.3441629E+03
rotational constants/cm⁻¹ :        0.1589516E+00   0.5559673E-01   0.4898154E-01

 * 15 selected distances

     #   Z          #   Z                                           value/Å
     1   6 C        2   6 C                                       1.5211056
     2   6 C        3   6 C                                       1.5242176 (max)
     2   6 C        4   8 O                                       1.4465472
     4   8 O        5   6 C                                       1.3235706
     5   6 C        6   8 O                                       1.2156046
     1   6 C        8   1 H                                       1.0863991
     1   6 C        9   1 H                                       1.0861803
     1   6 C       10   1 H                                       1.0849695
     2   6 C       11   1 H                                       1.0978147
     3   6 C       12   1 H                                       1.0869219
     3   6 C       13   1 H                                       1.0851190
     3   6 C       14   1 H                                       1.0879609
     7   6 C       15   1 H                                       1.0874833
     7   6 C       16   1 H                                       1.0843355 (min)
     7   6 C       17   1 H                                       1.0862622

 * 3 distinct bonds (by element types)

   Z      Z             #   av. dist./Å        max./Å        min./Å
   1 H    6 C          10     1.0873446     1.0978147     1.0843355
   6 C    6 C           2     1.5226616     1.5242176     1.5211056
   6 C    8 O           3     1.3285741     1.4465472     1.2156046

           -------------------------------------------------
          |               Frequency Printout                |
           -------------------------------------------------
 projected vibrational frequencies (cm⁻¹)
eigval :       -0.00    -0.00    -0.00     0.00     0.00     0.00
eigval :        9.68    42.82   114.07   170.19   183.04   229.21
eigval :      298.05   390.12   418.56   468.91   590.84   616.31
eigval :      856.42   925.97   945.39   969.38   981.28  1002.50
eigval :     1012.52  1121.99  1153.04  1177.82  1209.15  1302.93
eigval :     1309.85  1358.07  1389.88  1402.14  1422.80  1431.39
eigval :     1463.16  1473.61  1478.04  1488.95  1689.56  2902.05
eigval :     3032.78  3034.04  3044.50  3049.03  3049.91  3054.59
eigval :     3059.79  3063.96  3074.63
 reduced masses (amu)
   1: 11.31   2: 11.35   3: 11.10   4: 11.28   5: 10.65   6: 11.92   7:  1.48   8: 11.97
   9:  9.72  10:  4.76  11:  5.61  12:  4.02  13:  8.94  14: 10.64  15:  9.88  16:  8.90
  17: 10.12  18: 11.55  19:  9.98  20:  8.87  21:  2.81  22:  5.28  23: 10.54  24:  6.08
  25:  6.15  26:  7.44  27:  7.51  28:  6.94  29: 11.49  30:  4.13  31:  3.75  32:  3.41
  33:  3.46  34:  3.19  35:  1.60  36:  1.72  37:  1.56  38:  1.55  39:  1.58  40:  1.56
  41: 13.34  42:  1.74  43:  1.81  44:  1.83  45:  1.63  46:  1.87  47:  1.49  48:  1.54
  49:  1.73  50:  1.73  51:  1.88
 IR intensities (km·mol⁻¹)
   1:  1.40   2:  0.07   3:  0.14   4:  0.63   5:  2.08   6:  0.49   7:  3.44   8:  5.22
   9:  3.75  10:  4.48  11:  5.61  12:  3.05  13:  3.50  14:  3.60  15: 11.49  16:  0.64
  17: 20.81  18:  8.91  19: 11.96  20:  9.78  21:  1.76  22:  2.83  23:  6.16  24: 38.99
  25: 31.49  26:215.79  27: 21.11  28: 14.58  29:568.54  30: 10.11  31: 13.93  32: 67.01
  33: 13.76  34:  4.34  35: 14.40  36:  2.22  37:  1.90  38:  4.20  39:  1.67  40:  4.22
  41:694.28  42: 51.06  43:  0.62  44: 40.07  45: 14.01  46: 43.96  47:  1.98  48: 28.00
  49:  5.22  50: 46.92  51:  6.75
 Raman intensities (Ä⁴*amu⁻¹)
   1:  0.00   2:  0.00   3:  0.00   4:  0.00   5:  0.00   6:  0.00   7:  0.00   8:  0.00
   9:  0.00  10:  0.00  11:  0.00  12:  0.00  13:  0.00  14:  0.00  15:  0.00  16:  0.00
  17:  0.00  18:  0.00  19:  0.00  20:  0.00  21:  0.00  22:  0.00  23:  0.00  24:  0.00
  25:  0.00  26:  0.00  27:  0.00  28:  0.00  29:  0.00  30:  0.00  31:  0.00  32:  0.00
  33:  0.00  34:  0.00  35:  0.00  36:  0.00  37:  0.00  38:  0.00  39:  0.00  40:  0.00
  41:  0.00  42:  0.00  43:  0.00  44:  0.00  45:  0.00  46:  0.00  47:  0.00  48:  0.00
  49:  0.00  50:  0.00  51:  0.00
 output can be read by thermo (or use thermo option).
 writing <g98.out> molden fake output.
 recommended (thermochemical) frequency scaling factor: 1.0
           -------------------------------------------------
          |             Thermodynamic Functions             |
           -------------------------------------------------

Molecule has no symmetry elements
It seems to be the C1 point group
c1  symmetry found (for desy threshold:  0.10E+00) used in thermo

          ...................................................
          :                      SETUP                      :
          :.................................................:
          :  # frequencies                          45      :
          :  # imaginary freq.                       0      :
          :  linear?                             false      :
          :  only rotor calc.                    false      :
          :  symmetry                               c1      :
          :  rotational number                       1      :
          :  scaling factor                  1.0000000      :
          :  rotor cutoff                    0.0000000 cm⁻¹ :
          :  imag. cutoff                 -100.0000000 cm⁻¹ :
          :.................................................:

    mode    ω/cm⁻¹     T·S(HO)/kcal·mol⁻¹    T·S(FR)/kcal·mol⁻¹   T·S(vib)
   ------------------------------------------------------------------------
       1      9.68    -2.40759 (100.00%)    -1.54084 (  0.00%)    -2.40759
       2     42.82    -1.52782 (100.00%)    -1.10204 (  0.00%)    -1.52782
       3    114.07    -0.95361 (100.00%)    -0.81204 (  0.00%)    -0.95361
       4    170.19    -0.72551 (100.00%)    -0.69357 (  0.00%)    -0.72551
       5    183.04    -0.68490 (100.00%)    -0.67201 (  0.00%)    -0.68490
       6    229.21    -0.56204 (100.00%)    -0.60540 (  0.00%)    -0.56204
       7    298.05    -0.42571 (100.00%)    -0.52762 (  0.00%)    -0.42571
   ------------------------------------------------------------------------

   temp. (K)  partition function   enthalpy   heat capacity  entropy
                                   cal/mol     cal/K/mol   cal/K/mol   J/K/mol
 298.15  VIB  0.310E+04             3929.887     24.531     29.157
         ROT  0.254E+06              888.752      2.981     27.714
         INT  0.788E+09             4818.639     27.512     56.871
         TR   0.999E+27             1481.254      4.968     39.763
         TOT                        6299.8928    32.4797    96.6335   404.3147

       T/K    H(0)-H(T)+PV         H(T)/Eh          T*S/Eh         G(T)/Eh
   ------------------------------------------------------------------------
    298.15    0.100395E-01    0.152340E+00    0.459137E-01    0.106427E+00
   ------------------------------------------------------------------------

         :::::::::::::::::::::::::::::::::::::::::::::::::::::
         ::                  THERMODYNAMIC                  ::
         :::::::::::::::::::::::::::::::::::::::::::::::::::::
         :: total free energy         -23.857699078759 Eh   ::
         ::.................................................::
         :: total energy              -23.964125863882 Eh   ::
         :: zero point energy           0.142300971295 Eh   ::
         :: G(RRHO) w/o ZPVE           -0.035874186172 Eh   ::
         :: G(RRHO) contrib.            0.106426785123 Eh   ::
         :::::::::::::::::::::::::::::::::::::::::::::::::::::

optimized geometry written to: xtbopt.coord


           -------------------------------------------------
          | TOTAL ENERGY              -23.964125863882 Eh   |
          | TOTAL ENTHALPY            -23.811785374357 Eh   |
          | TOTAL FREE ENERGY         -23.857699078759 Eh   |
          | GRADIENT NORM               0.000041749094 Eh/α |
          | HOMO-LUMO GAP               5.158769939586 eV   |
           -------------------------------------------------

------------------------------------------------------------------------
 * finished run on 2025/04/05 at 00:07:43.340     
------------------------------------------------------------------------
 total:
 * wall-time:     0 d,  0 h,  0 min,  0.921 sec
 *  cpu-time:     0 d,  0 h,  0 min,  0.848 sec
 * ratio c/w:     0.920 speedup
 SCF:
 * wall-time:     0 d,  0 h,  0 min,  0.009 sec
 *  cpu-time:     0 d,  0 h,  0 min,  0.009 sec
 * ratio c/w:     0.990 speedup
 ANC optimizer:
 * wall-time:     0 d,  0 h,  0 min,  0.273 sec
 *  cpu-time:     0 d,  0 h,  0 min,  0.259 sec
 * ratio c/w:     0.947 speedup
 analytical hessian:
 * wall-time:     0 d,  0 h,  0 min,  0.581 sec
 *  cpu-time:     0 d,  0 h,  0 min,  0.572 sec
 * ratio c/w:     0.985 speedup

