 Entering Gaussian System
 *********************************************
 Gaussian 98:
 frequency output generated by the xtb code
 *********************************************
                         Standard orientation:
 --------------------------------------------------------------------
  Center     Atomic     Atomic              Coordinates (Angstroms)
  Number     Number      Type              X           Y           Z
 --------------------------------------------------------------------
    1          6             0        4.480992   -0.283098   -0.037255
    2          6             0        3.658673   -1.178022    0.626067
    3          6             0        2.291101   -0.969676    0.676816
    4          6             0        1.746669    0.139526    0.044385
    5          6             0        2.568991    1.045313   -0.615991
    6          6             0        3.933888    0.831149   -0.652777
    7          7             0        0.348133    0.396061    0.081828
    8          6             0       -0.587023   -0.629405   -0.084457
    9          8             0       -0.235654   -1.798698   -0.278202
   10          6             0       -1.941539   -0.190355   -0.029285
   11          6             0       -2.312884    1.130989    0.144946
   12          6             0       -1.208229    2.038531    0.261268
   13          7             0        0.023137    1.670455    0.224347
   14          7             0       -3.576679    1.551789    0.198567
   15         17             0       -3.146126   -1.436331   -0.222407
   16          1             0        5.545600   -0.453418   -0.071842
   17          1             0        4.079341   -2.042911    1.115008
   18          1             0        1.651493   -1.665996    1.194715
   19          1             0        2.128018    1.907605   -1.088695
   20          1             0        4.570183    1.533489   -1.167649
   21          1             0       -1.373202    3.095854    0.388877
   22          1             0       -3.784667    2.526860    0.321601
   23          1             0       -4.315766    0.874835    0.108100
 --------------------------------------------------------------------
     1 basis functions        1 primitive gaussians
     1 alpha electrons        1 beta electrons
 
 Harmonic frequencies (cm**-1), IR intensities (km*mol⁻¹),
 Raman scattering activities (A**4/amu), Raman depolarization ratios,
 reduced masses (AMU), force constants (mDyne/A) and normal coordinates:
                      1                      2                      3
                        a                      a                      a 
 Frequencies --    43.3970                49.0826                87.4285
 Red. masses --    14.3269                13.1818                16.2595
 Frc consts  --     0.0000                 0.0000                 0.0000
 IR Inten    --     0.3911                 7.3481                 3.2705
 Raman Activ --     0.0000                 0.0000                 0.0000
 Depolar     --     0.0000                 0.0000                 0.0000
 Atom AN      X      Y      Z        X      Y      Z        X      Y      Z
   1   6    -0.05  -0.09  -0.14    -0.00  -0.02   0.28    -0.10  -0.33  -0.16
   2   6    -0.00   0.12   0.21    -0.10   0.07   0.29    -0.19  -0.22  -0.13
   3   6     0.01   0.19   0.31    -0.10   0.09   0.08    -0.15   0.04   0.03
   4   6    -0.01   0.04   0.07    -0.00   0.02  -0.13    -0.02   0.16   0.12
   5   6    -0.06  -0.17  -0.27     0.08  -0.08  -0.15     0.08   0.09   0.16
   6   6    -0.08  -0.24  -0.38     0.08  -0.11   0.05     0.04  -0.15   0.02
   7   7    -0.01   0.06   0.15    -0.00   0.05  -0.26    -0.01   0.21   0.09
   8   6     0.03   0.03   0.06     0.01   0.04  -0.25     0.07   0.15  -0.03
   9   8     0.10   0.06   0.05     0.03   0.08  -0.48     0.17   0.23  -0.19
  10   6     0.02   0.00  -0.01     0.00  -0.00  -0.04     0.04   0.03   0.01
  11   6    -0.01  -0.01   0.08    -0.00  -0.02   0.10    -0.07   0.01  -0.07
  12   6    -0.04   0.00   0.20    -0.01   0.01  -0.05    -0.13   0.09  -0.04
  13   7    -0.03   0.04   0.22    -0.00   0.04  -0.21    -0.10   0.19   0.07
  14   7    -0.02  -0.04   0.05    -0.01  -0.07   0.41    -0.11  -0.09  -0.17
  15  17     0.09   0.01  -0.39     0.01  -0.05   0.17     0.32  -0.22   0.21
  16   1    -0.02  -0.04  -0.07    -0.00  -0.01   0.13    -0.04  -0.16  -0.09
  17   1     0.01   0.07   0.11    -0.05   0.04   0.13    -0.09  -0.10  -0.07
  18   1     0.01   0.10   0.16    -0.05   0.05   0.03    -0.06   0.03   0.02
  19   1    -0.03  -0.08  -0.13     0.04  -0.04  -0.09     0.05   0.06   0.08
  20   1    -0.03  -0.12  -0.19     0.05  -0.05   0.01     0.04  -0.06   0.01
  21   1    -0.02  -0.00   0.08    -0.01   0.00  -0.01    -0.06   0.02  -0.02
  22   1    -0.01  -0.02   0.03    -0.00  -0.02   0.12    -0.05  -0.03  -0.05
  23   1    -0.00  -0.01  -0.02    -0.00  -0.02   0.14    -0.01  -0.04  -0.04
                      4                      5                      6
                        a                      a                      a 
 Frequencies --   111.0317               172.3581               199.1703
 Red. masses --    16.8614                14.3485                20.0744
 Frc consts  --     0.0000                 0.0000                 0.0000
 IR Inten    --     1.4913                 0.3072                 5.3490
 Raman Activ --     0.0000                 0.0000                 0.0000
 Depolar     --     0.0000                 0.0000                 0.0000
 Atom AN      X      Y      Z        X      Y      Z        X      Y      Z
   1   6    -0.02  -0.12  -0.03    -0.01   0.01   0.23    -0.08   0.11   0.01
   2   6    -0.08  -0.09  -0.07    -0.14  -0.03   0.01     0.03   0.02   0.01
   3   6    -0.06   0.01  -0.04    -0.14  -0.02  -0.27     0.00  -0.13   0.04
   4   6    -0.00   0.06   0.00    -0.03   0.01  -0.32    -0.07  -0.14   0.10
   5   6     0.06   0.06   0.07     0.08  -0.04  -0.25    -0.19  -0.09   0.02
   6   6     0.05  -0.03   0.06     0.09  -0.04   0.05    -0.18   0.04  -0.03
   7   7     0.00   0.08  -0.06    -0.01   0.08  -0.26    -0.04  -0.09   0.17
   8   6     0.01   0.03   0.14    -0.03   0.07   0.04    -0.10   0.05   0.02
   9   8     0.00  -0.02   0.49    -0.13   0.01   0.31    -0.26   0.04  -0.16
  10   6     0.00   0.02  -0.01    -0.03   0.06   0.03    -0.08   0.11   0.05
  11   6    -0.03  -0.01   0.08    -0.04   0.05   0.10    -0.01   0.14  -0.02
  12   6    -0.05   0.05  -0.22    -0.02  -0.00   0.36     0.08   0.06  -0.16
  13   7    -0.04   0.11  -0.36    -0.01   0.04   0.14     0.06  -0.03  -0.04
  14   7    -0.05  -0.10   0.48    -0.04   0.11  -0.19     0.07   0.39   0.14
  15  17     0.13  -0.02  -0.38     0.29  -0.19  -0.02     0.48  -0.35  -0.06
  16   1    -0.01  -0.06  -0.02     0.00   0.02   0.15    -0.02   0.07   0.00
  17   1    -0.04  -0.04  -0.04    -0.07  -0.01   0.03     0.04   0.02  -0.00
  18   1    -0.03   0.01  -0.02    -0.07  -0.00  -0.11     0.02  -0.06   0.01
  19   1     0.03   0.03   0.04     0.05  -0.01  -0.10    -0.09  -0.04   0.01
  20   1     0.03  -0.01   0.03     0.06  -0.01   0.05    -0.08   0.02  -0.02
  21   1    -0.02   0.02  -0.12    -0.00  -0.01   0.20     0.05   0.03  -0.10
  22   1    -0.02  -0.02   0.08    -0.01   0.02   0.05     0.08   0.13  -0.04
  23   1    -0.01  -0.03   0.14    -0.01   0.04  -0.07    -0.02   0.15   0.04
                      7                      8                      9
                        a                      a                      a 
 Frequencies --   243.8063               265.1785               273.3562
 Red. masses --    12.5102                13.8732                 8.8833
 Frc consts  --     0.0000                 0.0000                 0.0000
 IR Inten    --     1.4998                26.5998               112.7712
 Raman Activ --     0.0000                 0.0000                 0.0000
 Depolar     --     0.0000                 0.0000                 0.0000
 Atom AN      X      Y      Z        X      Y      Z        X      Y      Z
   1   6     0.01   0.07   0.15     0.18  -0.14  -0.16     0.26  -0.01   0.05
   2   6    -0.02  -0.04  -0.03     0.14   0.07   0.05     0.21  -0.00  -0.00
   3   6    -0.03  -0.10  -0.15     0.15   0.19   0.11     0.19  -0.03  -0.08
   4   6    -0.02  -0.04  -0.07     0.11   0.11   0.00     0.10  -0.00   0.01
   5   6    -0.02  -0.09  -0.15     0.23   0.13   0.14     0.18  -0.09  -0.03
   6   6    -0.01  -0.02   0.00     0.22  -0.03   0.00     0.20  -0.09  -0.04
   7   7     0.01   0.03   0.20     0.02  -0.03  -0.13     0.02   0.02   0.08
   8   6     0.03  -0.00   0.27    -0.10  -0.00   0.05    -0.08   0.10   0.00
   9   8     0.09   0.10  -0.23    -0.24  -0.01  -0.10    -0.26   0.07  -0.01
  10   6     0.03  -0.08   0.64    -0.15  -0.06   0.29    -0.10   0.10  -0.09
  11   6    -0.00  -0.04   0.24    -0.12  -0.04   0.20    -0.19   0.08  -0.16
  12   6    -0.02   0.03  -0.09    -0.05  -0.09   0.07    -0.12   0.01  -0.03
  13   7    -0.01   0.07  -0.17    -0.06  -0.04  -0.17    -0.11  -0.00   0.15
  14   7    -0.05  -0.13  -0.14    -0.05   0.29  -0.19    -0.25  -0.10   0.29
  15  17     0.02   0.14  -0.16    -0.17  -0.25  -0.12    -0.01  -0.02   0.04
  16   1     0.01   0.05   0.10     0.04  -0.09  -0.11     0.08   0.01   0.03
  17   1    -0.01  -0.01  -0.01     0.02   0.02   0.03     0.05  -0.00   0.01
  18   1    -0.01  -0.04  -0.06     0.04   0.07   0.05     0.06  -0.03  -0.04
  19   1    -0.01  -0.04  -0.06     0.10   0.06   0.06     0.07  -0.02  -0.02
  20   1     0.00  -0.00   0.01     0.07  -0.02  -0.01     0.05  -0.03  -0.03
  21   1    -0.01   0.02  -0.14    -0.01  -0.02  -0.00    -0.02   0.00   0.01
  22   1    -0.05  -0.02  -0.22     0.06   0.06   0.18    -0.10   0.04  -0.49
  23   1     0.01  -0.06  -0.06    -0.06   0.11   0.09    -0.04  -0.01  -0.26
                     10                     11                     12
                        a                      a                      a 
 Frequencies --   280.0897               298.1908               374.7544
 Red. masses --     9.4878                17.1675                 8.9779
 Frc consts  --     0.0000                 0.0000                 0.0000
 IR Inten    --   111.7228                16.0644                 0.2957
 Raman Activ --     0.0000                 0.0000                 0.0000
 Depolar     --     0.0000                 0.0000                 0.0000
 Atom AN      X      Y      Z        X      Y      Z        X      Y      Z
   1   6     0.14   0.05   0.06    -0.13  -0.07  -0.16    -0.02   0.00   0.03
   2   6     0.16  -0.02  -0.01    -0.08   0.07   0.09     0.01   0.21   0.34
   3   6     0.13  -0.13  -0.04    -0.06   0.12   0.15    -0.08  -0.22  -0.39
   4   6     0.03  -0.09   0.08    -0.01   0.02  -0.02    -0.01   0.03  -0.01
   5   6     0.02  -0.14  -0.01    -0.03   0.16   0.14     0.04   0.24   0.33
   6   6     0.03  -0.06  -0.04    -0.06   0.06   0.01    -0.05  -0.22  -0.36
   7   7     0.01  -0.01   0.12    -0.00  -0.15  -0.23     0.00   0.02   0.04
   8   6    -0.04   0.08  -0.03    -0.01  -0.12  -0.03     0.01  -0.00   0.02
   9   8    -0.24   0.03  -0.01    -0.38  -0.26  -0.07     0.02  -0.00   0.01
  10   6     0.00   0.15  -0.09     0.11   0.08   0.13     0.01  -0.02  -0.00
  11   6    -0.12   0.09   0.03     0.05   0.06   0.08     0.04  -0.01  -0.02
  12   6    -0.08   0.06  -0.07     0.07  -0.00   0.11     0.01   0.01  -0.03
  13   7    -0.08   0.01  -0.02     0.03  -0.15  -0.11     0.02   0.02   0.03
  14   7    -0.25  -0.22  -0.23    -0.04  -0.23  -0.03     0.05  -0.01   0.00
  15  17     0.20   0.20   0.04     0.37   0.31   0.03    -0.03  -0.02  -0.01
  16   1     0.05   0.05   0.04    -0.05  -0.07  -0.11    -0.01   0.00   0.02
  17   1     0.06  -0.00  -0.01    -0.02   0.03   0.04     0.01   0.13   0.21
  18   1     0.05  -0.07  -0.03    -0.03   0.06   0.06    -0.04  -0.14  -0.24
  19   1    -0.01  -0.05  -0.01    -0.01   0.06   0.08     0.03   0.14   0.21
  20   1    -0.01  -0.01  -0.03    -0.01   0.01   0.01    -0.03  -0.14  -0.22
  21   1    -0.00   0.02  -0.05     0.06   0.00   0.06    -0.00   0.00  -0.01
  22   1    -0.16  -0.15   0.52    -0.09  -0.06  -0.20     0.01  -0.00   0.01
  23   1    -0.00  -0.18   0.29     0.05  -0.11  -0.15     0.01  -0.00   0.02
                     13                     14                     15
                        a                      a                      a 
 Frequencies --   379.2607               414.6384               465.0130
 Red. masses --    11.7932                17.0531                10.4463
 Frc consts  --     0.0000                 0.0000                 0.0000
 IR Inten    --     6.1834                 2.7344                 2.4704
 Raman Activ --     0.0000                 0.0000                 0.0000
 Depolar     --     0.0000                 0.0000                 0.0000
 Atom AN      X      Y      Z        X      Y      Z        X      Y      Z
   1   6     0.05   0.02  -0.11     0.03  -0.01   0.04     0.01   0.13   0.22
   2   6     0.17   0.02   0.05     0.00  -0.01  -0.00    -0.04  -0.09  -0.16
   3   6     0.10  -0.24   0.11     0.01   0.01  -0.06    -0.02   0.02  -0.00
   4   6    -0.06  -0.29   0.09    -0.00   0.04  -0.00     0.06   0.24   0.35
   5   6    -0.12  -0.19   0.21     0.02   0.02  -0.02     0.01   0.02  -0.02
   6   6    -0.12  -0.00   0.02     0.02  -0.04  -0.01    -0.01  -0.08  -0.16
   7   7    -0.03   0.09  -0.38    -0.05  -0.12   0.01     0.02   0.03   0.19
   8   6    -0.02   0.13  -0.08     0.11  -0.18  -0.01     0.05  -0.05  -0.02
   9   8     0.29   0.22   0.07     0.31  -0.16  -0.02    -0.17  -0.13  -0.05
  10   6    -0.05   0.05  -0.01     0.07  -0.04  -0.01     0.06  -0.01  -0.27
  11   6    -0.08   0.02   0.18    -0.25  -0.12  -0.03     0.05  -0.10   0.26
  12   6    -0.04  -0.00   0.25    -0.28  -0.20  -0.04    -0.03  -0.02   0.22
  13   7    -0.02   0.10  -0.31    -0.30  -0.20   0.00    -0.04   0.09  -0.39
  14   7    -0.11   0.02  -0.05    -0.16   0.32   0.05     0.10   0.01  -0.04
  15  17     0.02   0.02   0.02     0.29   0.37   0.06    -0.02  -0.01   0.06
  16   1     0.01   0.02  -0.07     0.01   0.00   0.02     0.01   0.05   0.10
  17   1     0.09   0.03   0.02    -0.01  -0.01   0.00    -0.03  -0.09  -0.14
  18   1     0.08  -0.11   0.04     0.00  -0.00  -0.02    -0.02  -0.04  -0.08
  19   1    -0.08  -0.06   0.09     0.02   0.01  -0.01    -0.00  -0.04  -0.09
  20   1    -0.08   0.03  -0.01     0.01  -0.02  -0.01    -0.01  -0.09  -0.14
  21   1    -0.01  -0.01   0.12    -0.06  -0.05  -0.02    -0.03  -0.01   0.02
  22   1    -0.04   0.01  -0.09     0.12   0.12   0.02     0.06   0.00   0.05
  23   1    -0.02   0.02  -0.18    -0.16   0.22   0.04     0.00   0.07  -0.33
                     16                     17                     18
                        a                      a                      a 
 Frequencies --   503.8617               534.4241               546.3357
 Red. masses --     9.2546                 4.9515                12.3011
 Frc consts  --     0.0000                 0.0000                 0.0000
 IR Inten    --     0.9718                15.7483                 9.2873
 Raman Activ --     0.0000                 0.0000                 0.0000
 Depolar     --     0.0000                 0.0000                 0.0000
 Atom AN      X      Y      Z        X      Y      Z        X      Y      Z
   1   6     0.04   0.15   0.17    -0.03  -0.04  -0.02     0.31  -0.10  -0.09
   2   6    -0.01  -0.05  -0.17     0.00  -0.01   0.04     0.10   0.16  -0.03
   3   6    -0.02  -0.05   0.10     0.01   0.02  -0.03     0.04   0.11  -0.12
   4   6     0.02   0.13   0.37     0.02  -0.01  -0.07    -0.31  -0.03  -0.08
   5   6     0.01  -0.07   0.09    -0.01   0.05  -0.04    -0.03  -0.20   0.07
   6   6    -0.01  -0.06  -0.16    -0.01   0.01   0.03     0.02  -0.12   0.16
   7   7    -0.02   0.12  -0.43     0.03  -0.05   0.20    -0.35   0.11   0.07
   8   6     0.03  -0.01  -0.13    -0.00  -0.00   0.07    -0.08  -0.19  -0.02
   9   8    -0.09  -0.09   0.04     0.02   0.02  -0.03    -0.04  -0.21  -0.04
  10   6     0.04  -0.08   0.26    -0.00   0.06  -0.32     0.04  -0.09  -0.05
  11   6     0.05  -0.03  -0.16    -0.02  -0.01   0.21     0.20  -0.04   0.03
  12   6    -0.05   0.04  -0.03     0.02  -0.05   0.21    -0.15   0.29   0.05
  13   7    -0.05   0.06   0.19     0.02  -0.01  -0.22    -0.19   0.24   0.01
  14   7     0.09   0.00  -0.02    -0.04   0.03  -0.14     0.27  -0.03  -0.01
  15  17    -0.00   0.01  -0.05    -0.01  -0.01   0.02     0.08   0.03   0.01
  16   1     0.01   0.04   0.06    -0.01  -0.00  -0.01     0.09  -0.02  -0.03
  17   1    -0.00  -0.08  -0.16    -0.00   0.01   0.04    -0.02   0.05   0.05
  18   1     0.01  -0.08  -0.05    -0.01   0.03   0.01     0.08   0.01   0.02
  19   1    -0.03  -0.08  -0.06     0.00   0.03   0.01     0.06  -0.02   0.03
  20   1    -0.03  -0.07  -0.16     0.01   0.01   0.03    -0.05   0.04   0.07
  21   1    -0.04  -0.00   0.08     0.02  -0.01   0.07    -0.10   0.08   0.00
  22   1     0.05   0.03  -0.19    -0.02   0.06  -0.48     0.10  -0.00  -0.02
  23   1     0.00  -0.03   0.41    -0.00  -0.09   0.65     0.06   0.01   0.03
                     19                     20                     21
                        a                      a                      a 
 Frequencies --   563.9454               587.9113               621.0019
 Red. masses --    12.2551                11.3137                11.2540
 Frc consts  --     0.0000                 0.0000                 0.0000
 IR Inten    --     7.8471                 0.6525                11.1003
 Raman Activ --     0.0000                 0.0000                 0.0000
 Depolar     --     0.0000                 0.0000                 0.0000
 Atom AN      X      Y      Z        X      Y      Z        X      Y      Z
   1   6     0.09   0.00   0.13    -0.04  -0.13   0.11    -0.02  -0.01  -0.01
   2   6     0.04  -0.07  -0.08     0.31  -0.34   0.16     0.01  -0.01   0.02
   3   6     0.07   0.17  -0.05     0.35   0.16  -0.12     0.01  -0.01  -0.01
   4   6    -0.07   0.15   0.05     0.04   0.12  -0.07     0.02  -0.00  -0.00
   5   6    -0.04   0.11   0.03    -0.29   0.28  -0.12    -0.00   0.00  -0.02
   6   6    -0.06  -0.15  -0.02    -0.38  -0.21   0.17    -0.00   0.01   0.01
   7   7    -0.16  -0.21  -0.04     0.02   0.05  -0.08     0.00   0.01  -0.05
   8   6    -0.12  -0.22  -0.04     0.02   0.09  -0.05     0.01   0.07  -0.43
   9   8     0.37  -0.13  -0.01    -0.10   0.06   0.02    -0.00  -0.04   0.16
  10   6    -0.06   0.22   0.06     0.00  -0.07   0.05     0.01   0.02  -0.08
  11   6    -0.01   0.39   0.06     0.02  -0.09  -0.06    -0.00  -0.08   0.66
  12   6     0.16   0.28   0.03    -0.03  -0.06  -0.00    -0.00   0.05  -0.33
  13   7     0.01  -0.23  -0.02    -0.00   0.07   0.00    -0.00  -0.02   0.31
  14   7    -0.18   0.05   0.01     0.07  -0.03   0.01    -0.00   0.02  -0.11
  15  17    -0.05  -0.16  -0.03     0.02   0.04  -0.00    -0.01  -0.01  -0.00
  16   1     0.03   0.02   0.02     0.01   0.09  -0.06    -0.00   0.00  -0.00
  17   1    -0.04  -0.07  -0.06     0.04  -0.12   0.05     0.01   0.00   0.01
  18   1     0.02   0.03  -0.05     0.05   0.07  -0.06    -0.00  -0.00  -0.00
  19   1     0.03   0.02  -0.04    -0.04   0.09  -0.06    -0.00   0.00  -0.00
  20   1    -0.02  -0.08  -0.06    -0.06  -0.10   0.05     0.00   0.00   0.01
  21   1     0.17   0.10   0.01    -0.05  -0.02   0.02    -0.00   0.03  -0.28
  22   1    -0.21  -0.02   0.01     0.05  -0.00   0.01    -0.00   0.02  -0.13
  23   1     0.06  -0.11  -0.03    -0.01   0.02   0.00    -0.00   0.01  -0.06
                     22                     23                     24
                        a                      a                      a 
 Frequencies --   640.9280               667.4322               668.0073
 Red. masses --    12.9427                11.2706                11.0106
 Frc consts  --     0.0000                 0.0000                 0.0000
 IR Inten    --    13.3604                13.1632                29.5533
 Raman Activ --     0.0000                 0.0000                 0.0000
 Depolar     --     0.0000                 0.0000                 0.0000
 Atom AN      X      Y      Z        X      Y      Z        X      Y      Z
   1   6    -0.20  -0.09  -0.18    -0.02   0.07   0.09     0.08  -0.12  -0.15
   2   6     0.07  -0.03   0.27    -0.03  -0.10  -0.13    -0.03   0.23   0.15
   3   6     0.03  -0.25  -0.10     0.01   0.02   0.11    -0.06   0.01  -0.22
   4   6     0.20   0.05   0.16     0.01  -0.14  -0.21    -0.07   0.22   0.29
   5   6    -0.00  -0.03  -0.23     0.03   0.06   0.09    -0.03  -0.12  -0.14
   6   6     0.02   0.21   0.13     0.01  -0.06  -0.17     0.03   0.07   0.25
   7   7     0.13   0.11   0.03     0.02  -0.00   0.34    -0.07  -0.11   0.16
   8   6     0.24  -0.15  -0.10     0.06   0.06  -0.61    -0.15   0.13  -0.37
   9   8    -0.02  -0.32  -0.03    -0.01  -0.10   0.16     0.04   0.16   0.14
  10   6     0.22   0.10   0.08     0.04  -0.03   0.28    -0.14  -0.06   0.17
  11   6    -0.04   0.15  -0.04    -0.01   0.04  -0.18     0.02  -0.03  -0.12
  12   6    -0.11   0.28   0.08    -0.03   0.03   0.18     0.10  -0.19   0.09
  13   7    -0.14   0.16  -0.02    -0.02   0.08  -0.17     0.10  -0.15  -0.13
  14   7    -0.10   0.09   0.02    -0.02   0.01   0.02     0.04  -0.04   0.00
  15  17    -0.14  -0.15  -0.03    -0.02  -0.02  -0.01     0.07   0.07   0.01
  16   1    -0.06  -0.03  -0.10     0.01   0.09   0.14     0.01  -0.12  -0.16
  17   1     0.08   0.02   0.07     0.02   0.04   0.05    -0.06  -0.01  -0.04
  18   1    -0.02  -0.07  -0.06     0.01   0.09   0.16    -0.02  -0.09  -0.19
  19   1    -0.05  -0.04  -0.08     0.01   0.09   0.16     0.01  -0.10  -0.19
  20   1     0.05   0.04   0.06     0.02   0.04   0.05    -0.02  -0.03  -0.03
  21   1    -0.01   0.08   0.04    -0.01   0.01   0.06     0.04  -0.05   0.03
  22   1    -0.04   0.02   0.01    -0.00   0.01  -0.02    -0.00  -0.01  -0.02
  23   1    -0.02   0.01   0.01    -0.01   0.00   0.03     0.02  -0.02   0.02
                     25                     26                     27
                        a                      a                      a 
 Frequencies --   751.3591               763.7592               807.6553
 Red. masses --    11.9040                 5.5242                13.6170
 Frc consts  --     0.0000                 0.0000                 0.0000
 IR Inten    --     4.9640                37.0390                91.3463
 Raman Activ --     0.0000                 0.0000                 0.0000
 Depolar     --     0.0000                 0.0000                 0.0000
 Atom AN      X      Y      Z        X      Y      Z        X      Y      Z
   1   6    -0.23   0.06   0.05     0.04   0.10   0.15     0.13  -0.01   0.01
   2   6     0.09  -0.21   0.15    -0.00   0.08   0.07    -0.06   0.13  -0.07
   3   6     0.09  -0.13   0.13     0.01   0.10   0.16    -0.06   0.06   0.01
   4   6     0.15  -0.07  -0.08    -0.06  -0.21  -0.34    -0.01  -0.04  -0.06
   5   6     0.15   0.14  -0.06     0.01   0.07   0.18    -0.07  -0.05   0.05
   6   6     0.19   0.21  -0.13    -0.01   0.03   0.10    -0.10  -0.10   0.08
   7   7    -0.20  -0.11   0.03     0.04   0.04   0.11     0.16  -0.09  -0.01
   8   6    -0.30   0.02  -0.02     0.10  -0.02  -0.04     0.29   0.25   0.02
   9   8     0.07   0.18   0.04    -0.01  -0.10  -0.00    -0.12   0.22   0.04
  10   6    -0.20  -0.05  -0.01     0.07  -0.00   0.00     0.36   0.20   0.03
  11   6     0.17   0.01  -0.01    -0.06  -0.01  -0.01     0.08   0.06   0.01
  12   6    -0.17   0.19   0.04     0.01   0.01   0.01    -0.16   0.07   0.00
  13   7    -0.32  -0.17  -0.03     0.09   0.17   0.02    -0.39  -0.43  -0.05
  14   7     0.30  -0.08  -0.01    -0.10   0.03   0.01     0.20  -0.03  -0.00
  15  17     0.09   0.05   0.01    -0.02  -0.01  -0.00    -0.14  -0.12  -0.02
  16   1    -0.08  -0.05  -0.08    -0.04  -0.23  -0.37     0.03  -0.03  -0.04
  17   1     0.10  -0.09  -0.07    -0.05  -0.18  -0.30    -0.06   0.01  -0.04
  18   1    -0.03  -0.06  -0.06    -0.03  -0.15  -0.23    -0.01  -0.01  -0.03
  19   1    -0.01  -0.01  -0.06    -0.02  -0.15  -0.23    -0.02  -0.02   0.01
  20   1     0.12  -0.04  -0.09    -0.06  -0.19  -0.30    -0.07  -0.01  -0.01
  21   1    -0.03   0.06  -0.01    -0.03   0.00  -0.02     0.08   0.03   0.01
  22   1     0.07  -0.03  -0.00    -0.01   0.01   0.00     0.07  -0.01  -0.00
  23   1     0.10  -0.04  -0.00    -0.05   0.03   0.01     0.06  -0.01  -0.00
                     28                     29                     30
                        a                      a                      a 
 Frequencies --   832.0604               867.8734               897.4698
 Red. masses --     3.6666                 3.3327                 3.5382
 Frc consts  --     0.0000                 0.0000                 0.0000
 IR Inten    --    14.1505                 2.7875                 0.1726
 Raman Activ --     0.0000                 0.0000                 0.0000
 Depolar     --     0.0000                 0.0000                 0.0000
 Atom AN      X      Y      Z        X      Y      Z        X      Y      Z
   1   6     0.00  -0.00  -0.00    -0.01   0.00  -0.01    -0.04  -0.15  -0.25
   2   6     0.00   0.00  -0.01    -0.02  -0.11  -0.15    -0.01  -0.02  -0.04
   3   6    -0.00   0.00  -0.00    -0.02  -0.14  -0.22     0.03   0.12   0.21
   4   6     0.00   0.00   0.01    -0.01  -0.00  -0.00    -0.01  -0.04  -0.06
   5   6    -0.00  -0.00  -0.00     0.03   0.13   0.24     0.03   0.14   0.21
   6   6    -0.01  -0.01   0.00     0.03   0.10   0.15    -0.01  -0.04  -0.06
   7   7    -0.00   0.01  -0.11     0.01  -0.00  -0.00    -0.01  -0.01   0.02
   8   6     0.01   0.00   0.01    -0.00   0.00  -0.00     0.01   0.01  -0.00
   9   8    -0.00   0.00   0.00    -0.01   0.01   0.00     0.00  -0.00   0.00
  10   6     0.01   0.01  -0.02     0.01   0.01   0.00     0.02  -0.00  -0.00
  11   6    -0.00   0.02  -0.15     0.01   0.00   0.00    -0.00  -0.00  -0.00
  12   6     0.00  -0.06   0.44    -0.01   0.00   0.00    -0.00   0.02  -0.00
  13   7     0.00  -0.00   0.04    -0.02  -0.01  -0.00     0.00   0.01   0.00
  14   7    -0.00  -0.00   0.02     0.01  -0.00  -0.00    -0.01  -0.01  -0.00
  15  17    -0.00  -0.00   0.01    -0.00  -0.00  -0.00    -0.00  -0.00  -0.00
  16   1     0.00   0.01   0.01    -0.00   0.01   0.01     0.05   0.24   0.39
  17   1    -0.00   0.00   0.01     0.05   0.20   0.32     0.02   0.09   0.13
  18   1     0.00  -0.00  -0.00     0.05   0.26   0.41    -0.04  -0.26  -0.41
  19   1    -0.00  -0.00   0.00    -0.04  -0.27  -0.44    -0.03  -0.25  -0.43
  20   1    -0.00   0.00   0.01    -0.04  -0.19  -0.32     0.03   0.11   0.19
  21   1     0.00   0.10  -0.87     0.00   0.00  -0.00    -0.00   0.00   0.01
  22   1     0.00   0.00  -0.00     0.00  -0.00  -0.00     0.01   0.00  -0.00
  23   1    -0.00  -0.00   0.03     0.00  -0.00  -0.00    -0.01   0.01   0.00
                     31                     32                     33
                        a                      a                      a 
 Frequencies --   922.7938               927.8740               946.3582
 Red. masses --     4.0697                 3.2099                 5.4826
 Frc consts  --     0.0000                 0.0000                 0.0000
 IR Inten    --     1.6473                 0.1733                30.1771
 Raman Activ --     0.0000                 0.0000                 0.0000
 Depolar     --     0.0000                 0.0000                 0.0000
 Atom AN      X      Y      Z        X      Y      Z        X      Y      Z
   1   6     0.00   0.05   0.08    -0.03  -0.15  -0.25     0.02  -0.00  -0.01
   2   6     0.03   0.12   0.20     0.04   0.15   0.24    -0.00   0.02  -0.01
   3   6    -0.02  -0.11  -0.19    -0.01  -0.04  -0.07    -0.01  -0.02   0.03
   4   6    -0.01   0.01   0.02    -0.01  -0.04  -0.06     0.02  -0.01  -0.03
   5   6     0.03   0.10   0.19     0.00   0.01   0.03    -0.01   0.02   0.00
   6   6    -0.03  -0.17  -0.29     0.01   0.07   0.11    -0.02  -0.02   0.02
   7   7    -0.00   0.00  -0.00    -0.00   0.00  -0.00     0.06   0.09   0.01
   8   6     0.00   0.00  -0.00     0.00   0.00   0.00     0.02  -0.03  -0.00
   9   8    -0.01   0.00   0.00    -0.00   0.00  -0.00     0.03  -0.09  -0.02
  10   6     0.01   0.01   0.00     0.01   0.00   0.00    -0.05   0.02   0.00
  11   6     0.00   0.00   0.00     0.00  -0.00  -0.00     0.05   0.12   0.01
  12   6    -0.00  -0.01  -0.00    -0.00   0.00   0.00    -0.17  -0.35  -0.04
  13   7    -0.00  -0.01  -0.00    -0.00  -0.00   0.00    -0.09   0.07   0.01
  14   7     0.00   0.00   0.00     0.00  -0.00  -0.00     0.21   0.33   0.04
  15  17    -0.00  -0.00  -0.00    -0.00  -0.00  -0.00     0.01   0.00   0.00
  16   1    -0.02  -0.09  -0.14     0.06   0.29   0.47     0.01   0.01   0.00
  17   1    -0.04  -0.19  -0.30    -0.06  -0.30  -0.48     0.00   0.00  -0.01
  18   1     0.03   0.17   0.27     0.02   0.13   0.21    -0.00  -0.02  -0.01
  19   1    -0.03  -0.19  -0.31     0.00   0.03   0.06    -0.01  -0.01  -0.01
  20   1     0.06   0.30   0.49    -0.04  -0.17  -0.27    -0.01  -0.00   0.00
  21   1     0.00  -0.00  -0.00     0.00   0.00  -0.00    -0.20  -0.12  -0.02
  22   1    -0.00  -0.00  -0.00     0.00   0.00   0.00    -0.50  -0.04  -0.01
  23   1     0.00  -0.00  -0.00    -0.00   0.00   0.00     0.44  -0.34  -0.05
                     34                     35                     36
                        a                      a                      a 
 Frequencies --   966.5142              1046.7966              1078.9340
 Red. masses --    11.4481                11.4056                 7.8862
 Frc consts  --     0.0000                 0.0000                 0.0000
 IR Inten    --     3.6329                25.2281                 4.5873
 Raman Activ --     0.0000                 0.0000                 0.0000
 Depolar     --     0.0000                 0.0000                 0.0000
 Atom AN      X      Y      Z        X      Y      Z        X      Y      Z
   1   6     0.37  -0.06  -0.01    -0.16   0.03   0.00    -0.42   0.08   0.01
   2   6    -0.09   0.23  -0.13    -0.10   0.11  -0.05    -0.03   0.29  -0.18
   3   6    -0.23  -0.34   0.23     0.13   0.22  -0.15     0.15   0.01  -0.02
   4   6     0.30  -0.05  -0.02     0.24  -0.03  -0.02     0.06  -0.01  -0.01
   5   6    -0.13   0.38  -0.21     0.06  -0.26   0.16     0.16  -0.08   0.03
   6   6    -0.15  -0.19   0.14    -0.12  -0.08   0.06    -0.13  -0.28   0.19
   7   7     0.15  -0.03   0.00     0.38  -0.05  -0.00     0.09   0.03   0.01
   8   6    -0.11  -0.05  -0.01     0.05   0.04   0.00    -0.16  -0.08  -0.01
   9   8     0.04  -0.03  -0.00     0.00  -0.03  -0.00     0.04  -0.03  -0.01
  10   6    -0.20  -0.10  -0.02    -0.37  -0.37  -0.05     0.01   0.21   0.03
  11   6     0.02  -0.01  -0.00     0.04  -0.07  -0.01    -0.01   0.08   0.01
  12   6    -0.04   0.15   0.02    -0.03   0.32   0.04    -0.06  -0.11  -0.01
  13   7    -0.04   0.04   0.01    -0.10  -0.04  -0.00    -0.01   0.05   0.01
  14   7     0.01  -0.02  -0.00    -0.03   0.08   0.01     0.07  -0.09  -0.01
  15  17     0.04   0.04   0.01     0.06   0.07   0.01    -0.01  -0.02  -0.00
  16   1     0.10  -0.02  -0.01    -0.05   0.01  -0.00    -0.12   0.04  -0.01
  17   1     0.02   0.07  -0.06    -0.11   0.01   0.00     0.23   0.16  -0.13
  18   1    -0.04  -0.09   0.09    -0.03   0.11  -0.07     0.21  -0.10   0.05
  19   1    -0.02   0.10  -0.08    -0.08  -0.12   0.07     0.31   0.06  -0.07
  20   1    -0.00  -0.07   0.05    -0.11   0.03   0.00     0.15  -0.21   0.11
  21   1    -0.02   0.04   0.01     0.08   0.10   0.01    -0.09  -0.04  -0.01
  22   1     0.02  -0.00  -0.00    -0.13  -0.01  -0.00     0.13  -0.00   0.00
  23   1    -0.02   0.02   0.00     0.04  -0.03  -0.00    -0.02   0.02   0.00
                     37                     38                     39
                        a                      a                      a 
 Frequencies --  1087.7859              1116.1884              1162.2817
 Red. masses --     8.8761                 4.2316                 7.9238
 Frc consts  --     0.0000                 0.0000                 0.0000
 IR Inten    --    24.6328                 0.9772                 3.1790
 Raman Activ --     0.0000                 0.0000                 0.0000
 Depolar     --     0.0000                 0.0000                 0.0000
 Atom AN      X      Y      Z        X      Y      Z        X      Y      Z
   1   6    -0.12   0.02   0.01     0.05   0.16  -0.10     0.01  -0.02   0.01
   2   6     0.06   0.05  -0.04     0.09  -0.18   0.10     0.02  -0.01   0.01
   3   6     0.00  -0.11   0.06    -0.24  -0.09   0.09     0.00  -0.02   0.02
   4   6    -0.22   0.03   0.02    -0.01   0.12  -0.08    -0.12   0.01  -0.04
   5   6     0.03   0.10  -0.07     0.18  -0.14   0.06    -0.04   0.03  -0.01
   6   6     0.05  -0.06   0.03    -0.12  -0.07   0.06     0.03   0.03  -0.02
   7   7    -0.28  -0.06  -0.01     0.03   0.13   0.03     0.13   0.59   0.06
   8   6     0.34   0.17   0.03    -0.03  -0.01   0.00    -0.13  -0.05  -0.01
   9   8    -0.10   0.09   0.01     0.01  -0.03  -0.00     0.01  -0.14  -0.02
  10   6     0.05  -0.39  -0.05    -0.03  -0.04  -0.01    -0.08  -0.09  -0.01
  11   6     0.02  -0.18  -0.02     0.00   0.02   0.00    -0.03   0.09   0.01
  12   6     0.14   0.19   0.02     0.02  -0.02  -0.00     0.00  -0.18  -0.02
  13   7     0.02  -0.10  -0.01    -0.02  -0.07  -0.01    -0.12  -0.17  -0.02
  14   7    -0.15   0.20   0.03    -0.00  -0.00  -0.00     0.04  -0.03  -0.00
  15  17     0.01   0.04   0.01     0.01   0.01   0.00     0.02   0.01   0.00
  16   1    -0.04  -0.00   0.00     0.06   0.38  -0.25     0.00   0.01  -0.01
  17   1     0.19   0.07  -0.07     0.21   0.00  -0.03    -0.04  -0.02   0.01
  18   1     0.15  -0.12   0.08    -0.35   0.16  -0.07     0.16  -0.12   0.04
  19   1     0.22   0.11  -0.08     0.43   0.09  -0.09    -0.12  -0.03   0.02
  20   1     0.17  -0.13   0.05    -0.27   0.14  -0.05     0.11  -0.06   0.02
  21   1     0.19   0.07   0.01     0.11   0.01  -0.00     0.61   0.04   0.00
  22   1    -0.26   0.00   0.00     0.01   0.00   0.00     0.07   0.00   0.00
  23   1     0.05  -0.05  -0.01    -0.00   0.00   0.00     0.02  -0.02  -0.00
                     40                     41                     42
                        a                      a                      a 
 Frequencies --  1175.8891              1190.6397              1240.6260
 Red. masses --     1.5130                 1.8904                11.1681
 Frc consts  --     0.0000                 0.0000                 0.0000
 IR Inten    --     0.1037                 0.1757                 0.5431
 Raman Activ --     0.0000                 0.0000                 0.0000
 Depolar     --     0.0000                 0.0000                 0.0000
 Atom AN      X      Y      Z        X      Y      Z        X      Y      Z
   1   6     0.01   0.07  -0.05     0.02  -0.01   0.00     0.05  -0.00  -0.01
   2   6    -0.01   0.00  -0.00     0.10   0.05  -0.05     0.05  -0.08   0.04
   3   6    -0.10   0.03  -0.01    -0.08   0.06  -0.03    -0.08   0.01   0.01
   4   6     0.01  -0.04   0.03     0.06   0.04  -0.03    -0.30   0.04   0.01
   5   6     0.07  -0.02   0.01    -0.07  -0.05   0.05    -0.10   0.01   0.00
   6   6     0.04  -0.06   0.03     0.05  -0.10   0.06     0.07   0.06  -0.05
   7   7    -0.04  -0.07  -0.00    -0.11   0.04   0.01     0.16  -0.10  -0.01
   8   6     0.01   0.00   0.00    -0.01   0.00   0.00     0.45   0.19   0.03
   9   8    -0.01   0.03   0.00    -0.00   0.00   0.00     0.05  -0.21  -0.03
  10   6     0.03   0.01   0.00     0.05  -0.01  -0.00    -0.57   0.14   0.02
  11   6     0.01  -0.02  -0.00    -0.01  -0.01  -0.00     0.05   0.22   0.03
  12   6     0.01   0.02   0.00     0.02  -0.03  -0.00    -0.01  -0.07  -0.01
  13   7     0.02   0.01   0.00     0.01  -0.00  -0.00    -0.06   0.01   0.00
  14   7    -0.01   0.01   0.00    -0.01   0.01   0.00     0.08  -0.15  -0.02
  15  17    -0.00  -0.00  -0.00    -0.00  -0.00  -0.00     0.01   0.01   0.00
  16   1     0.08   0.59  -0.38    -0.01  -0.10   0.06     0.02  -0.01   0.00
  17   1    -0.29  -0.09   0.09     0.54   0.17  -0.17     0.13   0.01  -0.03
  18   1     0.01  -0.02   0.01    -0.42   0.28  -0.14     0.02  -0.03   0.02
  19   1    -0.23  -0.09   0.08    -0.40  -0.15   0.13     0.05   0.03  -0.03
  20   1     0.42  -0.30   0.13     0.22  -0.17   0.08     0.15  -0.07   0.02
  21   1    -0.08  -0.01   0.00     0.06   0.00   0.00    -0.13  -0.04  -0.00
  22   1    -0.02  -0.00  -0.00    -0.01   0.00   0.00     0.19  -0.01  -0.00
  23   1    -0.00   0.00   0.00     0.00  -0.00  -0.00    -0.02   0.01   0.00
                     43                     44                     45
                        a                      a                      a 
 Frequencies --  1262.0522              1274.2452              1287.0136
 Red. masses --     7.5419                 6.0645                 9.7999
 Frc consts  --     0.0000                 0.0000                 0.0000
 IR Inten    --    16.6674                60.5542               285.8071
 Raman Activ --     0.0000                 0.0000                 0.0000
 Depolar     --     0.0000                 0.0000                 0.0000
 Atom AN      X      Y      Z        X      Y      Z        X      Y      Z
   1   6     0.02  -0.07   0.04    -0.07  -0.10   0.07     0.03  -0.12   0.07
   2   6     0.03  -0.08   0.05    -0.12   0.00   0.01     0.01  -0.09   0.05
   3   6    -0.13   0.04  -0.00    -0.05   0.01  -0.01    -0.18   0.09  -0.03
   4   6    -0.23   0.12  -0.06     0.25   0.18  -0.14    -0.28   0.09   0.00
   5   6     0.01   0.01  -0.01     0.21   0.02  -0.03     0.05   0.04  -0.03
   6   6     0.04   0.02  -0.02     0.04  -0.15   0.09     0.05   0.04  -0.04
   7   7     0.30   0.25   0.03    -0.35  -0.00   0.02     0.38  -0.39  -0.04
   8   6    -0.19  -0.08  -0.02     0.21   0.07   0.02    -0.17  -0.09  -0.02
   9   8    -0.02   0.04   0.01    -0.01  -0.05  -0.01     0.01   0.11   0.02
  10   6     0.10  -0.14  -0.02    -0.12   0.06   0.01     0.10   0.05   0.01
  11   6     0.17   0.05   0.01     0.02   0.04   0.00    -0.21  -0.17  -0.02
  12   6     0.09   0.14   0.02     0.05  -0.09  -0.01    -0.13   0.08   0.01
  13   7     0.06  -0.35  -0.04    -0.00   0.01   0.00    -0.01   0.29   0.04
  14   7    -0.13   0.03   0.00     0.00  -0.03  -0.00     0.10   0.04   0.01
  15  17     0.01   0.01   0.00    -0.00  -0.00  -0.00    -0.00   0.00   0.00
  16   1     0.02   0.04  -0.03     0.01   0.19  -0.12     0.03   0.11  -0.07
  17   1     0.22   0.04  -0.05     0.17   0.06  -0.06     0.26   0.05  -0.07
  18   1     0.19  -0.15   0.06     0.30  -0.20   0.10     0.19  -0.14   0.07
  19   1    -0.12  -0.04   0.03    -0.35  -0.14   0.12    -0.09  -0.02   0.03
  20   1    -0.02   0.03  -0.02    -0.36   0.21  -0.08    -0.04   0.05  -0.03
  21   1    -0.52  -0.05  -0.01     0.03  -0.02  -0.00     0.27   0.07   0.01
  22   1    -0.14  -0.01  -0.00     0.05   0.00   0.00     0.04   0.01   0.00
  23   1    -0.14   0.12   0.02    -0.00  -0.00   0.00     0.14  -0.11  -0.02
                     46                     47                     48
                        a                      a                      a 
 Frequencies --  1322.2112              1369.7596              1422.2069
 Red. masses --    11.9865                 4.2544                10.6215
 Frc consts  --     0.0000                 0.0000                 0.0000
 IR Inten    --     7.5401                50.5231               108.2758
 Raman Activ --     0.0000                 0.0000                 0.0000
 Depolar     --     0.0000                 0.0000                 0.0000
 Atom AN      X      Y      Z        X      Y      Z        X      Y      Z
   1   6    -0.06  -0.33   0.21    -0.00   0.01  -0.01     0.02   0.09  -0.06
   2   6     0.37   0.14  -0.13     0.02   0.00  -0.00     0.11  -0.04   0.01
   3   6    -0.30   0.21  -0.09    -0.00  -0.01   0.01    -0.10  -0.02   0.02
   4   6     0.01  -0.37   0.21     0.02   0.01  -0.01     0.04   0.10  -0.07
   5   6     0.38   0.11  -0.11     0.00  -0.01   0.01     0.06  -0.06   0.03
   6   6    -0.33   0.21  -0.08    -0.02  -0.00   0.00    -0.12   0.01   0.01
   7   7    -0.07   0.05   0.01    -0.04   0.15   0.02    -0.03   0.12   0.02
   8   6     0.04   0.03   0.01    -0.01   0.03   0.01     0.02   0.03   0.01
   9   8     0.00  -0.03  -0.00     0.01  -0.05  -0.01     0.05  -0.11  -0.02
  10   6    -0.02  -0.01   0.00     0.01  -0.03  -0.00    -0.14   0.37   0.05
  11   6     0.02   0.03   0.00    -0.34  -0.11  -0.01    -0.38  -0.46  -0.06
  12   6    -0.01  -0.02  -0.00     0.13   0.18   0.02     0.26   0.17   0.02
  13   7     0.00  -0.03  -0.00     0.10  -0.19  -0.02    -0.03  -0.10  -0.01
  14   7    -0.01  -0.01  -0.00    -0.11   0.09   0.01     0.33  -0.03  -0.00
  15  17    -0.00  -0.00  -0.00     0.01   0.01   0.00     0.00   0.01   0.00
  16   1    -0.01  -0.00   0.00    -0.00  -0.02   0.01    -0.01  -0.10   0.06
  17   1    -0.02   0.00   0.01    -0.02  -0.01   0.01    -0.04  -0.04   0.03
  18   1    -0.03   0.02  -0.01    -0.00  -0.00   0.00     0.03  -0.05   0.03
  19   1     0.01  -0.01  -0.01    -0.00  -0.00   0.00    -0.02  -0.03   0.02
  20   1    -0.03   0.01  -0.01     0.01  -0.01   0.00     0.05  -0.05   0.03
  21   1    -0.01  -0.01   0.00    -0.21   0.01   0.00    -0.05   0.03   0.00
  22   1     0.01  -0.00  -0.00     0.52   0.13   0.02    -0.30  -0.09  -0.01
  23   1    -0.01   0.01   0.00     0.42  -0.46  -0.06    -0.07   0.14   0.02
                     49                     50                     51
                        a                      a                      a 
 Frequencies --  1435.4710              1461.1112              1527.6651
 Red. masses --     9.3816                 9.0158                12.4023
 Frc consts  --     0.0000                 0.0000                 0.0000
 IR Inten    --    25.4664                43.5865               661.1848
 Raman Activ --     0.0000                 0.0000                 0.0000
 Depolar     --     0.0000                 0.0000                 0.0000
 Atom AN      X      Y      Z        X      Y      Z        X      Y      Z
   1   6     0.05   0.30  -0.19    -0.24   0.08  -0.02    -0.01  -0.06   0.04
   2   6     0.29  -0.13   0.04     0.26   0.17  -0.14     0.01   0.03  -0.02
   3   6    -0.28  -0.06   0.07     0.16  -0.26   0.14     0.03  -0.03   0.01
   4   6     0.06   0.33  -0.19    -0.42   0.07   0.01    -0.02  -0.01  -0.01
   5   6     0.22  -0.15   0.07     0.24   0.19  -0.15    -0.02  -0.00   0.01
   6   6    -0.32  -0.01   0.05     0.18  -0.26   0.14     0.00   0.03  -0.02
   7   7    -0.01  -0.13   0.01     0.12  -0.03  -0.00     0.07   0.04   0.00
   8   6     0.01  -0.06  -0.01     0.00   0.01   0.00     0.07  -0.30  -0.05
   9   8    -0.02   0.09   0.01     0.01  -0.01  -0.00    -0.04   0.17   0.03
  10   6     0.03  -0.09  -0.01    -0.01  -0.00  -0.00    -0.14   0.28   0.04
  11   6     0.14   0.13   0.02    -0.03  -0.00   0.00     0.42  -0.34  -0.04
  12   6    -0.06  -0.07  -0.01     0.01   0.02   0.00     0.37  -0.09  -0.01
  13   7    -0.01   0.08   0.01     0.00  -0.01   0.00    -0.40   0.12   0.01
  14   7    -0.11   0.01   0.00     0.03  -0.01  -0.00    -0.33   0.11   0.01
  15  17    -0.00  -0.00  -0.00     0.00   0.00   0.00     0.00  -0.00  -0.00
  16   1    -0.04  -0.28   0.18    -0.08  -0.01   0.02     0.00   0.02  -0.01
  17   1    -0.13  -0.10   0.08    -0.25  -0.05   0.06    -0.01   0.01  -0.00
  18   1     0.09  -0.14   0.07    -0.24   0.12  -0.04    -0.03   0.02  -0.01
  19   1    -0.08  -0.10   0.07    -0.25  -0.05   0.05     0.01   0.00  -0.01
  20   1     0.11  -0.14   0.08    -0.22   0.11  -0.04     0.00   0.01  -0.01
  21   1     0.03  -0.01  -0.00    -0.02   0.00  -0.00     0.02  -0.04  -0.01
  22   1     0.09   0.03   0.00    -0.01  -0.00  -0.00     0.07   0.05   0.01
  23   1     0.02  -0.04  -0.00    -0.00   0.01   0.00     0.06  -0.12  -0.01
                     52                     53                     54
                        a                      a                      a 
 Frequencies --  1588.3983              1589.5867              1609.4985
 Red. masses --    11.6031                11.5038                12.8873
 Frc consts  --     0.0000                 0.0000                 0.0000
 IR Inten    --    14.9722                37.7470              1132.9047
 Raman Activ --     0.0000                 0.0000                 0.0000
 Depolar     --     0.0000                 0.0000                 0.0000
 Atom AN      X      Y      Z        X      Y      Z        X      Y      Z
   1   6     0.11   0.43  -0.28     0.20  -0.11   0.04    -0.01  -0.00   0.00
   2   6    -0.25  -0.23   0.18    -0.42  -0.01   0.06     0.02   0.00  -0.00
   3   6    -0.03   0.23  -0.14     0.42  -0.21   0.08    -0.03   0.00  -0.00
   4   6    -0.08  -0.41   0.25    -0.20   0.11  -0.04     0.02   0.02  -0.01
   5   6     0.25   0.21  -0.16     0.41  -0.01  -0.05    -0.01  -0.01   0.01
   6   6    -0.01  -0.22   0.13    -0.44   0.23  -0.08     0.01  -0.00  -0.00
   7   7     0.01   0.04  -0.01    -0.00  -0.01   0.00     0.04  -0.13  -0.01
   8   6    -0.02   0.06   0.01     0.03  -0.02  -0.00    -0.28   0.50   0.08
   9   8     0.02  -0.05  -0.01    -0.01   0.02   0.00     0.11  -0.34  -0.06
  10   6    -0.01   0.06   0.01     0.00  -0.04  -0.01     0.19  -0.17  -0.02
  11   6     0.09  -0.08  -0.01    -0.07   0.05   0.01    -0.05   0.11   0.01
  12   6    -0.01   0.00   0.00     0.06  -0.01  -0.00     0.46  -0.10  -0.01
  13   7    -0.02  -0.01  -0.00    -0.03   0.01   0.00    -0.41   0.18   0.02
  14   7    -0.06   0.02   0.00     0.04  -0.02  -0.00    -0.02  -0.01  -0.00
  15  17    -0.00  -0.00  -0.00     0.00   0.00   0.00    -0.01   0.00   0.00
  16   1    -0.00  -0.10   0.06     0.06   0.01  -0.01    -0.00   0.00   0.00
  17   1     0.09  -0.01  -0.01     0.07   0.05  -0.04    -0.00  -0.00   0.00
  18   1     0.07   0.00  -0.01    -0.07   0.07  -0.04     0.02  -0.01   0.01
  19   1    -0.08   0.00   0.00    -0.06  -0.06   0.04     0.00  -0.00   0.00
  20   1    -0.06  -0.02   0.02     0.08  -0.07   0.04     0.00   0.00  -0.00
  21   1     0.01   0.00   0.00    -0.02  -0.01  -0.00    -0.06  -0.05  -0.01
  22   1     0.00   0.01   0.00    -0.00  -0.01  -0.00     0.01   0.01   0.00
  23   1     0.01  -0.02  -0.00    -0.01   0.01   0.00    -0.02   0.00   0.00
                     55                     56                     57
                        a                      a                      a 
 Frequencies --  1616.4210              3088.6031              3094.1079
 Red. masses --    12.6106                 1.7618                 1.8071
 Frc consts  --     0.0000                 0.0000                 0.0000
 IR Inten    --   223.0546                 6.5371                35.2391
 Raman Activ --     0.0000                 0.0000                 0.0000
 Depolar     --     0.0000                 0.0000                 0.0000
 Atom AN      X      Y      Z        X      Y      Z        X      Y      Z
   1   6    -0.01   0.07  -0.04    -0.16   0.02   0.01     0.10  -0.02  -0.00
   2   6     0.01  -0.03   0.02     0.07  -0.16   0.09     0.06  -0.11   0.06
   3   6    -0.05   0.06  -0.03     0.02   0.02  -0.02     0.03   0.03  -0.03
   4   6     0.03  -0.10   0.05     0.00   0.00  -0.00     0.00   0.00  -0.00
   5   6    -0.02   0.04  -0.02     0.00  -0.00   0.00    -0.02   0.04  -0.02
   6   6     0.06  -0.05   0.03     0.03   0.04  -0.03    -0.12  -0.13   0.09
   7   7    -0.00   0.02  -0.00     0.00  -0.00   0.00    -0.00  -0.00   0.00
   8   6     0.18  -0.43  -0.07    -0.00  -0.00  -0.00    -0.00   0.00   0.00
   9   8    -0.11   0.33   0.05     0.00   0.00   0.00     0.00  -0.00   0.00
  10   6     0.01  -0.25  -0.03    -0.00  -0.00  -0.00     0.00  -0.00  -0.00
  11   6    -0.39   0.34   0.05    -0.00   0.00  -0.00    -0.00   0.00  -0.00
  12   6     0.36  -0.07  -0.01     0.00   0.00   0.00    -0.00   0.00   0.00
  13   7    -0.25   0.10   0.01    -0.00   0.00   0.00     0.00  -0.00   0.00
  14   7     0.22  -0.10  -0.01     0.00  -0.00   0.00     0.00  -0.00   0.00
  15  17     0.01   0.02   0.00     0.00  -0.00   0.00    -0.00  -0.00  -0.00
  16   1    -0.01  -0.01   0.01     0.58  -0.09  -0.02    -0.35   0.06   0.01
  17   1     0.00  -0.01   0.00    -0.27   0.57  -0.32    -0.19   0.39  -0.22
  18   1     0.01  -0.00  -0.00    -0.10  -0.10   0.08    -0.12  -0.13   0.10
  19   1     0.00   0.01  -0.01    -0.01   0.02  -0.01     0.07  -0.15   0.08
  20   1    -0.02   0.01  -0.00    -0.14  -0.16   0.11     0.41   0.46  -0.33
  21   1    -0.09  -0.04  -0.01     0.00  -0.00  -0.00     0.00  -0.00  -0.00
  22   1    -0.00  -0.03  -0.00     0.00  -0.00  -0.00     0.00  -0.00   0.00
  23   1    -0.02   0.06   0.01     0.00   0.00   0.00     0.00   0.00   0.00
                     58                     59                     60
                        a                      a                      a 
 Frequencies --  3103.3721              3110.1094              3111.5403
 Red. masses --     1.8661                 1.8253                 1.8704
 Frc consts  --     0.0000                 0.0000                 0.0000
 IR Inten    --   102.9402                 0.5313                72.3592
 Raman Activ --     0.0000                 0.0000                 0.0000
 Depolar     --     0.0000                 0.0000                 0.0000
 Atom AN      X      Y      Z        X      Y      Z        X      Y      Z
   1   6     0.18  -0.03  -0.01    -0.00   0.00   0.00     0.05  -0.00  -0.00
   2   6     0.03  -0.06   0.04    -0.00   0.00  -0.00     0.04  -0.08   0.04
   3   6     0.05   0.06  -0.04     0.00   0.00  -0.00    -0.14  -0.16   0.12
   4   6     0.01  -0.00   0.00     0.00  -0.00  -0.00    -0.01   0.00  -0.00
   5   6     0.03  -0.07   0.04     0.00  -0.01   0.00     0.04  -0.07   0.04
   6   6     0.09   0.10  -0.07    -0.00  -0.00   0.00    -0.01  -0.00   0.00
   7   7     0.00  -0.00   0.00    -0.00   0.00   0.00     0.00  -0.00  -0.00
   8   6    -0.00  -0.00  -0.00    -0.00  -0.00  -0.00     0.00  -0.00   0.00
   9   8     0.00   0.00   0.00    -0.00   0.00   0.00    -0.00   0.00  -0.00
  10   6     0.00  -0.00  -0.00    -0.00   0.00   0.00    -0.00  -0.00   0.00
  11   6    -0.00   0.00   0.00     0.01  -0.01  -0.00    -0.00   0.00   0.00
  12   6     0.00  -0.00  -0.00     0.04  -0.27  -0.03     0.00  -0.00  -0.00
  13   7    -0.00   0.00  -0.00    -0.00  -0.01  -0.00    -0.00   0.00  -0.00
  14   7     0.00   0.00   0.00    -0.00   0.00   0.00     0.00   0.00  -0.00
  15  17    -0.00  -0.00  -0.00     0.00  -0.00  -0.00     0.00   0.00   0.00
  16   1    -0.62   0.10   0.02     0.01  -0.00  -0.00    -0.15   0.02   0.01
  17   1    -0.10   0.22  -0.12     0.00  -0.01   0.00    -0.12   0.25  -0.14
  18   1    -0.18  -0.20   0.15    -0.01  -0.01   0.01     0.50   0.54  -0.40
  19   1    -0.12   0.24  -0.13    -0.02   0.03  -0.02    -0.13   0.25  -0.14
  20   1    -0.30  -0.34   0.25     0.01   0.02  -0.01     0.02   0.02  -0.01
  21   1    -0.00   0.01   0.00    -0.15   0.94   0.11    -0.00   0.01   0.00
  22   1    -0.00  -0.00  -0.00    -0.00  -0.00  -0.00     0.00  -0.00  -0.00
  23   1    -0.00   0.00  -0.00    -0.00  -0.00  -0.00     0.00   0.00   0.00
                     61                     62                     63
                        a                      a                      a 
 Frequencies --  3115.7635              3461.2851              3534.6413
 Red. masses --     1.8828                 1.4342                 2.2064
 Frc consts  --     0.0000                 0.0000                 0.0000
 IR Inten    --     9.9103               240.5100               123.7678
 Raman Activ --     0.0000                 0.0000                 0.0000
 Depolar     --     0.0000                 0.0000                 0.0000
 Atom AN      X      Y      Z        X      Y      Z        X      Y      Z
   1   6     0.06  -0.01  -0.00    -0.00   0.00   0.00     0.00  -0.00   0.00
   2   6     0.02  -0.03   0.02    -0.00   0.00  -0.00     0.00  -0.00   0.00
   3   6    -0.04  -0.05   0.03     0.00   0.00  -0.00    -0.00  -0.00   0.00
   4   6    -0.01   0.00   0.00    -0.00   0.00  -0.00     0.00  -0.00  -0.00
   5   6    -0.10   0.19  -0.11     0.00  -0.00   0.00    -0.00  -0.00   0.00
   6   6     0.06   0.07  -0.05    -0.00  -0.00   0.00     0.00   0.00  -0.00
   7   7     0.00   0.00   0.00     0.00  -0.00   0.00    -0.00   0.00   0.00
   8   6     0.00  -0.00  -0.00    -0.00   0.00   0.00     0.00  -0.00  -0.00
   9   8    -0.00   0.00  -0.00     0.00  -0.00  -0.00    -0.00   0.00   0.00
  10   6    -0.00  -0.00   0.00     0.01  -0.01  -0.00    -0.00   0.00   0.00
  11   6    -0.00  -0.00  -0.00    -0.01   0.00   0.00    -0.00  -0.01  -0.00
  12   6     0.00  -0.01  -0.00     0.00   0.00   0.00     0.00   0.00   0.00
  13   7    -0.00  -0.00   0.00    -0.00   0.00   0.00     0.00  -0.00  -0.00
  14   7     0.00   0.00   0.00    -0.18   0.01   0.00    -0.07  -0.29  -0.04
  15  17     0.00   0.00  -0.00    -0.00  -0.00  -0.00     0.00   0.00   0.00
  16   1    -0.18   0.03   0.01     0.00  -0.00   0.00    -0.00   0.00  -0.00
  17   1    -0.05   0.10  -0.06     0.00  -0.00   0.00    -0.00   0.00  -0.00
  18   1     0.14   0.15  -0.11    -0.00  -0.00   0.00     0.00   0.00  -0.00
  19   1     0.34  -0.67   0.37    -0.00   0.00  -0.00     0.00   0.00  -0.00
  20   1    -0.19  -0.22   0.16     0.00   0.00  -0.00    -0.00  -0.00   0.00
  21   1    -0.01   0.05   0.01     0.00  -0.00  -0.00     0.00   0.00   0.00
  22   1    -0.00  -0.00  -0.00     0.11  -0.57  -0.07    -0.17   0.75   0.09
  23   1     0.00   0.00   0.00     0.58   0.53   0.07     0.42   0.36   0.05
