      -----------------------------------------------------------      
     |                   =====================                   |     
     |                           x T B                           |     
     |                   =====================                   |     
     |                         S. Grimme                         |     
     |          Mulliken Center for Theoretical Chemistry        |     
     |                    University of Bonn                     |     
      -----------------------------------------------------------      

   * xtb version 6.7.1 (edcfbbe) compiled by 'albert@albert-system' on 2024-07-22

   xtb is free software: you can redistribute it and/or modify it under
   the terms of the GNU Lesser General Public License as published by
   the Free Software Foundation, either version 3 of the License, or
   (at your option) any later version.
   
   xtb is distributed in the hope that it will be useful,
   but WITHOUT ANY WARRANTY; without even the implied warranty of
   MERCHANTABILITY or FITNESS FOR A PARTICULAR PURPOSE.  See the
   GNU Lesser General Public License for more details.
   
   Cite this work as:
   * C. Bannwarth, E. Caldeweyher, S. Ehlert, A. Hansen, P. Pracht,
     J. Seibert, S. Spicher, S. Grimme, WIREs Comput. Mol. Sci., 2020, 11,
     e01493. DOI: 10.1002/wcms.1493
   
   for GFN2-xTB:
   * C. Bannwarth, S. Ehlert and S. Grimme., J. Chem. Theory Comput., 2019,
     15, 1652-1671. DOI: 10.1021/acs.jctc.8b01176
   for GFN1-xTB:
   * S. Grimme, C. Bannwarth, P. Shushkov, J. Chem. Theory Comput., 2017,
     13, 1989-2009. DOI: 10.1021/acs.jctc.7b00118
   for GFN0-xTB:
   * P. Pracht, E. Caldeweyher, S. Ehlert, S. Grimme, ChemRxiv, 2019, preprint.
     DOI: 10.26434/chemrxiv.8326202.v1
   for GFN-FF:
   * S. Spicher and S. Grimme, Angew. Chem. Int. Ed., 2020, 59, 15665-15673.
     DOI: 10.1002/anie.202004239
   
   for ALPB and GBSA implicit solvation:
   * S. Ehlert, M. Stahn, S. Spicher, S. Grimme, J. Chem. Theory Comput.,
     2021, 17, 4250-4261. DOI: 10.1021/acs.jctc.1c00471
   
   for ddCOSMO and CPCM-X implicit solvation:
   * M. Stahn, S. Ehlert, S. Grimme, J. Phys. Chem. A,
     2023, XX, XXXX-XXXX. DOI: 10.1021/acs.jpca.3c04382
   
   for DFT-D4:
   * E. Caldeweyher, C. Bannwarth and S. Grimme, J. Chem. Phys., 2017,
     147, 034112. DOI: 10.1063/1.4993215
   * E. Caldeweyher, S. Ehlert, A. Hansen, H. Neugebauer, S. Spicher,
     C. Bannwarth and S. Grimme, J. Chem. Phys., 2019, 150, 154122.
     DOI: 10.1063/1.5090222
   * E. Caldeweyher, J.-M. Mewes, S. Ehlert and S. Grimme, Phys. Chem. Chem. Phys.
     2020, 22, 8499-8512. DOI: 10.1039/D0CP00502A
   
   for sTDA-xTB:
   * S. Grimme and C. Bannwarth, J. Chem. Phys., 2016, 145, 054103.
     DOI: 10.1063/1.4959605
   
   in the mass-spec context:
   * V. Asgeirsson, C. Bauer and S. Grimme, Chem. Sci., 2017, 8, 4879.
     DOI: 10.1039/c7sc00601b
   * J. Koopman and S. Grimme, ACS Omega 2019, 4, 12, 15120-15133.
     DOI: 10.1021/acsomega.9b02011
   
   for metadynamics refer to:
   * S. Grimme, J. Chem. Theory Comput., 2019, 155, 2847-2862
     DOI: 10.1021/acs.jctc.9b00143
   
   for SPH calculations refer to:
   * S. Spicher and S. Grimme, J. Chem. Theory Comput., 2021, 17, 1701-1714
     DOI: 10.1021/acs.jctc.0c01306
   
   for ONIOM refer to:
   * C. Plett, A. Katbashev, S. Ehlert, S. Grimme, M. Bursch,
     Phys. Chem. Chem. Phys., 2023, 25, 17860-17868. DOI: 10.1039/D3CP02178E
   
   for DIPRO refer to:
   * J. Kohn, N. Gildemeister, S. Grimme, D. Fazzi, A. Hansen,
     J. Chem. Phys., 2023, just accepted.
   
   for PTB refer to:
   * S. Grimme, M. Mueller, A. Hansen, J. Chem. Phys., 2023, 158, 124111.
     DOI: 10.1063/5.0137838
   
   with help from (in alphabetical order)
   P. Atkinson, C. Bannwarth, F. Bohle, G. Brandenburg, E. Caldeweyher
   M. Checinski, S. Dohm, S. Ehlert, S. Ehrlich, I. Gerasimov, C. Hölzer
   A. Katbashev, J. Kohn, J. Koopman, C. Lavigne, S. Lehtola, F. März, M. Müller,
   F. Musil, H. Neugebauer, J. Pisarek, C. Plett, P. Pracht, F. Pultar,
   J. Seibert, P. Shushkov, S. Spicher, M. Stahn, M. Steiner, T. Strunk,
   J. Stückrath, T. Rose, and J. Unsleber
   
 * started run on 2025/04/05 at 09:21:06.765     
   ID    Z sym.   atoms
    1    6 C      1-6, 12-17
    2   17 Cl     7-11, 18-22

           -------------------------------------------------
          |                Calculation Setup                |
           -------------------------------------------------

          program call               : /srv/scratch/z5358697/.xtb/bin/xtb xtb_rrho.coord --gfn2 --ohess vtight --chrg 0 --enso --norestart -I rrho-xcontrol-inp --parallel 1 --alpb water
          hostname                   : k142
          coordinate file            : xtb_rrho.coord
          omp threads                :                     1


           -------------------------------------------------
          |                 G F N 2 - x T B                 |
           -------------------------------------------------

        Reference                      10.1021/acs.jctc.8b01176
      * Hamiltonian:
        H0-scaling (s, p, d)           1.850000    2.230000    2.230000
        zeta-weighting                 0.500000
      * Dispersion:
        s8                             2.700000
        a1                             0.520000
        a2                             5.000000
        s9                             5.000000
      * Repulsion:
        kExp                           1.500000    1.000000
        rExp                           1.000000
      * Coulomb:
        alpha                          2.000000
        third order                    shell-resolved
        anisotropic                    true
        a3                             3.000000
        a5                             4.000000
        cn-shift                       1.200000
        cn-exp                         4.000000
        max-rad                        5.000000

      * Solvation model:               ALPB
        Solvent                        water
        Parameter file                 internal GFN2-xTB/ALPB
        Dielectric constant                8.0200E+01
        Reference state                gsolv [1 M gas/solution]
        Free energy shift                  1.0808E-03 Eh       6.7819E-01 kcal/mol
        Temperature                        2.9815E+02 K
        Density                            1.0000E+00 kg/L
        Solvent mass                       1.8000E+01 g/mol
        Interaction kernel             P16
        Born radius scaling (c1)           1.4744E+00
        Born radii integrator          GBOBC
        Born offset                        0.0000E+00 a0       0.0000E+00 AA
        H-bond correction              true
        Ion screening                  false
        Surface tension                    1.0000E-05 Eh       1.5569E+01 dyn/cm
        Grid points                               974 per atom

          ...................................................
          :                      SETUP                      :
          :.................................................:
          :  # basis functions                 148          :
          :  # atomic orbitals                 138          :
          :  # shells                           54          :
          :  # electrons                       118          :
          :  max. iterations                   250          :
          :  Hamiltonian                  GFN2-xTB          :
          :  restarted?                      false          :
          :  GBSA solvation                   true          :
          :  PC potential                    false          :
          :  electronic temp.          300.0000000     K    :
          :  accuracy                    1.0000000          :
          :  -> integral cutoff          0.2500000E+02      :
          :  -> integral neglect         0.1000000E-07      :
          :  -> SCF convergence          0.1000000E-05 Eh   :
          :  -> wf. convergence          0.1000000E-03 e    :
          :  Broyden damping             0.4000000          :
          :  net charge                          0          :
          :  unpaired electrons                  0          :
          ...................................................

 iter      E             dE          RMSdq      gap      omega  full diag
   1    -71.6392980 -0.716393E+02  0.516E+00    3.87       0.0  T
   2    -71.6947811 -0.554831E-01  0.278E+00    3.42       1.0  T
   3    -71.6894782  0.530292E-02  0.123E+00    3.41       1.0  T
   4    -71.6960888 -0.661062E-02  0.425E-01    3.47       1.0  T
   5    -71.6998607 -0.377192E-02  0.527E-02    3.42       1.0  T
   6    -71.6998704 -0.963258E-05  0.400E-02    3.42       1.0  T
   7    -71.6998796 -0.924101E-05  0.183E-02    3.42       1.2  T
   8    -71.6998817 -0.206240E-05  0.118E-02    3.42       1.8  T
   9    -71.6998822 -0.562695E-06  0.506E-03    3.42       4.2  T
  10    -71.6998826 -0.335865E-06  0.264E-03    3.42       8.1  T
  11    -71.6998826 -0.469086E-07  0.154E-03    3.42      13.8  T
  12    -71.6998826 -0.220635E-07  0.869E-04    3.42      24.5  T
  13    -71.6998827 -0.835182E-08  0.279E-04    3.42      76.3  T

   *** convergence criteria satisfied after 13 iterations ***

         #    Occupation            Energy/Eh            Energy/eV
      -------------------------------------------------------------
         1        2.0000           -1.0824497             -29.4550
       ...           ...                  ...                  ...
        53        2.0000           -0.4447314             -12.1018
        54        2.0000           -0.4410008             -12.0002
        55        2.0000           -0.4409882             -11.9999
        56        2.0000           -0.4246493             -11.5553
        57        2.0000           -0.4239690             -11.5368
        58        2.0000           -0.4181830             -11.3793
        59        2.0000           -0.4174936             -11.3606 (HOMO)
        60                         -0.2918678              -7.9421 (LUMO)
        61                         -0.2893661              -7.8741
        62                         -0.2879856              -7.8365
        63                         -0.2874654              -7.8223
        64                         -0.2090150              -5.6876
       ...                                ...                  ...
       138                          0.5538127              15.0700
      -------------------------------------------------------------
                  HL-Gap            0.1256258 Eh            3.4185 eV
             Fermi-level           -0.3546807 Eh           -9.6514 eV

 SCC (total)                   0 d,  0 h,  0 min,  0.073 sec
 SCC setup                      ...        0 min,  0.001 sec (  1.730%)
 Dispersion                     ...        0 min,  0.000 sec (  0.189%)
 classical contributions        ...        0 min,  0.000 sec (  0.034%)
 integral evaluation            ...        0 min,  0.022 sec ( 29.704%)
 iterations                     ...        0 min,  0.030 sec ( 41.289%)
 molecular gradient             ...        0 min,  0.019 sec ( 26.697%)
 printout                       ...        0 min,  0.000 sec (  0.333%)

         :::::::::::::::::::::::::::::::::::::::::::::::::::::
         ::                     SUMMARY                     ::
         :::::::::::::::::::::::::::::::::::::::::::::::::::::
         :: total energy             -71.238149752737 Eh    ::
         :: total w/o Gsasa/hb       -71.237484080837 Eh    ::
         :: gradient norm              0.026451630210 Eh/a0 ::
         :: HOMO-LUMO gap              3.418451150725 eV    ::
         ::.................................................::
         :: SCC energy               -71.699386718064 Eh    ::
         :: -> isotropic ES            0.033398185101 Eh    ::
         :: -> anisotropic ES          0.001608098026 Eh    ::
         :: -> anisotropic XC          0.008907495538 Eh    ::
         :: -> dispersion             -0.050284108181 Eh    ::
         :: -> Gsolv                  -0.004698272181 Eh    ::
         ::    -> Gelec               -0.004032600280 Eh    ::
         ::    -> Gsasa               -0.001719361455 Eh    ::
         ::    -> Ghb                 -0.000027070144 Eh    ::
         ::    -> Gshift               0.001080759698 Eh    ::
         :: repulsion energy           0.461236965326 Eh    ::
         :: add. restraining           0.000000000000 Eh    ::
         :: total charge               0.000000000000 e     ::
         :::::::::::::::::::::::::::::::::::::::::::::::::::::

      ----------------------------------------------------------- 
     |                   =====================                   |
     |                        A N C O P T                        |
     |                   =====================                   |
     |               Approximate Normal Coordinate               |
     |                Rational Function Optimizer                |
      ----------------------------------------------------------- 
      ----------------------------------------------------------- 
     |                   =====================                   |
     |                        A N C O P T                        |
     |                   =====================                   |
     |               Approximate Normal Coordinate               |
     |                Rational Function Optimizer                |
      ----------------------------------------------------------- 

          ...................................................
          :                      SETUP                      :
          :.................................................:
          :   optimization level         verytight          :
          :   max. optcycles                   440          :
          :   ANC micro-cycles                  20          :
          :   degrees of freedom                60          :
          :.................................................:
          :   RF solver                   davidson          :
          :   write xtbopt.log                true          :
          :   linear?                        false          :
          :   energy convergence         0.1000000E-06 Eh   :
          :   grad. convergence          0.2000000E-03 Eh/α :
          :   maxmium RF displ.          1.0000000          :
          :   Hlow (freq-cutoff)         0.1000000E-01      :
          :   Hmax (freq-cutoff)         5.0000000          :
          :   S6 in model hess.         20.0000000          :
          ...................................................

generating ANC from exact Hessian ...
Using Lindh-Hessian (1995)
 Shifting diagonal of input Hessian by   8.364036270918015E-003
 Lowest  eigenvalues of input Hessian
    0.000000    0.000000    0.000000    0.000000    0.000000    0.000000
    0.010000    0.010027    0.010149    0.016167    0.016167    0.016501
    0.017333    0.020659    0.020697    0.025554    0.025832    0.029632
 Highest eigenvalues
    1.790520    1.791724    1.916006    1.956753    1.960273    2.003435
 

........................................................................
.............................. CYCLE    1 ..............................
........................................................................

 iter      E             dE          RMSdq      gap      omega  full diag
   1    -71.6998827 -0.716999E+02  0.115E-04    3.42       0.0  T
   2    -71.6998827 -0.370477E-10  0.900E-05    3.42     236.8  T
   3    -71.6998827 -0.231211E-10  0.684E-05    3.42     311.9  T
     SCC iter.                  ...        0 min,  0.006 sec
     gradient                   ...        0 min,  0.021 sec
 * total energy  :   -71.2381498 Eh     change       -0.9432597E-09 Eh
   gradient norm :     0.0264495 Eh/α   predicted     0.0000000E+00 (-100.00%)
   displ. norm   :     0.0826215 α      lambda       -0.1444147E-02
   maximum displ.:     0.0520944 α      in ANC's #32, #24, #36, ...

........................................................................
.............................. CYCLE    2 ..............................
........................................................................

 iter      E             dE          RMSdq      gap      omega  full diag
   1    -71.7131792 -0.717132E+02  0.901E-02    3.43       0.0  T
   2    -71.7131897 -0.104864E-04  0.632E-02    3.44       1.0  T
   3    -71.7131892  0.553301E-06  0.413E-02    3.44       1.0  T
   4    -71.7132046 -0.154343E-04  0.166E-02    3.44       1.3  T
   5    -71.7132049 -0.327373E-06  0.107E-02    3.44       2.0  T
   6    -71.7132061 -0.119683E-05  0.222E-03    3.44       9.6  T
   7    -71.7132061 -0.158237E-07  0.173E-03    3.44      12.3  T
   8    -71.7132062 -0.221557E-07  0.126E-03    3.44      17.0  T
   9    -71.7132062 -0.152371E-07  0.656E-04    3.44      32.5  T
  10    -71.7132062 -0.498839E-08  0.284E-04    3.44      75.0  T
     SCC iter.                  ...        0 min,  0.020 sec
     gradient                   ...        0 min,  0.020 sec
 * total energy  :   -71.2391754 Eh     change       -0.1025599E-02 Eh
   gradient norm :     0.0181470 Eh/α   predicted    -0.7270030E-03 ( -29.11%)
   displ. norm   :     0.0601328 α      lambda       -0.6359831E-03
   maximum displ.:     0.0348095 α      in ANC's #32, #36, #24, ...

........................................................................
.............................. CYCLE    3 ..............................
........................................................................

 iter      E             dE          RMSdq      gap      omega  full diag
   1    -71.7196078 -0.717196E+02  0.798E-02    3.43       0.0  T
   2    -71.7196215 -0.137748E-04  0.572E-02    3.45       1.0  T
   3    -71.7196283 -0.675764E-05  0.381E-02    3.44       1.0  T
   4    -71.7196366 -0.826780E-05  0.157E-02    3.44       1.4  T
   5    -71.7196373 -0.715531E-06  0.112E-02    3.44       1.9  T
   6    -71.7196378 -0.554569E-06  0.409E-03    3.44       5.2  T
   7    -71.7196381 -0.218356E-06  0.181E-03    3.44      11.8  T
   8    -71.7196381 -0.162021E-07  0.137E-03    3.44      15.5  T
   9    -71.7196381 -0.147424E-07  0.102E-03    3.44      20.8  T
  10    -71.7196381 -0.137776E-07  0.285E-04    3.44      74.7  T
  11    -71.7196381 -0.525262E-09  0.206E-04    3.44     103.3  T
     SCC iter.                  ...        0 min,  0.025 sec
     gradient                   ...        0 min,  0.021 sec
 * total energy  :   -71.2395351 Eh     change       -0.3597258E-03 Eh
   gradient norm :     0.0068233 Eh/α   predicted    -0.3191979E-03 ( -11.27%)
   displ. norm   :     0.0128388 α      lambda       -0.5106076E-04
   maximum displ.:     0.0069053 α      in ANC's #48, #7, #3, ...

........................................................................
.............................. CYCLE    4 ..............................
........................................................................

 iter      E             dE          RMSdq      gap      omega  full diag
   1    -71.7183598 -0.717184E+02  0.161E-02    3.43       0.0  T
   2    -71.7183612 -0.135059E-05  0.121E-02    3.44       1.8  T
   3    -71.7183617 -0.568985E-06  0.756E-03    3.44       2.8  T
   4    -71.7183618 -0.948437E-07  0.308E-03    3.44       6.9  T
   5    -71.7183619 -0.607530E-07  0.206E-03    3.44      10.3  T
   6    -71.7183619 -0.679816E-08  0.120E-03    3.44      17.8  T
   7    -71.7183619 -0.182419E-07  0.430E-04    3.44      49.6  T
   8    -71.7183619 -0.102746E-08  0.320E-04    3.44      66.5  T
     SCC iter.                  ...        0 min,  0.019 sec
     gradient                   ...        0 min,  0.019 sec
 * total energy  :   -71.2395678 Eh     change       -0.3272109E-04 Eh
   gradient norm :     0.0020414 Eh/α   predicted    -0.2553768E-04 ( -21.95%)
   displ. norm   :     0.0113702 α      lambda       -0.8783475E-05
   maximum displ.:     0.0081840 α      in ANC's #3, #7, #32, ...

........................................................................
.............................. CYCLE    5 ..............................
........................................................................

 iter      E             dE          RMSdq      gap      omega  full diag
   1    -71.7171792 -0.717172E+02  0.756E-03    3.43       0.0  T
   2    -71.7171794 -0.205921E-06  0.530E-03    3.43       4.0  T
   3    -71.7171795 -0.476063E-07  0.307E-03    3.43       6.9  T
   4    -71.7171795 -0.250698E-07  0.989E-04    3.43      21.6  T
   5    -71.7171795 -0.813098E-08  0.654E-04    3.43      32.6  T
     SCC iter.                  ...        0 min,  0.010 sec
     gradient                   ...        0 min,  0.019 sec
 * total energy  :   -71.2395728 Eh     change       -0.5014411E-05 Eh
   gradient norm :     0.0004465 Eh/α   predicted    -0.4490463E-05 ( -10.45%)
   displ. norm   :     0.0119749 α      lambda       -0.6941514E-06
   maximum displ.:     0.0108183 α      in ANC's #3, #7, #2, ...

........................................................................
.............................. CYCLE    6 ..............................
........................................................................

 iter      E             dE          RMSdq      gap      omega  full diag
   1    -71.7169270 -0.717169E+02  0.548E-03    3.43       0.0  T
   2    -71.7169270 -0.156645E-07  0.339E-03    3.43       6.3  T
   3    -71.7169270  0.252036E-07  0.168E-03    3.43      12.7  T
   4    -71.7169270 -0.411389E-07  0.607E-04    3.43      35.1  T
   5    -71.7169270 -0.176227E-08  0.447E-04    3.43      47.7  T
     SCC iter.                  ...        0 min,  0.011 sec
     gradient                   ...        0 min,  0.019 sec
 * total energy  :   -71.2395738 Eh     change       -0.9587105E-06 Eh
   gradient norm :     0.0003685 Eh/α   predicted    -0.3949166E-06 ( -58.81%)
   displ. norm   :     0.0168197 α      lambda       -0.9014213E-06
   maximum displ.:     0.0149947 α      in ANC's #3, #2, #7, ...

........................................................................
.............................. CYCLE    7 ..............................
........................................................................

 iter      E             dE          RMSdq      gap      omega  full diag
   1    -71.7169785 -0.717170E+02  0.735E-03    3.43       0.0  T
   2    -71.7169785 -0.127033E-07  0.441E-03    3.43       4.8  T
   3    -71.7169784  0.322518E-07  0.165E-03    3.43      12.9  T
   4    -71.7169785 -0.433698E-07  0.499E-04    3.43      42.7  T
   5    -71.7169785 -0.104308E-08  0.378E-04    3.43      56.4  T
     SCC iter.                  ...        0 min,  0.011 sec
     gradient                   ...        0 min,  0.021 sec
 * total energy  :   -71.2395750 Eh     change       -0.1180681E-05 Eh
   gradient norm :     0.0002788 Eh/α   predicted    -0.4510055E-06 ( -61.80%)
   displ. norm   :     0.0200336 α      lambda       -0.9024195E-06
   maximum displ.:     0.0180372 α      in ANC's #3, #2, #7, ...

........................................................................
.............................. CYCLE    8 ..............................
........................................................................

 iter      E             dE          RMSdq      gap      omega  full diag
   1    -71.7170936 -0.717171E+02  0.843E-03    3.43       0.0  T
   2    -71.7170936 -0.579954E-08  0.499E-03    3.43       4.3  T
   3    -71.7170936  0.158941E-07  0.107E-03    3.43      20.0  T
   4    -71.7170936 -0.204789E-07  0.329E-04    3.43      64.8  T
   5    -71.7170936 -0.472227E-09  0.263E-04    3.43      80.9  T
     SCC iter.                  ...        0 min,  0.011 sec
     gradient                   ...        0 min,  0.021 sec
 * total energy  :   -71.2395762 Eh     change       -0.1290644E-05 Eh
   gradient norm :     0.0004274 Eh/α   predicted    -0.4578283E-06 ( -64.53%)
   displ. norm   :     0.0202056 α      lambda       -0.9428475E-06
   maximum displ.:     0.0184564 α      in ANC's #3, #2, #7, ...

........................................................................
.............................. CYCLE    9 ..............................
........................................................................

 iter      E             dE          RMSdq      gap      omega  full diag
   1    -71.7171902 -0.717172E+02  0.849E-03    3.43       0.0  T
   2    -71.7171902 -0.142640E-08  0.499E-03    3.43       4.3  T
   3    -71.7171902  0.735554E-10  0.265E-04    3.43      80.4  T
   4    -71.7171902 -0.103532E-08  0.174E-04    3.43     122.3  T
     SCC iter.                  ...        0 min,  0.009 sec
     gradient                   ...        0 min,  0.020 sec
 * total energy  :   -71.2395776 Eh     change       -0.1386547E-05 Eh
   gradient norm :     0.0004530 Eh/α   predicted    -0.4718033E-06 ( -65.97%)
   displ. norm   :     0.0216700 α      lambda       -0.1100319E-05
   maximum displ.:     0.0200691 α      in ANC's #3, #2, #7, ...

........................................................................
.............................. CYCLE   10 ..............................
........................................................................

 iter      E             dE          RMSdq      gap      omega  full diag
   1    -71.7172615 -0.717173E+02  0.910E-03    3.43       0.0  T
   2    -71.7172615 -0.218988E-08  0.536E-03    3.43       4.0  T
   3    -71.7172615  0.707617E-08  0.720E-04    3.43      29.6  T
   4    -71.7172615 -0.893647E-08  0.180E-04    3.43     118.3  T
     SCC iter.                  ...        0 min,  0.010 sec
     gradient                   ...        0 min,  0.019 sec
 * total energy  :   -71.2395792 Eh     change       -0.1608126E-05 Eh
   gradient norm :     0.0003685 Eh/α   predicted    -0.5506999E-06 ( -65.76%)
   displ. norm   :     0.0221684 α      lambda       -0.1196560E-05
   maximum displ.:     0.0208143 α      in ANC's #3, #2, #7, ...

........................................................................
.............................. CYCLE   11 ..............................
........................................................................

 iter      E             dE          RMSdq      gap      omega  full diag
   1    -71.7172874 -0.717173E+02  0.935E-03    3.42       0.0  T
   2    -71.7172874 -0.426087E-08  0.551E-03    3.42       3.9  T
   3    -71.7172874  0.178057E-07  0.112E-03    3.42      19.0  T
   4    -71.7172874 -0.216186E-07  0.246E-04    3.42      86.7  T
   5    -71.7172874 -0.182780E-09  0.159E-04    3.42     133.7  T
     SCC iter.                  ...        0 min,  0.012 sec
     gradient                   ...        0 min,  0.019 sec
 * total energy  :   -71.2395809 Eh     change       -0.1683797E-05 Eh
   gradient norm :     0.0002628 Eh/α   predicted    -0.5989242E-06 ( -64.43%)
   displ. norm   :     0.0191580 α      lambda       -0.1072101E-05
   maximum displ.:     0.0185527 α      in ANC's #3, #2, #7, ...

........................................................................
.............................. CYCLE   12 ..............................
........................................................................

 iter      E             dE          RMSdq      gap      omega  full diag
   1    -71.7172455 -0.717172E+02  0.808E-03    3.42       0.0  T
   2    -71.7172456 -0.367395E-08  0.477E-03    3.42       4.5  T
   3    -71.7172455  0.127859E-07  0.923E-04    3.42      23.1  T
   4    -71.7172456 -0.156685E-07  0.222E-04    3.42      96.0  T
     SCC iter.                  ...        0 min,  0.009 sec
     gradient                   ...        0 min,  0.019 sec
 * total energy  :   -71.2395825 Eh     change       -0.1581645E-05 Eh
   gradient norm :     0.0002371 Eh/α   predicted    -0.5393349E-06 ( -65.90%)
   displ. norm   :     0.0165497 α      lambda       -0.9642707E-06
   maximum displ.:     0.0163836 α      in ANC's #3, #2, #20, ...

........................................................................
.............................. CYCLE   13 ..............................
........................................................................

 iter      E             dE          RMSdq      gap      omega  full diag
   1    -71.7171935 -0.717172E+02  0.702E-03    3.42       0.0  T
   2    -71.7171935 -0.190892E-08  0.414E-03    3.42       5.1  T
   3    -71.7171935  0.539616E-08  0.627E-04    3.42      34.0  T
   4    -71.7171935 -0.704695E-08  0.198E-04    3.42     107.6  T
     SCC iter.                  ...        0 min,  0.009 sec
     gradient                   ...        0 min,  0.020 sec
 * total energy  :   -71.2395839 Eh     change       -0.1439178E-05 Eh
   gradient norm :     0.0002923 Eh/α   predicted    -0.4830016E-06 ( -66.44%)
   displ. norm   :     0.0151687 α      lambda       -0.9247863E-06
   maximum displ.:     0.0150646 α      in ANC's #3, #1, #20, ...

........................................................................
.............................. CYCLE   14 ..............................
........................................................................

 iter      E             dE          RMSdq      gap      omega  full diag
   1    -71.7171469 -0.717171E+02  0.641E-03    3.42       0.0  T
   2    -71.7171469 -0.886146E-09  0.378E-03    3.42       5.6  T
   3    -71.7171469  0.125668E-08  0.341E-04    3.42      62.6  T
   4    -71.7171469 -0.202068E-08  0.148E-04    3.42     144.1  T
     SCC iter.                  ...        0 min,  0.009 sec
     gradient                   ...        0 min,  0.021 sec
 * total energy  :   -71.2395853 Eh     change       -0.1382372E-05 Eh
   gradient norm :     0.0003319 Eh/α   predicted    -0.4633217E-06 ( -66.48%)
   displ. norm   :     0.0151768 α      lambda       -0.9524551E-06
   maximum displ.:     0.0148013 α      in ANC's #3, #2, #1, ...

........................................................................
.............................. CYCLE   15 ..............................
........................................................................

 iter      E             dE          RMSdq      gap      omega  full diag
   1    -71.7171024 -0.717171E+02  0.640E-03    3.42       0.0  T
   2    -71.7171024 -0.546194E-09  0.377E-03    3.42       5.7  T
   3    -71.7171024 -0.824230E-11  0.157E-04    3.42     136.1  T
   4    -71.7171024 -0.368686E-09  0.986E-05    3.42     216.2  T
     SCC iter.                  ...        0 min,  0.008 sec
     gradient                   ...        0 min,  0.023 sec
 * total energy  :   -71.2395867 Eh     change       -0.1421707E-05 Eh
   gradient norm :     0.0003403 Eh/α   predicted    -0.4771348E-06 ( -66.44%)
   displ. norm   :     0.0172192 α      lambda       -0.1081217E-05
   maximum displ.:     0.0163666 α      in ANC's #3, #2, #1, ...

........................................................................
.............................. CYCLE   16 ..............................
........................................................................

 iter      E             dE          RMSdq      gap      omega  full diag
   1    -71.7170610 -0.717171E+02  0.723E-03    3.42       0.0  T
   2    -71.7170610 -0.681268E-09  0.425E-03    3.42       5.0  T
   3    -71.7170610  0.568065E-09  0.237E-04    3.42      90.0  T
   4    -71.7170610 -0.101447E-08  0.861E-05    3.42     247.6  T
     SCC iter.                  ...        0 min,  0.009 sec
     gradient                   ...        0 min,  0.020 sec
 * total energy  :   -71.2395884 Eh     change       -0.1627218E-05 Eh
   gradient norm :     0.0003227 Eh/α   predicted    -0.5422702E-06 ( -66.68%)
   displ. norm   :     0.0199608 α      lambda       -0.1243937E-05
   maximum displ.:     0.0186009 α      in ANC's #3, #2, #20, ...

........................................................................
.............................. CYCLE   17 ..............................
........................................................................

 iter      E             dE          RMSdq      gap      omega  full diag
   1    -71.7170214 -0.717170E+02  0.837E-03    3.41       0.0  T
   2    -71.7170214 -0.117362E-08  0.492E-03    3.41       4.3  T
   3    -71.7170214  0.256067E-08  0.436E-04    3.41      48.9  T
   4    -71.7170214 -0.344377E-08  0.116E-04    3.41     184.0  T
     SCC iter.                  ...        0 min,  0.008 sec
     gradient                   ...        0 min,  0.018 sec
 * total energy  :   -71.2395903 Eh     change       -0.1877167E-05 Eh
   gradient norm :     0.0002975 Eh/α   predicted    -0.6239485E-06 ( -66.76%)
   displ. norm   :     0.0232805 α      lambda       -0.1448576E-05
   maximum displ.:     0.0213859 α      in ANC's #3, #2, #7, ...

........................................................................
.............................. CYCLE   18 ..............................
........................................................................

 iter      E             dE          RMSdq      gap      omega  full diag
   1    -71.7169862 -0.717170E+02  0.972E-03    3.41       0.0  T
   2    -71.7169862 -0.177030E-08  0.572E-03    3.41       3.7  T
   3    -71.7169862  0.467666E-08  0.587E-04    3.41      36.3  T
   4    -71.7169862 -0.615221E-08  0.158E-04    3.41     135.2  T
     SCC iter.                  ...        0 min,  0.008 sec
     gradient                   ...        0 min,  0.018 sec
 * total energy  :   -71.2395924 Eh     change       -0.2169843E-05 Eh
   gradient norm :     0.0002756 Eh/α   predicted    -0.7265365E-06 ( -66.52%)
   displ. norm   :     0.0261871 α      lambda       -0.1633387E-05
   maximum displ.:     0.0240681 α      in ANC's #3, #2, #7, ...

........................................................................
.............................. CYCLE   19 ..............................
........................................................................

 iter      E             dE          RMSdq      gap      omega  full diag
   1    -71.7169514 -0.717170E+02  0.109E-02    3.41       0.0  T
   2    -71.7169514 -0.236163E-08  0.643E-03    3.41       3.3  T
   3    -71.7169514  0.638984E-08  0.690E-04    3.41      30.9  T
   4    -71.7169514 -0.842626E-08  0.192E-04    3.41     111.3  T
     SCC iter.                  ...        0 min,  0.008 sec
     gradient                   ...        0 min,  0.018 sec
 * total energy  :   -71.2395949 Eh     change       -0.2441608E-05 Eh
   gradient norm :     0.0002861 Eh/α   predicted    -0.8183871E-06 ( -66.48%)
   displ. norm   :     0.0294620 α      lambda       -0.1844937E-05
   maximum displ.:     0.0272325 α      in ANC's #3, #2, #7, ...

........................................................................
.............................. CYCLE   20 ..............................
........................................................................

 iter      E             dE          RMSdq      gap      omega  full diag
   1    -71.7169187 -0.717169E+02  0.123E-02    3.41       0.0  T
   2    -71.7169187 -0.300800E-08  0.724E-03    3.41       2.9  T
   3    -71.7169187  0.809158E-08  0.780E-04    3.41      27.4  T
   4    -71.7169187 -0.107339E-07  0.223E-04    3.41      95.7  T
     SCC iter.                  ...        0 min,  0.008 sec
     gradient                   ...        0 min,  0.019 sec
 * total energy  :   -71.2395976 Eh     change       -0.2769594E-05 Eh
   gradient norm :     0.0003299 Eh/α   predicted    -0.9247914E-06 ( -66.61%)
   displ. norm   :     0.0311322 α      lambda       -0.2009882E-05
   maximum displ.:     0.0290452 α      in ANC's #3, #2, #7, ...
 * RMSD in coord.:     0.0776464 α      energy gain  -0.1447880E-02 Eh

generating ANC from exact Hessian ...
Using Lindh-Hessian (1995)
 Shifting diagonal of input Hessian by   8.300919635357770E-003
 Lowest  eigenvalues of input Hessian
    0.000000    0.000000    0.000000    0.000000    0.000000    0.000000
    0.010000    0.010062    0.010164    0.016785    0.016797    0.017245
    0.018151    0.022032    0.022111    0.026465    0.027103    0.030337
 Highest eigenvalues
    1.811360    1.814098    1.964251    2.009997    2.016892    2.039118
 

........................................................................
.............................. CYCLE   21 ..............................
........................................................................

 iter      E             dE          RMSdq      gap      omega  full diag
   1    -71.7168900 -0.717169E+02  0.130E-02    3.40       0.0  T
   2    -71.7168900 -0.289903E-08  0.765E-03    3.40       2.8  T
   3    -71.7168900  0.659197E-08  0.732E-04    3.40      29.1  T
   4    -71.7168900 -0.918268E-08  0.229E-04    3.40      93.1  T
     SCC iter.                  ...        0 min,  0.010 sec
     gradient                   ...        0 min,  0.022 sec
 * total energy  :   -71.2396006 Eh     change       -0.2988067E-05 Eh
   gradient norm :     0.0003841 Eh/α   predicted     0.0000000E+00 (-100.00%)
   displ. norm   :     0.0170536 α      lambda       -0.1282771E-06
   maximum displ.:     0.0159458 α      in ANC's #3, #2, #7, ...

........................................................................
.............................. CYCLE   22 ..............................
........................................................................

 iter      E             dE          RMSdq      gap      omega  full diag
   1    -71.7171810 -0.717172E+02  0.733E-03    3.40       0.0  T
   2    -71.7171810 -0.373787E-08  0.434E-03    3.40       4.9  T
   3    -71.7171810  0.100519E-08  0.514E-04    3.40      41.5  T
   4    -71.7171811 -0.323040E-08  0.310E-04    3.40      68.8  T
     SCC iter.                  ...        0 min,  0.009 sec
     gradient                   ...        0 min,  0.019 sec
 * total energy  :   -71.2396029 Eh     change       -0.2237573E-05 Eh
   gradient norm :     0.0002349 Eh/α   predicted    -0.8375284E-06 ( -62.57%)
   displ. norm   :     0.0259523 α      lambda       -0.2081455E-05
   maximum displ.:     0.0229403 α      in ANC's #3, #2, #7, ...

........................................................................
.............................. CYCLE   23 ..............................
........................................................................

 iter      E             dE          RMSdq      gap      omega  full diag
   1    -71.7173149 -0.717173E+02  0.111E-02    3.40       0.0  T
   2    -71.7173149 -0.408262E-08  0.657E-03    3.40       3.2  T
   3    -71.7173149  0.567464E-08  0.822E-04    3.40      25.9  T
   4    -71.7173149 -0.984481E-08  0.379E-04    3.40      56.3  T
     SCC iter.                  ...        0 min,  0.008 sec
     gradient                   ...        0 min,  0.018 sec
 * total energy  :   -71.2396059 Eh     change       -0.3020012E-05 Eh
   gradient norm :     0.0002242 Eh/α   predicted    -0.1074257E-05 ( -64.43%)
   displ. norm   :     0.0360808 α      lambda       -0.2656691E-05
   maximum displ.:     0.0316860 α      in ANC's #3, #2, #7, ...

........................................................................
.............................. CYCLE   24 ..............................
........................................................................

 iter      E             dE          RMSdq      gap      omega  full diag
   1    -71.7173161 -0.717173E+02  0.151E-02    3.40       0.0  T
   2    -71.7173161 -0.385302E-08  0.889E-03    3.40       2.4  T
   3    -71.7173161  0.716842E-08  0.753E-04    3.40      28.3  T
   4    -71.7173161 -0.103525E-07  0.257E-04    3.40      82.8  T
     SCC iter.                  ...        0 min,  0.008 sec
     gradient                   ...        0 min,  0.022 sec
 * total energy  :   -71.2396098 Eh     change       -0.3936012E-05 Eh
   gradient norm :     0.0003482 Eh/α   predicted    -0.1360546E-05 ( -65.43%)
   displ. norm   :     0.0404083 α      lambda       -0.3029442E-05
   maximum displ.:     0.0360223 α      in ANC's #3, #2, #7, ...

........................................................................
.............................. CYCLE   25 ..............................
........................................................................

 iter      E             dE          RMSdq      gap      omega  full diag
   1    -71.7172610 -0.717173E+02  0.168E-02    3.39       0.0  T
   2    -71.7172610 -0.316267E-08  0.991E-03    3.39       2.2  T
   3    -71.7172610  0.118261E-08  0.381E-04    3.39      56.0  T
   4    -71.7172610 -0.315828E-08  0.157E-04    3.39     136.2  T
     SCC iter.                  ...        0 min,  0.010 sec
     gradient                   ...        0 min,  0.022 sec
 * total energy  :   -71.2396142 Eh     change       -0.4434969E-05 Eh
   gradient norm :     0.0003935 Eh/α   predicted    -0.1516152E-05 ( -65.81%)
   displ. norm   :     0.0400627 α      lambda       -0.3117349E-05
   maximum displ.:     0.0366369 α      in ANC's #3, #2, #7, ...

........................................................................
.............................. CYCLE   26 ..............................
........................................................................

 iter      E             dE          RMSdq      gap      omega  full diag
   1    -71.7171768 -0.717172E+02  0.167E-02    3.39       0.0  T
   2    -71.7171768 -0.336300E-08  0.982E-03    3.39       2.2  T
   3    -71.7171768  0.224749E-08  0.477E-04    3.39      44.7  T
   4    -71.7171768 -0.455405E-08  0.192E-04    3.39     111.3  T
     SCC iter.                  ...        0 min,  0.009 sec
     gradient                   ...        0 min,  0.022 sec
 * total energy  :   -71.2396189 Eh     change       -0.4621095E-05 Eh
   gradient norm :     0.0003475 Eh/α   predicted    -0.1560215E-05 ( -66.24%)
   displ. norm   :     0.0353268 α      lambda       -0.2923326E-05
   maximum displ.:     0.0333211 α      in ANC's #3, #2, #7, ...

........................................................................
.............................. CYCLE   27 ..............................
........................................................................

 iter      E             dE          RMSdq      gap      omega  full diag
   1    -71.7170942 -0.717171E+02  0.148E-02    3.39       0.0  T
   2    -71.7170942 -0.348821E-08  0.870E-03    3.39       2.5  T
   3    -71.7170942  0.560888E-08  0.698E-04    3.39      30.5  T
   4    -71.7170942 -0.843612E-08  0.241E-04    3.39      88.4  T
     SCC iter.                  ...        0 min,  0.008 sec
     gradient                   ...        0 min,  0.020 sec
 * total energy  :   -71.2396232 Eh     change       -0.4354051E-05 Eh
   gradient norm :     0.0002614 Eh/α   predicted    -0.1462896E-05 ( -66.40%)
   displ. norm   :     0.0289930 α      lambda       -0.2572172E-05
   maximum displ.:     0.0282401 α      in ANC's #3, #2, #1, ...

........................................................................
.............................. CYCLE   28 ..............................
........................................................................

 iter      E             dE          RMSdq      gap      omega  full diag
   1    -71.7170432 -0.717170E+02  0.122E-02    3.38       0.0  T
   2    -71.7170432 -0.284396E-08  0.720E-03    3.38       3.0  T
   3    -71.7170432  0.660290E-08  0.741E-04    3.38      28.8  T
   4    -71.7170432 -0.921899E-08  0.244E-04    3.38      87.4  T
     SCC iter.                  ...        0 min,  0.008 sec
     gradient                   ...        0 min,  0.020 sec
 * total energy  :   -71.2396271 Eh     change       -0.3849021E-05 Eh
   gradient norm :     0.0002046 Eh/α   predicted    -0.1287303E-05 ( -66.56%)
   displ. norm   :     0.0245235 α      lambda       -0.2312123E-05
   maximum displ.:     0.0243966 α      in ANC's #3, #2, #20, ...

........................................................................
.............................. CYCLE   29 ..............................
........................................................................

 iter      E             dE          RMSdq      gap      omega  full diag
   1    -71.7170157 -0.717170E+02  0.104E-02    3.38       0.0  T
   2    -71.7170157 -0.213976E-08  0.613E-03    3.38       3.5  T
   3    -71.7170157  0.562365E-08  0.676E-04    3.38      31.5  T
   4    -71.7170157 -0.767987E-08  0.218E-04    3.38      97.8  T
     SCC iter.                  ...        0 min,  0.008 sec
     gradient                   ...        0 min,  0.019 sec
 * total energy  :   -71.2396305 Eh     change       -0.3468582E-05 Eh
   gradient norm :     0.0002122 Eh/α   predicted    -0.1157753E-05 ( -66.62%)
   displ. norm   :     0.0228291 α      lambda       -0.2226092E-05
   maximum displ.:     0.0226993 α      in ANC's #3, #2, #20, ...

........................................................................
.............................. CYCLE   30 ..............................
........................................................................

 iter      E             dE          RMSdq      gap      omega  full diag
   1    -71.7170046 -0.717170E+02  0.967E-03    3.38       0.0  T
   2    -71.7170046 -0.159690E-08  0.570E-03    3.38       3.7  T
   3    -71.7170046  0.360313E-08  0.547E-04    3.38      39.0  T
   4    -71.7170046 -0.507075E-08  0.182E-04    3.38     117.1  T
     SCC iter.                  ...        0 min,  0.009 sec
     gradient                   ...        0 min,  0.020 sec
 * total energy  :   -71.2396339 Eh     change       -0.3343337E-05 Eh
   gradient norm :     0.0002633 Eh/α   predicted    -0.1114457E-05 ( -66.67%)
   displ. norm   :     0.0237084 α      lambda       -0.2354769E-05
   maximum displ.:     0.0230475 α      in ANC's #3, #2, #20, ...

........................................................................
.............................. CYCLE   31 ..............................
........................................................................

 iter      E             dE          RMSdq      gap      omega  full diag
   1    -71.7170005 -0.717170E+02  0.100E-02    3.38       0.0  T
   2    -71.7170005 -0.149828E-08  0.589E-03    3.38       3.6  T
   3    -71.7170005  0.265688E-08  0.484E-04    3.38      44.0  T
   4    -71.7170005 -0.397159E-08  0.169E-04    3.38     126.0  T
     SCC iter.                  ...        0 min,  0.008 sec
     gradient                   ...        0 min,  0.021 sec
 * total energy  :   -71.2396374 Eh     change       -0.3510982E-05 Eh
   gradient norm :     0.0003195 Eh/α   predicted    -0.1178514E-05 ( -66.43%)
   displ. norm   :     0.0267606 α      lambda       -0.2639980E-05
   maximum displ.:     0.0252677 α      in ANC's #3, #2, #20, ...

........................................................................
.............................. CYCLE   32 ..............................
........................................................................

 iter      E             dE          RMSdq      gap      omega  full diag
   1    -71.7169981 -0.717170E+02  0.112E-02    3.37       0.0  T
   2    -71.7169981 -0.155174E-08  0.660E-03    3.37       3.2  T
   3    -71.7169981  0.141803E-08  0.393E-04    3.37      54.3  T
   4    -71.7169981 -0.265332E-08  0.158E-04    3.37     135.1  T
     SCC iter.                  ...        0 min,  0.009 sec
     gradient                   ...        0 min,  0.020 sec
 * total energy  :   -71.2396413 Eh     change       -0.3930788E-05 Eh
   gradient norm :     0.0003602 Eh/α   predicted    -0.1322326E-05 ( -66.36%)
   displ. norm   :     0.0314556 α      lambda       -0.3063971E-05
   maximum displ.:     0.0290557 α      in ANC's #3, #2, #1, ...

........................................................................
.............................. CYCLE   33 ..............................
........................................................................

 iter      E             dE          RMSdq      gap      omega  full diag
   1    -71.7170068 -0.717170E+02  0.131E-02    3.37       0.0  T
   2    -71.7170068 -0.203826E-08  0.771E-03    3.37       2.8  T
   3    -71.7170068  0.136500E-08  0.399E-04    3.37      53.4  T
   4    -71.7170068 -0.290682E-08  0.169E-04    3.37     126.2  T
     SCC iter.                  ...        0 min,  0.010 sec
     gradient                   ...        0 min,  0.020 sec
 * total energy  :   -71.2396459 Eh     change       -0.4554515E-05 Eh
   gradient norm :     0.0003859 Eh/α   predicted    -0.1535654E-05 ( -66.28%)
   displ. norm   :     0.0373024 α      lambda       -0.3585226E-05
   maximum displ.:     0.0341469 α      in ANC's #3, #2, #7, ...

........................................................................
.............................. CYCLE   34 ..............................
........................................................................

 iter      E             dE          RMSdq      gap      omega  full diag
   1    -71.7170266 -0.717170E+02  0.155E-02    3.37       0.0  T
   2    -71.7170266 -0.277889E-08  0.912E-03    3.37       2.3  T
   3    -71.7170266  0.123322E-08  0.423E-04    3.37      50.4  T
   4    -71.7170266 -0.330691E-08  0.196E-04    3.37     108.8  T
     SCC iter.                  ...        0 min,  0.008 sec
     gradient                   ...        0 min,  0.019 sec
 * total energy  :   -71.2396512 Eh     change       -0.5329816E-05 Eh
   gradient norm :     0.0003923 Eh/α   predicted    -0.1797777E-05 ( -66.27%)
   displ. norm   :     0.0443284 α      lambda       -0.4263309E-05
   maximum displ.:     0.0402943 α      in ANC's #3, #2, #7, ...

........................................................................
.............................. CYCLE   35 ..............................
........................................................................

 iter      E             dE          RMSdq      gap      omega  full diag
   1    -71.7170417 -0.717170E+02  0.184E-02    3.37       0.0  T
   2    -71.7170417 -0.385225E-08  0.108E-02    3.37       2.0  T
   3    -71.7170417  0.170957E-08  0.478E-04    3.37      44.6  T
   4    -71.7170417 -0.457719E-08  0.227E-04    3.37      94.1  T
     SCC iter.                  ...        0 min,  0.008 sec
     gradient                   ...        0 min,  0.021 sec
 * total energy  :   -71.2396574 Eh     change       -0.6199030E-05 Eh
   gradient norm :     0.0003870 Eh/α   predicted    -0.2134825E-05 ( -65.56%)
   displ. norm   :     0.0482872 α      lambda       -0.4614078E-05
   maximum displ.:     0.0446330 α      in ANC's #3, #2, #7, ...

........................................................................
.............................. CYCLE   36 ..............................
........................................................................

 iter      E             dE          RMSdq      gap      omega  full diag
   1    -71.7170685 -0.717171E+02  0.201E-02    3.36       0.0  T
   2    -71.7170685 -0.441300E-08  0.118E-02    3.36       1.8  T
   3    -71.7170685  0.435250E-09  0.456E-04    3.36      46.7  T
   4    -71.7170685 -0.368398E-08  0.251E-04    3.36      84.9  T
     SCC iter.                  ...        0 min,  0.010 sec
     gradient                   ...        0 min,  0.020 sec
 * total energy  :   -71.2396642 Eh     change       -0.6806753E-05 Eh
   gradient norm :     0.0003502 Eh/α   predicted    -0.2312342E-05 ( -66.03%)
   displ. norm   :     0.0499459 α      lambda       -0.4791476E-05
   maximum displ.:     0.0469724 α      in ANC's #3, #2, #7, ...

........................................................................
.............................. CYCLE   37 ..............................
........................................................................

 iter      E             dE          RMSdq      gap      omega  full diag
   1    -71.7171013 -0.717171E+02  0.208E-02    3.36       0.0  T
   2    -71.7171013 -0.474340E-08  0.122E-02    3.36       1.7  T
   3    -71.7171013  0.970218E-09  0.490E-04    3.36      43.5  T
   4    -71.7171013 -0.446455E-08  0.258E-04    3.36      82.7  T
     SCC iter.                  ...        0 min,  0.009 sec
     gradient                   ...        0 min,  0.020 sec
 * total energy  :   -71.2396713 Eh     change       -0.7125082E-05 Eh
   gradient norm :     0.0003084 Eh/α   predicted    -0.2401898E-05 ( -66.29%)
   displ. norm   :     0.0501903 α      lambda       -0.4926114E-05
   maximum displ.:     0.0480574 α      in ANC's #3, #2, #7, ...

........................................................................
.............................. CYCLE   38 ..............................
........................................................................

 iter      E             dE          RMSdq      gap      omega  full diag
   1    -71.7171359 -0.717171E+02  0.209E-02    3.35       0.0  T
   2    -71.7171359 -0.452737E-08  0.123E-02    3.35       1.7  T
   3    -71.7171359  0.625562E-09  0.470E-04    3.35      45.4  T
   4    -71.7171360 -0.411060E-08  0.266E-04    3.35      80.3  T
     SCC iter.                  ...        0 min,  0.008 sec
     gradient                   ...        0 min,  0.021 sec
 * total energy  :   -71.2396787 Eh     change       -0.7351562E-05 Eh
   gradient norm :     0.0002631 Eh/α   predicted    -0.2469836E-05 ( -66.40%)
   displ. norm   :     0.0501297 α      lambda       -0.5106688E-05
   maximum displ.:     0.0487552 α      in ANC's #3, #2, #7, ...

........................................................................
.............................. CYCLE   39 ..............................
........................................................................

 iter      E             dE          RMSdq      gap      omega  full diag
   1    -71.7171667 -0.717172E+02  0.209E-02    3.35       0.0  T
   2    -71.7171667 -0.438226E-08  0.123E-02    3.35       1.7  T
   3    -71.7171667 -0.540012E-10  0.435E-04    3.35      49.0  T
   4    -71.7171667 -0.332435E-08  0.267E-04    3.35      80.0  T
     SCC iter.                  ...        0 min,  0.010 sec
     gradient                   ...        0 min,  0.020 sec
 * total energy  :   -71.2396863 Eh     change       -0.7602477E-05 Eh
   gradient norm :     0.0002289 Eh/α   predicted    -0.2557513E-05 ( -66.36%)
   displ. norm   :     0.0503652 α      lambda       -0.5317094E-05
   maximum displ.:     0.0494889 α      in ANC's #3, #7, #2, ...

........................................................................
.............................. CYCLE   40 ..............................
........................................................................

 iter      E             dE          RMSdq      gap      omega  full diag
   1    -71.7171943 -0.717172E+02  0.210E-02    3.34       0.0  T
   2    -71.7171943 -0.430467E-08  0.123E-02    3.34       1.7  T
   3    -71.7171943 -0.645954E-09  0.415E-04    3.34      51.3  T
   4    -71.7171943 -0.270876E-08  0.272E-04    3.34      78.5  T
     SCC iter.                  ...        0 min,  0.008 sec
     gradient                   ...        0 min,  0.021 sec
 * total energy  :   -71.2396942 Eh     change       -0.7906015E-05 Eh
   gradient norm :     0.0002121 Eh/α   predicted    -0.2662524E-05 ( -66.32%)
   displ. norm   :     0.0522270 α      lambda       -0.5660962E-05
   maximum displ.:     0.0514972 α      in ANC's #3, #7, #20, ...

........................................................................
.............................. CYCLE   41 ..............................
........................................................................

 iter      E             dE          RMSdq      gap      omega  full diag
   1    -71.7172134 -0.717172E+02  0.217E-02    3.34       0.0  T
   2    -71.7172134 -0.452941E-08  0.128E-02    3.34       1.7  T
   3    -71.7172134 -0.956319E-09  0.406E-04    3.34      52.5  T
   4    -71.7172134 -0.251208E-08  0.273E-04    3.34      78.0  T
     SCC iter.                  ...        0 min,  0.009 sec
     gradient                   ...        0 min,  0.020 sec
 * total energy  :   -71.2397026 Eh     change       -0.8405552E-05 Eh
   gradient norm :     0.0002252 Eh/α   predicted    -0.2834936E-05 ( -66.27%)
   displ. norm   :     0.0538684 α      lambda       -0.5919617E-05
   maximum displ.:     0.0529871 α      in ANC's #3, #7, #2, ...

........................................................................
.............................. CYCLE   42 ..............................
........................................................................

 iter      E             dE          RMSdq      gap      omega  full diag
   1    -71.7172247 -0.717172E+02  0.224E-02    3.33       0.0  T
   2    -71.7172247 -0.487388E-08  0.132E-02    3.33       1.6  T
   3    -71.7172247 -0.560931E-09  0.440E-04    3.33      48.4  T
   4    -71.7172247 -0.316329E-08  0.280E-04    3.33      76.2  T
     SCC iter.                  ...        0 min,  0.010 sec
     gradient                   ...        0 min,  0.019 sec
 * total energy  :   -71.2397114 Eh     change       -0.8758283E-05 Eh
   gradient norm :     0.0002622 Eh/α   predicted    -0.2964763E-05 ( -66.15%)
   displ. norm   :     0.0554574 α      lambda       -0.6064884E-05
   maximum displ.:     0.0541726 α      in ANC's #3, #2, #7, ...
 * RMSD in coord.:     0.1724839 α      energy gain  -0.1137336E-03 Eh

generating ANC from exact Hessian ...
Using Lindh-Hessian (1995)
 Shifting diagonal of input Hessian by   8.322226216717868E-003
 Lowest  eigenvalues of input Hessian
    0.000000    0.000000    0.000000    0.000000    0.000000    0.000000
    0.010000    0.010133    0.010191    0.016766    0.016889    0.017283
    0.018216    0.022056    0.022196    0.026118    0.027536    0.030389
 Highest eigenvalues
    1.810211    1.816146    1.965360    2.006573    2.021463    2.040480
 

........................................................................
.............................. CYCLE   43 ..............................
........................................................................

 iter      E             dE          RMSdq      gap      omega  full diag
   1    -71.7172171 -0.717172E+02  0.230E-02    3.33       0.0  T
   2    -71.7172171 -0.537594E-08  0.136E-02    3.33       1.6  T
   3    -71.7172171  0.314998E-09  0.489E-04    3.33      43.6  T
   4    -71.7172171 -0.442964E-08  0.292E-04    3.33      73.1  T
     SCC iter.                  ...        0 min,  0.008 sec
     gradient                   ...        0 min,  0.021 sec
 * total energy  :   -71.2397203 Eh     change       -0.8934634E-05 Eh
   gradient norm :     0.0003038 Eh/α   predicted     0.0000000E+00 (-100.00%)
   displ. norm   :     0.0243764 α      lambda       -0.8917290E-07
   maximum displ.:     0.0230165 α      in ANC's #3, #2, #1, ...

........................................................................
.............................. CYCLE   44 ..............................
........................................................................

 iter      E             dE          RMSdq      gap      omega  full diag
   1    -71.7170680 -0.717171E+02  0.103E-02    3.33       0.0  T
   2    -71.7170680 -0.271932E-08  0.609E-03    3.33       3.5  T
   3    -71.7170680  0.379158E-08  0.597E-04    3.33      35.7  T
   4    -71.7170680 -0.592448E-08  0.250E-04    3.33      85.4  T
     SCC iter.                  ...        0 min,  0.009 sec
     gradient                   ...        0 min,  0.020 sec
 * total energy  :   -71.2397243 Eh     change       -0.3992697E-05 Eh
   gradient norm :     0.0002091 Eh/α   predicted    -0.1409253E-05 ( -64.70%)
   displ. norm   :     0.0313818 α      lambda       -0.3334274E-05
   maximum displ.:     0.0273564 α      in ANC's #3, #2, #1, ...

........................................................................
.............................. CYCLE   45 ..............................
........................................................................

 iter      E             dE          RMSdq      gap      omega  full diag
   1    -71.7170122 -0.717170E+02  0.134E-02    3.32       0.0  T
   2    -71.7170122 -0.479584E-08  0.787E-03    3.32       2.7  T
   3    -71.7170122  0.113969E-07  0.936E-04    3.32      22.8  T
   4    -71.7170123 -0.157465E-07  0.319E-04    3.32      66.9  T
     SCC iter.                  ...        0 min,  0.009 sec
     gradient                   ...        0 min,  0.020 sec
 * total energy  :   -71.2397290 Eh     change       -0.4726914E-05 Eh
   gradient norm :     0.0002129 Eh/α   predicted    -0.1668360E-05 ( -64.71%)
   displ. norm   :     0.0401003 α      lambda       -0.3829019E-05
   maximum displ.:     0.0338348 α      in ANC's #3, #2, #1, ...

........................................................................
.............................. CYCLE   46 ..............................
........................................................................

 iter      E             dE          RMSdq      gap      omega  full diag
   1    -71.7170529 -0.717171E+02  0.165E-02    3.32       0.0  T
   2    -71.7170529 -0.527038E-08  0.973E-03    3.32       2.2  T
   3    -71.7170529  0.803858E-08  0.817E-04    3.32      26.1  T
   4    -71.7170529 -0.124870E-07  0.314E-04    3.32      67.9  T
     SCC iter.                  ...        0 min,  0.008 sec
     gradient                   ...        0 min,  0.019 sec
 * total energy  :   -71.2397345 Eh     change       -0.5445051E-05 Eh
   gradient norm :     0.0002329 Eh/α   predicted    -0.1916218E-05 ( -64.81%)
   displ. norm   :     0.0422617 α      lambda       -0.3720928E-05
   maximum displ.:     0.0358934 α      in ANC's #3, #2, #1, ...

........................................................................
.............................. CYCLE   47 ..............................
........................................................................

 iter      E             dE          RMSdq      gap      omega  full diag
   1    -71.7170397 -0.717170E+02  0.174E-02    3.32       0.0  T
   2    -71.7170397 -0.495504E-08  0.102E-02    3.32       2.1  T
   3    -71.7170397  0.374854E-08  0.648E-04    3.32      32.9  T
   4    -71.7170397 -0.813685E-08  0.336E-04    3.32      63.5  T
     SCC iter.                  ...        0 min,  0.009 sec
     gradient                   ...        0 min,  0.021 sec
 * total energy  :   -71.2397397 Eh     change       -0.5209985E-05 Eh
   gradient norm :     0.0001948 Eh/α   predicted    -0.1865903E-05 ( -64.19%)
   displ. norm   :     0.0391823 α      lambda       -0.3228162E-05
   maximum displ.:     0.0343194 α      in ANC's #3, #2, #1, ...

........................................................................
.............................. CYCLE   48 ..............................
........................................................................

 iter      E             dE          RMSdq      gap      omega  full diag
   1    -71.7170467 -0.717170E+02  0.161E-02    3.31       0.0  T
   2    -71.7170467 -0.401238E-08  0.948E-03    3.31       2.2  T
   3    -71.7170467  0.286988E-08  0.574E-04    3.31      37.1  T
   4    -71.7170467 -0.654765E-08  0.312E-04    3.31      68.2  T
     SCC iter.                  ...        0 min,  0.008 sec
     gradient                   ...        0 min,  0.021 sec
 * total energy  :   -71.2397441 Eh     change       -0.4413489E-05 Eh
   gradient norm :     0.0001658 Eh/α   predicted    -0.1616011E-05 ( -63.38%)
   displ. norm   :     0.0303182 α      lambda       -0.2426136E-05
   maximum displ.:     0.0282776 α      in ANC's #3, #2, #7, ...

........................................................................
.............................. CYCLE   49 ..............................
........................................................................

 iter      E             dE          RMSdq      gap      omega  full diag
   1    -71.7170685 -0.717171E+02  0.126E-02    3.31       0.0  T
   2    -71.7170685 -0.223719E-08  0.741E-03    3.31       2.9  T
   3    -71.7170685  0.652435E-09  0.397E-04    3.31      53.8  T
   4    -71.7170685 -0.273059E-08  0.244E-04    3.31      87.5  T
     SCC iter.                  ...        0 min,  0.010 sec
     gradient                   ...        0 min,  0.020 sec
 * total energy  :   -71.2397475 Eh     change       -0.3451891E-05 Eh
   gradient norm :     0.0001449 Eh/α   predicted    -0.1214175E-05 ( -64.83%)
   displ. norm   :     0.0229902 α      lambda       -0.1895655E-05
   maximum displ.:     0.0226554 α      in ANC's #3, #2, #7, ...

........................................................................
.............................. CYCLE   50 ..............................
........................................................................

 iter      E             dE          RMSdq      gap      omega  full diag
   1    -71.7170698 -0.717171E+02  0.956E-03    3.31       0.0  T
   2    -71.7170698 -0.118573E-08  0.562E-03    3.31       3.8  T
   3    -71.7170698  0.627125E-09  0.301E-04    3.31      70.9  T
   4    -71.7170698 -0.173668E-08  0.175E-04    3.31     122.0  T
     SCC iter.                  ...        0 min,  0.008 sec
     gradient                   ...        0 min,  0.021 sec
 * total energy  :   -71.2397503 Eh     change       -0.2783556E-05 Eh
   gradient norm :     0.0001407 Eh/α   predicted    -0.9491623E-06 ( -65.90%)
   displ. norm   :     0.0203145 α      lambda       -0.1736283E-05
   maximum displ.:     0.0200497 α      in ANC's #3, #2, #20, ...

........................................................................
.............................. CYCLE   51 ..............................
........................................................................

 iter      E             dE          RMSdq      gap      omega  full diag
   1    -71.7170559 -0.717171E+02  0.846E-03    3.31       0.0  T
   2    -71.7170559 -0.881116E-09  0.497E-03    3.31       4.3  T
   3    -71.7170559  0.492548E-09  0.265E-04    3.31      80.6  T
   4    -71.7170559 -0.126566E-08  0.141E-04    3.31     151.6  T
     SCC iter.                  ...        0 min,  0.009 sec
     gradient                   ...        0 min,  0.020 sec
 * total energy  :   -71.2397529 Eh     change       -0.2584018E-05 Eh
   gradient norm :     0.0001368 Eh/α   predicted    -0.8765978E-06 ( -66.08%)
   displ. norm   :     0.0220605 α      lambda       -0.1862659E-05
   maximum displ.:     0.0206407 α      in ANC's #3, #2, #1, ...

........................................................................
.............................. CYCLE   52 ..............................
........................................................................

 iter      E             dE          RMSdq      gap      omega  full diag
   1    -71.7170482 -0.717170E+02  0.916E-03    3.31       0.0  T
   2    -71.7170482 -0.112186E-08  0.539E-03    3.31       4.0  T
   3    -71.7170482  0.953577E-09  0.319E-04    3.31      66.8  T
   4    -71.7170482 -0.190209E-08  0.148E-04    3.31     144.1  T
     SCC iter.                  ...        0 min,  0.010 sec
     gradient                   ...        0 min,  0.019 sec
 * total energy  :   -71.2397556 Eh     change       -0.2727560E-05 Eh
   gradient norm :     0.0001264 Eh/α   predicted    -0.9316169E-06 ( -65.84%)
   displ. norm   :     0.0260072 α      lambda       -0.2050813E-05
   maximum displ.:     0.0231277 α      in ANC's #3, #2, #1, ...

........................................................................
.............................. CYCLE   53 ..............................
........................................................................

 iter      E             dE          RMSdq      gap      omega  full diag
   1    -71.7170372 -0.717170E+02  0.108E-02    3.30       0.0  T
   2    -71.7170372 -0.164292E-08  0.633E-03    3.30       3.4  T
   3    -71.7170372  0.143980E-08  0.376E-04    3.30      56.7  T
   4    -71.7170372 -0.279951E-08  0.174E-04    3.30     122.4  T
     SCC iter.                  ...        0 min,  0.008 sec
     gradient                   ...        0 min,  0.020 sec
 * total energy  :   -71.2397586 Eh     change       -0.2954483E-05 Eh
   gradient norm :     0.0001176 Eh/α   predicted    -0.1026431E-05 ( -65.26%)
   displ. norm   :     0.0287325 α      lambda       -0.2067590E-05
   maximum displ.:     0.0251890 α      in ANC's #3, #2, #1, ...

........................................................................
.............................. CYCLE   54 ..............................
........................................................................

 iter      E             dE          RMSdq      gap      omega  full diag
   1    -71.7170246 -0.717170E+02  0.119E-02    3.30       0.0  T
   2    -71.7170246 -0.202022E-08  0.699E-03    3.30       3.0  T
   3    -71.7170246  0.157813E-08  0.398E-04    3.30      53.5  T
   4    -71.7170246 -0.326683E-08  0.197E-04    3.30     108.3  T
     SCC iter.                  ...        0 min,  0.008 sec
     gradient                   ...        0 min,  0.020 sec
 * total energy  :   -71.2397615 Eh     change       -0.2937975E-05 Eh
   gradient norm :     0.0001094 Eh/α   predicted    -0.1035083E-05 ( -64.77%)
   displ. norm   :     0.0283403 α      lambda       -0.1844520E-05
   maximum displ.:     0.0250207 α      in ANC's #3, #2, #1, ...

........................................................................
.............................. CYCLE   55 ..............................
........................................................................

 iter      E             dE          RMSdq      gap      omega  full diag
   1    -71.7170117 -0.717170E+02  0.117E-02    3.30       0.0  T
   2    -71.7170117 -0.204069E-08  0.688E-03    3.30       3.1  T
   3    -71.7170117  0.207014E-08  0.425E-04    3.30      50.1  T
   4    -71.7170117 -0.384446E-08  0.204E-04    3.30     104.7  T
     SCC iter.                  ...        0 min,  0.008 sec
     gradient                   ...        0 min,  0.019 sec
 * total energy  :   -71.2397641 Eh     change       -0.2611887E-05 Eh
   gradient norm :     0.0001035 Eh/α   predicted    -0.9229319E-06 ( -64.66%)
   displ. norm   :     0.0239034 α      lambda       -0.1428323E-05
   maximum displ.:     0.0218915 α      in ANC's #3, #2, #1, ...

........................................................................
.............................. CYCLE   56 ..............................
........................................................................

 iter      E             dE          RMSdq      gap      omega  full diag
   1    -71.7170016 -0.717170E+02  0.988E-03    3.30       0.0  T
   2    -71.7170016 -0.139769E-08  0.581E-03    3.30       3.7  T
   3    -71.7170016  0.105300E-08  0.345E-04    3.30      61.9  T
   4    -71.7170016 -0.234425E-08  0.184E-04    3.30     115.9  T
     SCC iter.                  ...        0 min,  0.008 sec
     gradient                   ...        0 min,  0.019 sec
 * total energy  :   -71.2397662 Eh     change       -0.2050973E-05 Eh
   gradient norm :     0.0000981 Eh/α   predicted    -0.7172761E-06 ( -65.03%)
   displ. norm   :     0.0192593 α      lambda       -0.1104627E-05
   maximum displ.:     0.0183530 α      in ANC's #3, #2, #1, ...

........................................................................
.............................. CYCLE   57 ..............................
........................................................................

 iter      E             dE          RMSdq      gap      omega  full diag
   1    -71.7169996 -0.717170E+02  0.799E-03    3.30       0.0  T
   2    -71.7169996 -0.919712E-09  0.470E-03    3.30       4.5  T
   3    -71.7169996  0.683414E-09  0.284E-04    3.30      75.0  T
   4    -71.7169996 -0.156621E-08  0.156E-04    3.30     136.3  T
     SCC iter.                  ...        0 min,  0.008 sec
     gradient                   ...        0 min,  0.020 sec
 * total energy  :   -71.2397678 Eh     change       -0.1606758E-05 Eh
   gradient norm :     0.0000940 Eh/α   predicted    -0.5578699E-06 ( -65.28%)
   displ. norm   :     0.0156092 α      lambda       -0.8874728E-06
   maximum displ.:     0.0154104 α      in ANC's #3, #2, #20, ...

........................................................................
.............................. CYCLE   58 ..............................
........................................................................

 iter      E             dE          RMSdq      gap      omega  full diag
   1    -71.7169942 -0.717170E+02  0.649E-03    3.29       0.0  T
   2    -71.7169942 -0.590902E-09  0.382E-03    3.29       5.6  T
   3    -71.7169942  0.521950E-09  0.238E-04    3.29      89.8  T
   4    -71.7169942 -0.110806E-08  0.129E-04    3.29     165.6  T
     SCC iter.                  ...        0 min,  0.008 sec
     gradient                   ...        0 min,  0.020 sec
 * total energy  :   -71.2397691 Eh     change       -0.1310861E-05 Eh
   gradient norm :     0.0000903 Eh/α   predicted    -0.4495317E-06 ( -65.71%)
   displ. norm   :     0.0139651 α      lambda       -0.8000765E-06
   maximum displ.:     0.0138845 α      in ANC's #3, #20, #2, ...

........................................................................
.............................. CYCLE   59 ..............................
........................................................................

 iter      E             dE          RMSdq      gap      omega  full diag
   1    -71.7169933 -0.717170E+02  0.583E-03    3.29       0.0  T
   2    -71.7169933 -0.439201E-09  0.343E-03    3.29       6.2  T
   3    -71.7169933  0.194248E-09  0.186E-04    3.29     114.9  T
   4    -71.7169933 -0.617362E-09  0.111E-04    3.29     192.9  T
     SCC iter.                  ...        0 min,  0.008 sec
     gradient                   ...        0 min,  0.019 sec
 * total energy  :   -71.2397703 Eh     change       -0.1171943E-05 Eh
   gradient norm :     0.0000862 Eh/α   predicted    -0.4029291E-06 ( -65.62%)
   displ. norm   :     0.0138446 α      lambda       -0.7684216E-06
   maximum displ.:     0.0134612 α      in ANC's #3, #2, #20, ...

........................................................................
.............................. CYCLE   60 ..............................
........................................................................

 iter      E             dE          RMSdq      gap      omega  full diag
   1    -71.7169871 -0.717170E+02  0.574E-03    3.29       0.0  T
   2    -71.7169871 -0.452175E-09  0.338E-03    3.29       6.3  T
   3    -71.7169871  0.340393E-09  0.196E-04    3.29     108.9  T
   4    -71.7169871 -0.742872E-09  0.102E-04    3.29     209.1  T
     SCC iter.                  ...        0 min,  0.009 sec
     gradient                   ...        0 min,  0.019 sec
 * total energy  :   -71.2397714 Eh     change       -0.1124064E-05 Eh
   gradient norm :     0.0000814 Eh/α   predicted    -0.3850438E-06 ( -65.75%)
   displ. norm   :     0.0147957 α      lambda       -0.7703294E-06
   maximum displ.:     0.0139087 α      in ANC's #3, #2, #20, ...

........................................................................
.............................. CYCLE   61 ..............................
........................................................................

 iter      E             dE          RMSdq      gap      omega  full diag
   1    -71.7169813 -0.717170E+02  0.613E-03    3.29       0.0  T
   2    -71.7169813 -0.523457E-09  0.360E-03    3.29       5.9  T
   3    -71.7169813  0.376460E-09  0.210E-04    3.29     101.6  T
   4    -71.7169813 -0.840060E-09  0.109E-04    3.29     196.3  T
     SCC iter.                  ...        0 min,  0.009 sec
     gradient                   ...        0 min,  0.019 sec
 * total energy  :   -71.2397725 Eh     change       -0.1109976E-05 Eh
   gradient norm :     0.0000770 Eh/α   predicted    -0.3853044E-06 ( -65.29%)
   displ. norm   :     0.0157186 α      lambda       -0.7418411E-06
   maximum displ.:     0.0144120 α      in ANC's #3, #2, #1, ...

........................................................................
.............................. CYCLE   62 ..............................
........................................................................

 iter      E             dE          RMSdq      gap      omega  full diag
   1    -71.7169751 -0.717170E+02  0.653E-03    3.29       0.0  T
   2    -71.7169751 -0.609162E-09  0.384E-03    3.29       5.6  T
   3    -71.7169751  0.587448E-09  0.230E-04    3.29      92.5  T
   4    -71.7169751 -0.112080E-08  0.113E-04    3.29     189.0  T
     SCC iter.                  ...        0 min,  0.009 sec
     gradient                   ...        0 min,  0.018 sec
 * total energy  :   -71.2397736 Eh     change       -0.1069373E-05 Eh
   gradient norm :     0.0000710 Eh/α   predicted    -0.3810023E-06 ( -64.37%)
   displ. norm   :     0.0154970 α      lambda       -0.6743385E-06
   maximum displ.:     0.0141835 α      in ANC's #3, #2, #1, ...

........................................................................
.............................. CYCLE   63 ..............................
........................................................................

 iter      E             dE          RMSdq      gap      omega  full diag
   1    -71.7169674 -0.717170E+02  0.641E-03    3.29       0.0  T
   2    -71.7169674 -0.638039E-09  0.377E-03    3.29       5.7  T
   3    -71.7169674  0.638408E-09  0.242E-04    3.29      88.1  T
   4    -71.7169674 -0.119567E-08  0.117E-04    3.29     183.0  T
     SCC iter.                  ...        0 min,  0.009 sec
     gradient                   ...        0 min,  0.019 sec
 * total energy  :   -71.2397745 Eh     change       -0.9491240E-06 Eh
   gradient norm :     0.0000661 Eh/α   predicted    -0.3375190E-06 ( -64.44%)
   displ. norm   :     0.0132075 α      lambda       -0.5239280E-06
   maximum displ.:     0.0124881 α      in ANC's #3, #2, #1, ...

........................................................................
.............................. CYCLE   64 ..............................
........................................................................

 iter      E             dE          RMSdq      gap      omega  full diag
   1    -71.7169616 -0.717170E+02  0.549E-03    3.29       0.0  T
   2    -71.7169616 -0.450967E-09  0.323E-03    3.29       6.6  T
   3    -71.7169616  0.243290E-09  0.195E-04    3.29     109.1  T
   4    -71.7169616 -0.667015E-09  0.110E-04    3.29     193.5  T
     SCC iter.                  ...        0 min,  0.008 sec
     gradient                   ...        0 min,  0.020 sec
 * total energy  :   -71.2397753 Eh     change       -0.7530336E-06 Eh
   gradient norm :     0.0000650 Eh/α   predicted    -0.2637769E-06 ( -64.97%)
   displ. norm   :     0.0114456 α      lambda       -0.4273238E-06
   maximum displ.:     0.0110176 α      in ANC's #3, #2, #1, ...

........................................................................
.............................. CYCLE   65 ..............................
........................................................................

 iter      E             dE          RMSdq      gap      omega  full diag
   1    -71.7169564 -0.717170E+02  0.476E-03    3.28       0.0  T
   2    -71.7169564 -0.345409E-09  0.280E-03    3.28       7.6  T
   3    -71.7169564  0.361325E-09  0.185E-04    3.28     115.4  T
[...]
         ::.................................................::
         :: SCC energy               -71.716475988854 Eh    ::
         :: -> isotropic ES            0.031901992369 Eh    ::
         :: -> anisotropic ES          0.002884988531 Eh    ::
         :: -> anisotropic XC          0.008862120505 Eh    ::
         :: -> dispersion             -0.050624926473 Eh    ::
         :: -> Gsolv                  -0.004465522998 Eh    ::
         ::    -> Gelec               -0.003803763023 Eh    ::
         ::    -> Gsasa               -0.001715925127 Eh    ::
         ::    -> Ghb                 -0.000026594546 Eh    ::
         ::    -> Gshift               0.001080759698 Eh    ::
         :: repulsion energy           0.476699130542 Eh    ::
         :: add. restraining           0.000000000000 Eh    ::
         :: total charge              -0.000000000000 e     ::
         :::::::::::::::::::::::::::::::::::::::::::::::::::::

           ------------------------------------------------- 
          |                Numerical Hessian                |
           ------------------------------------------------- 
step length          :   0.00500
SCC accuracy         :   0.30000
Hessian scale factor :   1.00000
frozen atoms in %    :   0.00000    0
RMS gradient         :   0.00005
estimated CPU  time      0.11 min
estimated wall time      0.11 min

writing file <hessian>.

 projected vibrational frequencies (cm⁻¹)
eigval :       -0.00     0.00     0.00     0.00     0.00     0.00
eigval :       17.41    27.41    28.87    64.45    68.69    72.09
eigval :       72.10    93.51    97.13   122.10   170.45   172.16
eigval :      173.06   173.11   178.76   179.90   184.11   187.34
eigval :      193.88   226.68   287.57   288.09   312.91   331.34
eigval :      335.38   340.47   356.85   357.06   360.15   380.91
eigval :      521.95   525.33   525.62   540.58   542.04   594.96
eigval :      599.96   630.43   635.57   674.31   683.84   693.19
eigval :      775.42   819.20   823.24   894.47   996.74  1072.23
eigval :     1184.04  1245.11  1279.52  1282.20  1308.56  1319.24
eigval :     1319.97  1405.09  1483.50  1487.85  1505.17  1517.57
           -------------------------------------------------
          |                Property Printout                |
           -------------------------------------------------

    * Orbital Energies and Occupations

         #    Occupation            Energy/Eh            Energy/eV
      -------------------------------------------------------------
         1        2.0000           -1.0839815             -29.4966
       ...           ...                  ...                  ...
        47        2.0000           -0.4505135             -12.2591
        48        2.0000           -0.4486549             -12.2085
        49        2.0000           -0.4484170             -12.2020
        50        2.0000           -0.4480262             -12.1914
        51        2.0000           -0.4478710             -12.1872
        52        2.0000           -0.4451156             -12.1122
        53        2.0000           -0.4446370             -12.0992
        54        2.0000           -0.4415389             -12.0149
        55        2.0000           -0.4413060             -12.0085
        56        2.0000           -0.4260978             -11.5947
        57        2.0000           -0.4220064             -11.4834
        58        2.0000           -0.4171648             -11.3516
        59        2.0000           -0.4170586             -11.3487 (HOMO)
        60                         -0.2964432              -8.0666 (LUMO)
        61                         -0.2868272              -7.8050
        62                         -0.2864411              -7.7945
        63                         -0.2819875              -7.6733
        64                         -0.2029121              -5.5215
        65                         -0.1993372              -5.4242
        66                         -0.1796271              -4.8879
        67                         -0.1795768              -4.8865
        68                         -0.1778478              -4.8395
        69                         -0.1723896              -4.6910
        70                         -0.1682326              -4.5778
       ...                                ...                  ...
       138                          0.5713865              15.5482
      -------------------------------------------------------------
                  HL-Gap            0.1206153 Eh            3.2821 eV
             Fermi-level           -0.3567509 Eh           -9.7077 eV

     #   Z          covCN         q      C6AA      α(0)
     1   6 C        3.058     0.008    27.776     8.643
     2   6 C        2.923     0.093    25.938     8.352
     3   6 C        2.955     0.081    26.200     8.396
     4   6 C        2.956     0.084    26.120     8.383
     5   6 C        2.955     0.081    26.200     8.396
     6   6 C        2.923     0.093    25.938     8.352
     7  17 Cl       1.001    -0.092   102.022    15.453
     8  17 Cl       1.024    -0.087   101.871    15.441
     9  17 Cl       1.028    -0.083   101.739    15.431
    10  17 Cl       1.024    -0.087   101.871    15.441
    11  17 Cl       1.001    -0.092   102.023    15.453
    12   6 C        3.058     0.008    27.776     8.643
    13   6 C        2.923     0.093    25.938     8.352
    14   6 C        2.955     0.081    26.200     8.396
    15   6 C        2.956     0.084    26.120     8.383
    16   6 C        2.955     0.081    26.200     8.396
    17   6 C        2.923     0.093    25.938     8.352
    18  17 Cl       1.001    -0.092   102.023    15.453
    19  17 Cl       1.024    -0.087   101.871    15.441
    20  17 Cl       1.028    -0.083   101.739    15.431
    21  17 Cl       1.024    -0.087   101.871    15.441
    22  17 Cl       1.001    -0.092   102.022    15.453

 Mol. C6AA /au·bohr⁶  :      26411.937175
 Mol. C8AA /au·bohr⁸  :     966606.296209
 Mol. α(0) /au        :        255.481813


Wiberg/Mayer (AO) data.
largest (>0.10) Wiberg bond orders for each atom

 ---------------------------------------------------------------------------
     #   Z sym  total        # sym  WBO       # sym  WBO       # sym  WBO
 ---------------------------------------------------------------------------
     1   6 C    3.986 --     6 C    1.357     2 C    1.357    12 C    1.008
     2   6 C    3.936 --     1 C    1.357     3 C    1.347    11 Cl   1.022
     3   6 C    3.937 --     4 C    1.348     2 C    1.347    10 Cl   1.024
     4   6 C    3.938 --     5 C    1.348     3 C    1.348     9 Cl   1.027
     5   6 C    3.937 --     4 C    1.348     6 C    1.347     8 Cl   1.024
     6   6 C    3.936 --     1 C    1.357     5 C    1.347     7 Cl   1.022
     7  17 Cl   1.174 --     6 C    1.022
     8  17 Cl   1.181 --     5 C    1.024
     9  17 Cl   1.186 --     4 C    1.027
    10  17 Cl   1.181 --     3 C    1.024
    11  17 Cl   1.174 --     2 C    1.022
    12   6 C    3.986 --    13 C    1.357    17 C    1.357     1 C    1.008
    13   6 C    3.936 --    12 C    1.357    14 C    1.347    22 Cl   1.022
    14   6 C    3.937 --    15 C    1.348    13 C    1.347    21 Cl   1.024
    15   6 C    3.938 --    14 C    1.348    16 C    1.348    20 Cl   1.027
    16   6 C    3.937 --    15 C    1.348    17 C    1.347    19 Cl   1.024
    17   6 C    3.936 --    12 C    1.357    16 C    1.347    18 Cl   1.022
    18  17 Cl   1.174 --    17 C    1.022
    19  17 Cl   1.181 --    16 C    1.024
    20  17 Cl   1.186 --    15 C    1.027
    21  17 Cl   1.181 --    14 C    1.024
    22  17 Cl   1.174 --    13 C    1.022
 ---------------------------------------------------------------------------

Topologies differ in total number of bonds
Writing topology from bond orders to xtbtopo.mol

molecular dipole:
                 x           y           z       tot (Debye)
 q only:       -0.000       0.000       0.001
   full:        0.000       0.000       0.000       0.001
molecular quadrupole (traceless):
                xx          xy          yy          xz          yz          zz
 q only:       -6.578       0.006       6.027       0.002      -0.000       0.551
  q+dip:       -1.567       0.002       2.257       0.001      -0.000      -0.690
   full:       -3.209       0.002       3.148       0.001      -0.000       0.061

           -------------------------------------------------
          |                Geometry Summary                 |
           -------------------------------------------------

      molecular mass/u    :      498.6582066
   center of mass at/Å    :        0.0000025       0.0000905      -0.0007018
  moments of inertia/u·Å² :        0.2187882E+04   0.5558190E+04   0.6101498E+04
rotational constants/cm⁻¹ :        0.7705001E-02   0.3032936E-02   0.2762868E-02

 * 22 selected distances

     #   Z          #   Z                                           value/Å
     1   6 C        2   6 C                                       1.3931468
     2   6 C        3   6 C                                       1.3938177
     3   6 C        4   6 C                                       1.3947667
     4   6 C        5   6 C                                       1.3947717
     1   6 C        6   6 C                                       1.3931275
     5   6 C        6   6 C                                       1.3938396
     6   6 C        7  17 Cl                                      1.7130964
     5   6 C        8  17 Cl                                      1.7131311
     4   6 C        9  17 Cl                                      1.7118405
     3   6 C       10  17 Cl                                      1.7131256
     2   6 C       11  17 Cl                                      1.7131066
    12   6 C       13   6 C                                       1.3931271 (min)
    13   6 C       14   6 C                                       1.3938404
    14   6 C       15   6 C                                       1.3947675
    15   6 C       16   6 C                                       1.3947707
    12   6 C       17   6 C                                       1.3931470
    16   6 C       17   6 C                                       1.3938173
    17   6 C       18  17 Cl                                      1.7131069
    16   6 C       19  17 Cl                                      1.7131223
    15   6 C       20  17 Cl                                      1.7118403
    14   6 C       21  17 Cl                                      1.7131330 (max)
    13   6 C       22  17 Cl                                      1.7130977

 * 2 distinct bonds (by element types)

   Z      Z             #   av. dist./Å        max./Å        min./Å
   6 C    6 C          12     1.3939117     1.3947717     1.3931271
   6 C   17 Cl         10     1.7128600     1.7131330     1.7118403

           -------------------------------------------------
          |               Frequency Printout                |
           -------------------------------------------------
 projected vibrational frequencies (cm⁻¹)
eigval :       -0.00     0.00     0.00     0.00     0.00     0.00
eigval :       17.41    27.41    28.87    64.45    68.69    72.09
eigval :       72.10    93.51    97.13   122.10   170.45   172.16
eigval :      173.06   173.11   178.76   179.90   184.11   187.34
eigval :      193.88   226.68   287.57   288.09   312.91   331.34
eigval :      335.38   340.47   356.85   357.06   360.15   380.91
eigval :      521.95   525.33   525.62   540.58   542.04   594.96
eigval :      599.96   630.43   635.57   674.31   683.84   693.19
eigval :      775.42   819.20   823.24   894.47   996.74  1072.23
eigval :     1184.04  1245.11  1279.52  1282.20  1308.56  1319.24
eigval :     1319.97  1405.09  1483.50  1487.85  1505.17  1517.57
 reduced masses (amu)
   1: 30.88   2: 31.80   3: 31.33   4: 30.16   5: 29.78   6: 29.94   7: 33.91   8: 33.28
   9: 33.46  10: 35.14  11: 35.12  12: 33.82  13: 34.24  14: 34.46  15: 34.76  16: 33.59
  17: 35.28  18: 35.26  19: 21.69  20: 26.21  21: 30.74  22: 31.56  23: 33.14  24: 28.53
  25: 32.12  26: 31.15  27: 32.35  28: 32.36  29: 32.61  30: 33.69  31: 13.83  32: 13.64
  33: 14.57  34: 34.45  35: 34.64  36: 13.80  37: 12.88  38: 21.21  39: 13.33  40: 12.33
  41: 12.33  42: 12.62  43: 13.10  44: 16.12  45: 17.53  46: 18.10  47: 14.30  48: 15.18
  49: 15.24  50: 15.00  51: 14.96  52: 13.61  53: 12.77  54: 12.61  55: 12.64  56: 12.38
  57: 12.02  58: 12.02  59: 12.11  60: 12.10  61: 12.09  62: 12.03  63: 12.01  64: 12.01
  65: 12.01  66: 12.02
 IR intensities (km·mol⁻¹)
   1:  0.00   2:  0.01   3:  0.01   4:  0.01   5:  0.01   6:  0.01   7:  0.00   8:  0.04
   9:  0.06  10:  0.00  11:  0.00  12:  0.19  13:  0.13  14:  0.15  15:  0.16  16:  0.00
  17:  0.00  18:  0.00  19:  0.05  20:  0.24  21:  0.13  22:  0.01  23:  0.56  24:  0.25
  25:  2.51  26:  0.00  27:  0.00  28:  0.11  29:  0.23  30:  0.00  31:  0.00  32:  0.01
  33:  0.32  34:  1.17  35:  0.00  36:  0.21  37:  0.11  38:  0.04  39:  0.00  40:  0.00
  41:  0.42  42:  0.01  43:  0.02  44:  0.06  45:  1.12  46:  0.00  47:  3.01  48:  1.54
  49: 18.17  50:  0.24  51:  0.19  52:  0.00  53: 15.91  54:  0.00  55: 16.03  56:  0.00
  57:  5.97  58:  1.40  59:246.09  60:130.32  61:233.20  62:  0.00  63:  0.12  64:  0.39
  65: 64.59  66:  0.00
 Raman intensities (Ä⁴*amu⁻¹)
   1:  0.00   2:  0.00   3:  0.00   4:  0.00   5:  0.00   6:  0.00   7:  0.00   8:  0.00
   9:  0.00  10:  0.00  11:  0.00  12:  0.00  13:  0.00  14:  0.00  15:  0.00  16:  0.00
  17:  0.00  18:  0.00  19:  0.00  20:  0.00  21:  0.00  22:  0.00  23:  0.00  24:  0.00
  25:  0.00  26:  0.00  27:  0.00  28:  0.00  29:  0.00  30:  0.00  31:  0.00  32:  0.00
  33:  0.00  34:  0.00  35:  0.00  36:  0.00  37:  0.00  38:  0.00  39:  0.00  40:  0.00
  41:  0.00  42:  0.00  43:  0.00  44:  0.00  45:  0.00  46:  0.00  47:  0.00  48:  0.00
  49:  0.00  50:  0.00  51:  0.00  52:  0.00  53:  0.00  54:  0.00  55:  0.00  56:  0.00
  57:  0.00  58:  0.00  59:  0.00  60:  0.00  61:  0.00  62:  0.00  63:  0.00  64:  0.00
  65:  0.00  66:  0.00
 output can be read by thermo (or use thermo option).
 writing <g98.out> molden fake output.
 recommended (thermochemical) frequency scaling factor: 1.0
           -------------------------------------------------
          |             Thermodynamic Functions             |
           -------------------------------------------------

Molecule has the following symmetry elements: 3*(C2) 
It seems to be the D2 point group
d2  symmetry found (for desy threshold:  0.10E+00) used in thermo

          ...................................................
          :                      SETUP                      :
          :.................................................:
          :  # frequencies                          60      :
          :  # imaginary freq.                       0      :
          :  linear?                             false      :
          :  only rotor calc.                    false      :
          :  symmetry                               d2      :
          :  rotational number                       4      :
          :  scaling factor                  1.0000000      :
          :  rotor cutoff                    0.0000000 cm⁻¹ :
          :  imag. cutoff                 -100.0000000 cm⁻¹ :
          :.................................................:

    mode    ω/cm⁻¹     T·S(HO)/kcal·mol⁻¹    T·S(FR)/kcal·mol⁻¹   T·S(vib)
   ------------------------------------------------------------------------
       1     17.41    -2.06024 (100.00%)    -1.36909 (  0.00%)    -2.06024
       2     27.41    -1.79136 (100.00%)    -1.23454 (  0.00%)    -1.79136
       3     28.87    -1.76073 (100.00%)    -1.21921 (  0.00%)    -1.76073
       4     64.45    -1.28687 (100.00%)    -0.98135 (  0.00%)    -1.28687
       5     68.69    -1.24939 (100.00%)    -0.96244 (  0.00%)    -1.24939
       6     72.09    -1.22110 (100.00%)    -0.94816 (  0.00%)    -1.22110
       7     72.10    -1.22098 (100.00%)    -0.94810 (  0.00%)    -1.22098
       8     93.51    -1.06893 (100.00%)    -0.87107 (  0.00%)    -1.06893
       9     97.13    -1.04681 (100.00%)    -0.85981 (  0.00%)    -1.04681
      10    122.10    -0.91440 (100.00%)    -0.79206 (  0.00%)    -0.91440
      11    170.45    -0.72465 (100.00%)    -0.69322 (  0.00%)    -0.72465
      12    172.16    -0.71906 (100.00%)    -0.69027 (  0.00%)    -0.71906
      13    173.06    -0.71615 (100.00%)    -0.68873 (  0.00%)    -0.71615
      14    173.11    -0.71599 (100.00%)    -0.68864 (  0.00%)    -0.71599
      15    178.76    -0.69808 (100.00%)    -0.67913 (  0.00%)    -0.69808
      16    179.90    -0.69452 (100.00%)    -0.67724 (  0.00%)    -0.69452
      17    184.11    -0.68167 (100.00%)    -0.67039 (  0.00%)    -0.68167
      18    187.34    -0.67202 (100.00%)    -0.66523 (  0.00%)    -0.67202
      19    193.88    -0.65306 (100.00%)    -0.65507 (  0.00%)    -0.65306
      20    226.68    -0.56799 (100.00%)    -0.60877 (  0.00%)    -0.56799
      21    287.57    -0.44371 (100.00%)    -0.53829 (  0.00%)    -0.44371
      22    288.09    -0.44280 (100.00%)    -0.53775 (  0.00%)    -0.44280
   ------------------------------------------------------------------------

   temp. (K)  partition function   enthalpy   heat capacity  entropy
                                   cal/mol     cal/K/mol   cal/K/mol   J/K/mol
 298.15  VIB  0.883E+10            12633.670     71.459     87.885
         ROT  0.520E+07              888.752      2.981     33.713
         INT  0.459E+17            13522.422     74.439    121.598
         TR   0.108E+29             1481.254      4.968     44.487
         TOT                       15003.6759    79.4076   166.0852   694.9004

       T/K    H(0)-H(T)+PV         H(T)/Eh          T*S/Eh         G(T)/Eh
   ------------------------------------------------------------------------
    298.15    0.239099E-01    0.103055E+00    0.789124E-01    0.241429E-01
   ------------------------------------------------------------------------

         :::::::::::::::::::::::::::::::::::::::::::::::::::::
         ::                  THERMODYNAMIC                  ::
         :::::::::::::::::::::::::::::::::::::::::::::::::::::
         :: total free energy         -71.215633934413 Eh   ::
         ::.................................................::
         :: total energy              -71.239776858372 Eh   ::
         :: zero point energy           0.079145473503 Eh   ::
         :: G(RRHO) w/o ZPVE           -0.055002549544 Eh   ::
         :: G(RRHO) contrib.            0.024142923959 Eh   ::
         :::::::::::::::::::::::::::::::::::::::::::::::::::::

optimized geometry written to: xtbopt.coord


           -------------------------------------------------
          | TOTAL ENERGY              -71.239776858372 Eh   |
          | TOTAL ENTHALPY            -71.136721505328 Eh   |
          | TOTAL FREE ENERGY         -71.215633934413 Eh   |
          | GRADIENT NORM               0.000050955950 Eh/α |
          | HOMO-LUMO GAP               3.282110274277 eV   |
           -------------------------------------------------

------------------------------------------------------------------------
 * finished run on 2025/04/05 at 09:21:16.162     
------------------------------------------------------------------------
 total:
 * wall-time:     0 d,  0 h,  0 min,  9.397 sec
 *  cpu-time:     0 d,  0 h,  0 min,  9.285 sec
 * ratio c/w:     0.988 speedup
 SCF:
 * wall-time:     0 d,  0 h,  0 min,  0.073 sec
 *  cpu-time:     0 d,  0 h,  0 min,  0.062 sec
 * ratio c/w:     0.843 speedup
 ANC optimizer:
 * wall-time:     0 d,  0 h,  0 min,  2.718 sec
 *  cpu-time:     0 d,  0 h,  0 min,  2.696 sec
 * ratio c/w:     0.992 speedup
 analytical hessian:
 * wall-time:     0 d,  0 h,  0 min,  6.538 sec
 *  cpu-time:     0 d,  0 h,  0 min,  6.510 sec
 * ratio c/w:     0.996 speedup

