
                                 *****************
                                 * O   R   C   A *
                                 *****************

                                            #,                                       
                                            ###                                      
                                            ####                                     
                                            #####                                    
                                            ######                                   
                                           ########,                                 
                                     ,,################,,,,,                         
                               ,,#################################,,                 
                          ,,##########################################,,             
                       ,#########################################, ''#####,          
                    ,#############################################,,   '####,        
                  ,##################################################,,,,####,       
                ,###########''''           ''''###############################       
              ,#####''   ,,,,##########,,,,          '''####'''          '####       
            ,##' ,,,,###########################,,,                        '##       
           ' ,,###''''                  '''############,,,                           
         ,,##''                                '''############,,,,        ,,,,,,###''
      ,#''                                            '''#######################'''  
     '                                                          ''''####''''         
             ,#######,   #######,   ,#######,      ##                                
            ,#'     '#,  ##    ##  ,#'     '#,    #''#        ,####,   ,####,        
            ##       ##  ##   ,#'  ##            #'  '#       #'       #'  '#        
            ##       ##  #######   ##           ,######,      #####,   #    #        
            '#,     ,#'  ##    ##  '#,     ,#' ,#      #,     #,   #   #,  ,#        
             '#######'   ##     ##  '#######'  #'      '#     '####' # '####'        



                #########################################################
                #                        -***-                          #
                #          Department of theory and spectroscopy        #
                #                                                       #
                #                      Frank Neese                      #
                #                                                       #
                #     Directorship, Architecture, Infrastructure        #
                #                    SHARK, DRIVERS                     #
                #        Core code/Algorithms in most modules           #
                #                                                       #
                #        Max Planck Institute fuer Kohlenforschung      #
                #                Kaiser Wilhelm Platz 1                 #
                #                 D-45470 Muelheim/Ruhr                 #
                #                      Germany                          #
                #                                                       #
                #                  All rights reserved                  #
                #                        -***-                          #
                #########################################################


                         Program Version 6.0.0  -   RELEASE  -


 With contributions from (in alphabetic order):
   Daniel Aravena         : Magnetic Suceptibility
   Michael Atanasov       : Ab Initio Ligand Field Theory (pilot matlab implementation)
   Alexander A. Auer      : GIAO ZORA, VPT2 properties, NMR spectrum
   Ute Becker             : All parallelization in ORCA, NUMFREQ, NUMCALC
   Giovanni Bistoni       : ED, misc. LED, open-shell LED, HFLD
   Martin Brehm           : Molecular dynamics
   Dmytro Bykov           : pre 5.0 version of the SCF Hessian
   Marcos Casanova-Páez   : Triplet and SCS-CIS(D). UHF-(DLPNO)-IP/EA/STEOM-CCSD. UHF-CVS-IP/STEOM-CCSD
   Vijay G. Chilkuri      : MRCI spin determinant printing, contributions to CSF-ICE
   Pauline Colinet        : FMM embedding
   Dipayan Datta          : RHF DLPNO-CCSD density
   Achintya Kumar Dutta   : EOM-CC, STEOM-CC
   Nicolas Foglia         : Exact transition moments, OPA infrastructure, MCD improvements
   Dmitry Ganyushin       : Spin-Orbit,Spin-Spin,Magnetic field MRCI
   Miquel Garcia          : C-PCM and meta-GGA Hessian, CCSD/C-PCM, Gaussian charge scheme
   Tiago L. C. Gouveia    : GS-ROHF, GS-ROCIS
   Yang Guo               : DLPNO-NEVPT2, F12-NEVPT2, CIM, IAO-localization
   Andreas Hansen         : Spin unrestricted coupled pair/coupled cluster methods
   Ingolf Harden          : AUTO-CI MPn and infrastructure 
   Benjamin Helmich-Paris : MC-RPA, TRAH-(SCF,CASSCF), AVAS, COSX integrals, SCF dyn. polar.
   Lee Huntington         : MR-EOM, pCC
   Robert Izsak           : Overlap fitted RIJCOSX, COSX-SCS-MP3, EOM
   Riya Kayal             : Wick's Theorem for AUTO-CI, AUTO-CI UHF-CCSDT
   Emily Kempfer          : AUTO-CI, RHF CISDT and CCSDT
   Christian Kollmar      : KDIIS, OOCD, Brueckner-CCSD(T), CCSD density, CASPT2, CASPT2-K, improved NEVPT2
   Axel Koslowski         : Symmetry handling
   Simone Kossmann        : Meta GGA functionals, TD-DFT gradient, OOMP2, (MP2 Hessian; deprecated post 5.0)
   Lucas Lang             : DCDCAS
   Marvin Lechner         : AUTO-CI (C++ implementation), FIC-MRCC
   Spencer Leger          : CASSCF response
   Dagmar Lenk            : GEPOL surface, SMD, ORCA-2-JSON
   Dimitrios Liakos       : Extrapolation schemes; Compound Job, initial MDCI parallelization
   Dimitrios Manganas     : Further ROCIS development; embedding schemes. LFT, Crystal Embedding
   Dimitrios Pantazis     : SARC Basis sets
   Anastasios Papadopoulos: AUTO-CI, single reference methods and gradients
   Taras Petrenko         : pre 6.0 DFT Hessian and TD-DFT gradient, (ASA, deprecated), ECA, 1-Electron XAS/XES, NRVS
   Peter Pinski           : DLPNO-MP2, DLPNO-MP2 Gradient
   Christoph Reimann      : Effective Core Potentials
   Marius Retegan         : Local ZFS, SOC
   Christoph Riplinger    : Optimizer, TS searches, QM/MM, DLPNO-CCSD(T), (RO)-DLPNO pert. Triples
   Michael Roemelt        : Original ROCIS implementation
   Masaaki Saitow         : Open-shell DLPNO-CCSD energy and density
   Barbara Sandhoefer     : DKH picture change effects
   Kantharuban Sivalingam : CASSCF convergence/infrastructure, NEVPT2 and variants, FIC-MRCI
   Bernardo de Souza      : ESD, SOC TD-DFT
   Georgi Stoychev        : AutoAux, RI-MP2 NMR, DLPNO-MP2 response, X2C
   Van Anh Tran           : RI-MP2 g-tensors
   Willem Van den Heuvel  : Paramagnetic NMR
   Zikuan Wang            : NOTCH, Electric field optimization 
   Frank Wennmohs         : Technical directorship and infrastructure
   Hang Xu                : AUTO-CI-Response properties 


 We gratefully acknowledge several colleagues who have allowed us to
 interface, adapt or use parts of their codes:
   Stefan Grimme, W. Hujo, H. Kruse, P. Pracht,  : VdW corrections, initial TS optimization,
                  C. Bannwarth, S. Ehlert,         DFT functionals, gCP, sTDA/sTD-DF
                  L. Wittmann, M. Mueller
   Ed Valeev, F. Pavosevic, A. Kumar             : LibInt (2-el integral package), F12 methods
   Garnet Chan, S. Sharma, J. Yang, R. Olivares  : DMRG
   Ulf Ekstrom                                   : XCFun DFT Library
   Mihaly Kallay                                 : mrcc  (arbitrary order and MRCC methods)
   Frank Weinhold                                : gennbo (NPA and NBO analysis)
   Simon Mueller                                 : openCOSMO-RS
   Christopher J. Cramer and Donald G. Truhlar   : smd solvation model
   Lars Goerigk                                  : TD-DFT with DH, B97 family of functionals
   V. Asgeirsson, H. Jonsson                     : NEB implementation
   FAccTs GmbH                                   : IRC, NEB, NEB-TS, DLPNO-Multilevel, CI-OPT
                                                   MM, QMMM, 2- and 3-layer-ONIOM, Crystal-QMMM,
                                                   LR-CPCM, SF, NACMEs, symmetry and pop. for TD-DFT,
                                                   nearIR, NL-DFT gradient (VV10), updates on ESD,
                                                   ML-optimized integration grids, MBIS, APM,
                                                   GOAT, DOCKER, SOLVATOR, interface openCOSMO-RS
   S Lehtola, MJT Oliveira, MAL Marques          : LibXC Library
   Liviu Ungur et al                             : ANISO software


 Your calculation uses the libint2 library for the computation of 2-el integrals
 For citations please refer to: http://libint.valeyev.net

 Your ORCA version has been built with support for libXC version: 6.2.2
 For citations please refer to: https://libxc.gitlab.io

 This ORCA versions uses:
   CBLAS   interface :  Fast vector & matrix operations
   LAPACKE interface :  Fast linear algebra routines
   SCALAPACK package :  Parallel linear algebra routines
   Shared memory     :  Shared parallel matrices
   BLAS/LAPACK       :  OpenBLAS 0.3.27  USE64BITINT DYNAMIC_ARCH NO_AFFINITY SkylakeX SINGLE_THREADED
        Core in use  :  SkylakeX
   Copyright (c) 2011-2014, The OpenBLAS Project


Your calculation utilizes the geometrical counterpoise correction gCP
Please cite in your paper:
H.Kruse, S. Grimme J.Chem.Phys., 136, (2012), 154101 
   

Your calculation utilizes the atom-pairwise dispersion correction
based on EEQ partial charges (D4)


================================================================================

----- Orbital basis set information -----
Your calculation utilizes the basis: def2-SV(P)
   F. Weigend and R. Ahlrichs, Phys. Chem. Chem. Phys. 7, 3297 (2005).

----- AuxJ basis set information -----
Your calculation utilizes the auxiliary basis: def2/J
   F. Weigend, Phys. Chem. Chem. Phys. 8, 1057 (2006).

================================================================================
                                        WARNINGS
                       Please study these warnings very carefully!
================================================================================


================================================================================
                                       INPUT FILE
================================================================================
NAME = sp.inp
|  1> ! pbe def2-sv(p) def2/J RI DEFGRID1 loosescf d4 GCP(DFT/SV(P)) printgap
|  2> %output
|  3>     printlevel normal
|  4> end
|  5> * xyz 0 1
|  6> C -1.8403329158 -0.6205510374 -1.0900684583
|  7> C -1.2328352604 -0.544985351 0.325946912
|  8> H -2.0001777836 -0.8377297523 1.0565282975
|  9> C -0.8061766598 0.8860594328 0.666316471
| 10> H -1.6191950754 1.5440797111 0.3310081864
| 11> C 0.4690735178 1.316325835 -0.0911332678
| 12> H 1.0526022854 1.9710033035 0.5743669088
| 13> C 1.3721387334 0.1180478731 -0.4204693442
| 14> H 1.118580824 -0.2733159234 -1.4182962429
| 15> C 1.119122141 -1.0120961313 0.5841988119
| 16> H 1.292199239 -0.6347544989 1.611692835
| 17> O -0.1936283062 -1.5056414565 0.4739844245
| 18> O 1.9911215929 -2.0469926348 0.2861363698
| 19> O 2.7081832934 0.5492936867 -0.3834884226
| 20> O 0.0769497067 2.0148651581 -1.2459519786
| 21> O -0.6326035656 0.9632304978 2.0628552421
| 22> O -3.1506144989 -0.1192627911 -1.1303130763
| 23> H -1.7972721213 -1.6640188596 -1.423386797
| 24> H -1.2660390494 0.0004633999 -1.7796143625
| 25> H 1.7146428745 -2.8471504081 0.7578626911
| 26> H 3.2862284448 -0.2261607206 -0.4502429256
| 27> H 0.8627314773 2.3716395017 -1.6853012714
| 28> H -0.6446318967 1.8884095091 2.3473057636
| 29> H -3.7377558071 -0.7002877925 -0.6251071366
| 30> *
| 31> 
| 32>                          ****END OF INPUT****
================================================================================

                       ****************************
                       * Single Point Calculation *
                       ****************************

---------------------------------
CARTESIAN COORDINATES (ANGSTROEM)
---------------------------------
  C     -1.840333   -0.620551   -1.090068
  C     -1.232835   -0.544985    0.325947
  H     -2.000178   -0.837730    1.056528
  C     -0.806177    0.886059    0.666316
  H     -1.619195    1.544080    0.331008
  C      0.469074    1.316326   -0.091133
  H      1.052602    1.971003    0.574367
  C      1.372139    0.118048   -0.420469
  H      1.118581   -0.273316   -1.418296
  C      1.119122   -1.012096    0.584199
  H      1.292199   -0.634754    1.611693
  O     -0.193628   -1.505641    0.473984
  O      1.991122   -2.046993    0.286136
  O      2.708183    0.549294   -0.383488
  O      0.076950    2.014865   -1.245952
  O     -0.632604    0.963230    2.062855
  O     -3.150614   -0.119263   -1.130313
  H     -1.797272   -1.664019   -1.423387
  H     -1.266039    0.000463   -1.779614
  H      1.714643   -2.847150    0.757863
  H      3.286228   -0.226161   -0.450243
  H      0.862731    2.371640   -1.685301
  H     -0.644632    1.888410    2.347306
  H     -3.737756   -0.700288   -0.625107

----------------------------
CARTESIAN COORDINATES (A.U.)
----------------------------
  NO LB      ZA    FRAG     MASS         X           Y           Z
   0 C     6.0000    0    12.011   -3.477725   -1.172672   -2.059931
   1 C     6.0000    0    12.011   -2.329721   -1.029873    0.615950
   2 H     1.0000    0     1.008   -3.779788   -1.583080    1.996549
   3 C     6.0000    0    12.011   -1.523453    1.674410    1.259156
   4 H     1.0000    0     1.008   -3.059835    2.917888    0.625515
   5 C     6.0000    0    12.011    0.886420    2.487495   -0.172217
   6 H     1.0000    0     1.008    1.989130    3.724656    1.085396
   7 C     6.0000    0    12.011    2.592966    0.223078   -0.794572
   8 H     1.0000    0     1.008    2.113811   -0.516492   -2.680191
   9 C     6.0000    0    12.011    2.114834   -1.912585    1.103976
  10 H     1.0000    0     1.008    2.441903   -1.199512    3.045658
  11 O     8.0000    0    15.999   -0.365904   -2.845250    0.895701
  12 O     8.0000    0    15.999    3.762675   -3.868255    0.540719
  13 O     8.0000    0    15.999    5.117725    1.038015   -0.724688
  14 O     8.0000    0    15.999    0.145414    3.807543   -2.354508
  15 O     8.0000    0    15.999   -1.195447    1.820242    3.898231
  16 O     8.0000    0    15.999   -5.953799   -0.225374   -2.135982
  17 H     1.0000    0     1.008   -3.396352   -3.144540   -2.689811
  18 H     1.0000    0     1.008   -2.392467    0.000876   -3.362984
  19 H     1.0000    0     1.008    3.240205   -5.380335    1.432153
  20 H     1.0000    0     1.008    6.210072   -0.427382   -0.850836
  21 H     1.0000    0     1.008    1.630326    4.481749   -3.184758
  22 H     1.0000    0     1.008   -1.218178    3.568577    4.435765
  23 H     1.0000    0     1.008   -7.063335   -1.323352   -1.181281

--------------------------------
INTERNAL COORDINATES (ANGSTROEM)
--------------------------------
 C      0   0   0     0.000000000000     0.00000000     0.00000000
 C      1   0   0     1.542680492909     0.00000000     0.00000000
 H      2   1   0     1.099210167913   108.79138482     0.00000000
 C      2   1   3     1.531593344005   111.06659719   242.24606172
 H      4   2   1     1.098372102923   106.60158198    43.83602201
 C      4   2   1     1.544384116449   112.41682837   286.73831304
 H      6   4   2     1.100908213900   107.87069785   215.01282483
 C      6   4   2     1.536183292716   111.91596560   331.68890279
 H      8   6   4     1.101415341458   109.63694695    91.95486726
 C      8   6   4     1.533166974140   109.72396419   334.61630060
 H     10   8   6     1.108190577879   109.31755158   303.02988601
 O     10   8   6     1.406786386002   111.17807002    64.34432457
 O     10   8   6     1.385725454937   107.80094610   182.48948990
 O      8   6   4     1.404405784172   108.30528071   212.72955621
 O      6   4   2     1.405462387957   108.12424721    95.58073626
 O      4   2   1     1.409398287032   107.79859083   163.25474731
 O      1   2   3     1.403476883375   112.11515191    41.30768920
 H      1   2   3     1.096257471082   108.07386510   277.91481137
 H      1   2   3     1.091304691788   110.17377001   158.67612522
 H     13  10   8     0.969132945528   109.41405749   193.53898197
 H     14   8   6     0.969495692888   108.65018033   171.11140761
 H     15   6   4     0.968384595263   109.23875059   174.18164041
 H     16   4   2     0.967994309322   109.99736047   198.12529521
 H     17   1   2     0.968275792094   109.68348092   292.76530380

---------------------------
INTERNAL COORDINATES (A.U.)
---------------------------
 C      0   0   0     0.000000000000     0.00000000     0.00000000
 C      1   0   0     2.915243643742     0.00000000     0.00000000
 H      2   1   0     2.077206180976   108.79138482     0.00000000
 C      2   1   3     2.894291968706   111.06659719   242.24606172
 H      4   2   1     2.075622467664   106.60158198    43.83602201
 C      4   2   1     2.918463025666   112.41682837   286.73831304
 H      6   4   2     2.080415022856   107.87069785   215.01282483
 C      6   4   2     2.902965714739   111.91596560   331.68890279
 H      8   6   4     2.081373355055   109.63694695    91.95486726
 C      8   6   4     2.897265698697   109.72396419   334.61630060
 H     10   8   6     2.094176696384   109.31755158   303.02988601
 O     10   8   6     2.658440998473   111.17807002    64.34432457
 O     10   8   6     2.618641606635   107.80094610   182.48948990
 O      8   6   4     2.653942312980   108.30528071   212.72955621
 O      6   4   2     2.655939004766   108.12424721    95.58073626
 O      4   2   1     2.663376776108   107.79859083   163.25474731
 O      1   2   3     2.652186944868   112.11515191    41.30768920
 H      1   2   3     2.071626392610   108.07386510   277.91481137
 H      1   2   3     2.062266996143   110.17377001   158.67612522
 H     13  10   8     1.831395854408   109.41405749   193.53898197
 H     14   8   6     1.832081347575   108.65018033   171.11140761
 H     15   6   4     1.829981677355   109.23875059   174.18164041
 H     16   4   2     1.829244143814   109.99736047   198.12529521
 H     17   1   2     1.829776069163   109.68348092   292.76530380

---------------------
BASIS SET INFORMATION
---------------------
There are 3 groups of distinct atoms

 Group   1 Type C   : 7s4p1d contracted to 3s2p1d pattern {511/31/1}
 Group   2 Type H   : 4s contracted to 2s pattern {31}
 Group   3 Type O   : 7s4p1d contracted to 3s2p1d pattern {511/31/1}

Atom   0C    basis set group =>   1
Atom   1C    basis set group =>   1
Atom   2H    basis set group =>   2
Atom   3C    basis set group =>   1
Atom   4H    basis set group =>   2
Atom   5C    basis set group =>   1
Atom   6H    basis set group =>   2
Atom   7C    basis set group =>   1
Atom   8H    basis set group =>   2
Atom   9C    basis set group =>   1
Atom  10H    basis set group =>   2
Atom  11O    basis set group =>   3
Atom  12O    basis set group =>   3
Atom  13O    basis set group =>   3
Atom  14O    basis set group =>   3
Atom  15O    basis set group =>   3
Atom  16O    basis set group =>   3
Atom  17H    basis set group =>   2
Atom  18H    basis set group =>   2
Atom  19H    basis set group =>   2
Atom  20H    basis set group =>   2
Atom  21H    basis set group =>   2
Atom  22H    basis set group =>   2
Atom  23H    basis set group =>   2
---------------------------------
AUXILIARY/J BASIS SET INFORMATION
---------------------------------
There are 3 groups of distinct atoms

 Group   1 Type C   : 12s5p4d2f1g contracted to 6s4p3d1f1g pattern {711111/2111/211/2/1}
 Group   2 Type H   : 5s2p1d contracted to 3s1p1d pattern {311/2/1}
 Group   3 Type O   : 12s5p4d2f1g contracted to 6s4p3d1f1g pattern {711111/2111/211/2/1}

Atom   0C    basis set group =>   1
Atom   1C    basis set group =>   1
Atom   2H    basis set group =>   2
Atom   3C    basis set group =>   1
Atom   4H    basis set group =>   2
Atom   5C    basis set group =>   1
Atom   6H    basis set group =>   2
Atom   7C    basis set group =>   1
Atom   8H    basis set group =>   2
Atom   9C    basis set group =>   1
Atom  10H    basis set group =>   2
Atom  11O    basis set group =>   3
Atom  12O    basis set group =>   3
Atom  13O    basis set group =>   3
Atom  14O    basis set group =>   3
Atom  15O    basis set group =>   3
Atom  16O    basis set group =>   3
Atom  17H    basis set group =>   2
Atom  18H    basis set group =>   2
Atom  19H    basis set group =>   2
Atom  20H    basis set group =>   2
Atom  21H    basis set group =>   2
Atom  22H    basis set group =>   2
Atom  23H    basis set group =>   2
------------------------------------------------------------------------------
                             ORCA STARTUP CALCULATIONS
                           -- RI-GTO INTEGRALS CHOSEN --
------------------------------------------------------------------------------
------------------------------------------------------------------------------
                   ___                                                        
                  /   \      - P O W E R E D   B Y -                         
                 /     \                                                     
                 |  |  |   _    _      __       _____    __    __             
                 |  |  |  | |  | |    /  \     |  _  \  |  |  /  |          
                  \  \/   | |  | |   /    \    | | | |  |  | /  /          
                 / \  \   | |__| |  /  /\  \   | |_| |  |  |/  /          
                |  |  |   |  __  | /  /__\  \  |    /   |      \           
                |  |  |   | |  | | |   __   |  |    \   |  |\   \          
                \     /   | |  | | |  |  |  |  | |\  \  |  | \   \       
                 \___/    |_|  |_| |__|  |__|  |_| \__\ |__|  \__/        
                                                                              
                      - O R C A' S   B I G   F R I E N D -                    
                                      &                                       
                       - I N T E G R A L  F E E D E R -                       
                                                                              
 v1 FN, 2020, v2 2021, v3 2022-2024                                           
------------------------------------------------------------------------------


----------------------
SHARK INTEGRAL PACKAGE
----------------------

Number of atoms                             ...     24
Number of basis functions                   ...    192
Number of shells                            ...     96
Maximum angular momentum                    ...      2
Integral batch strategy                     ... SHARK/LIBINT Hybrid
RI-J (if used) integral strategy            ... SPLIT-RIJ (Revised 2003 algorithm where possible)
Printlevel                                  ...      1
Contraction scheme used                     ... SEGMENTED contraction
Prescreening option                         ... SCHWARTZ
   Thresh                                   ... 1.000e-09
   Tcut                                     ... 1.000e-10
   Tpresel                                  ... 1.000e-10 
Coulomb Range Separation                    ... NOT USED
Exchange Range Separation                   ... NOT USED
Multipole approximations                    ... NOT USED
Finite Nucleus Model                        ... NOT USED
CABS basis                                  ... NOT available
Auxiliary Coulomb fitting basis             ... AVAILABLE
   # of basis functions in Aux-J            ...    720
   # of shells in Aux-J                     ...    240
   Maximum angular momentum in Aux-J        ...      4
Auxiliary J/K fitting basis                 ... NOT available
Auxiliary Correlation fitting basis         ... NOT available
Auxiliary 'external' fitting basis          ... NOT available

Checking pre-screening integrals            ... done (  0.0 sec) Dimension = 96
Check shell pair data                       ... done (  0.0 sec)
Shell pair information
Shell pair cut-off parameter TPreSel        ...   1.0e-10
Total number of shell pairs                 ...      4656
Shell pairs after pre-screening             ...      4203
Total number of primitive shell pairs       ...     18720
Primitive shell pairs kept                  ...     11313
          la=0 lb=0:   1634 shell pairs
          la=1 lb=0:   1340 shell pairs
          la=1 lb=1:    287 shell pairs
          la=2 lb=0:    615 shell pairs
          la=2 lb=1:    262 shell pairs
          la=2 lb=2:     65 shell pairs

Calculating one electron integrals          ... done (  0.0 sec)
Calculating RI/J V-Matrix + Cholesky decomp.... done (  0.1 sec)
Calculating Nuclear repulsion               ... done (  0.0 sec) ENN=    840.057762248131 Eh

Diagonalization of the overlap matrix:
Smallest eigenvalue                        ... 4.629e-04
Time for diagonalization                   ...    0.003 sec
Threshold for overlap eigenvalues          ... 1.000e-07
Number of eigenvalues below threshold      ... 0
Time for construction of square roots      ...    0.013 sec
Total time needed                          ...    0.024 sec

-------------------
DFT GRID GENERATION
-------------------

General Integration Accuracy     IntAcc      ... 4.159
Radial Grid Type                 RadialGrid  ... OptM3 with GC (2021)
Angular Grid (max. ang.)         AngularGrid ... 3 (Lebedev-194)
Angular grid pruning method      GridPruning ... 4 (adaptive)
Weight generation scheme         WeightScheme... mBecke (2022)
Basis function cutoff            BFCut       ... 1.0000e-10
Integration weight cutoff        WCut        ... 1.0000e-14
Partially contracted basis set               ... off
Rotationally invariant grid construction     ... off
Angular grids for H and He will be reduced by one unit

Total number of grid points                  ...    55693
Total number of batches                      ...      883
Average number of points per batch           ...       63
Average number of grid points per atom       ...     2321
Initializing property integral containers    ... done (  0.0 sec)

SHARK setup successfully completed in   0.8 seconds

Maximum memory used throughout the entire STARTUP-calculation: 28.0 MB
-------------------------------------------------------------------------------
                                 ORCA GUESS
                   Start orbitals & Density for SCF / CASSCF
-------------------------------------------------------------------------------

------------
SCF SETTINGS
------------
Hamiltonian:
 Density Functional     Method          .... DFT(GTOs)
 Exchange Functional    Exchange        .... PBE
   PBE kappa parameter   XKappa         ....  0.804000
   PBE mue parameter    XMuePBE         ....  0.219520
 Correlation Functional Correlation     .... PBE
   PBE beta parameter  CBetaPBE         ....  0.066725
 LDA part of GGA corr.  LDAOpt          .... PW91-LDA
 Gradients option       PostSCFGGA      .... off
   NL short-range parameter             ....  6.400000
 RI-approximation to the Coulomb term is turned on
   Number of AuxJ basis functions       .... 720


General Settings:
 Integral files         IntName         .... sp
 Hartree-Fock type      HFTyp           .... RHF
 Total Charge           Charge          ....    0
 Multiplicity           Mult            ....    1
 Number of Electrons    NEL             ....   96
 Basis Dimension        Dim             ....  192
 Nuclear Repulsion      ENuc            ....    840.0577622481 Eh

Convergence Acceleration:
 AO-DIIS                CNVDIIS         .... on
   Start iteration      DIISMaxIt       ....    12
   Startup error        DIISStart       ....  0.200000
   # of expansion vecs  DIISMaxEq       ....     5
   Bias factor          DIISBfac        ....   1.050
   Max. coefficient     DIISMaxC        ....  10.000
 MO-DIIS                CNVKDIIS        .... off
 Trust-Rad. Augm. Hess. CNVTRAH         .... auto
   Auto Start mean grad. ratio tolernc. ....  1.125000
   Auto Start start iteration           ....    50
   Auto Start num. interpolation iter.  ....    10
   Max. Number of Micro iterations      ....    24
   Max. Number of Macro iterations      .... Maxiter - #DIIS iter
   Number of Davidson start vectors     ....     2
   Converg. threshold    (grad. norm)   ....   1.000e-04
   Grad. Scal. Fac. for Micro threshold ....   0.100
   Minimum threshold for Micro iter.    ....   1.000e-02
   NR start threshold (gradient norm)   ....   1.000e-04
   Initial trust radius                 ....   0.400
   Minimum AH scaling param. (alpha)    ....   1.000
   Maximum AH scaling param. (alpha)    .... 1000.000
   Quad. conv. algorithm                .... NR
   White noise on init. David. guess    .... on
   Maximum white noise                  ....   0.010
   Pseudo random numbers                .... off
   Inactive MOs                         .... canonical
   Orbital update algorithm             .... Taylor
   Preconditioner                       .... Diag
   Full preconditioner red. dimension   ....   250
 SOSCF                  CNVSOSCF        .... on
   Start iteration      SOSCFMaxIt      ....   150
   Startup grad/error   SOSCFStart      ....  0.003300
   Hessian update       SOSCFHessUp     .... L-BFGS
 Level Shifting         CNVShift        .... on
   Level shift para.    LevelShift      ....    0.2500
   Turn off err/grad.   ShiftErr        ....    0.0010
 Zerner damping         CNVZerner       .... off
 Static damping         CNVDamp         .... on
   Fraction old density DampFac         ....    0.7000
   Max. Damping (<1)    DampMax         ....    0.9800
   Min. Damping (>=0)   DampMin         ....    0.0000
   Turn off err/grad.   DampErr         ....    0.1000

SCF Procedure:
 Maximum # iterations   MaxIter         ....   125
 SCF integral mode      SCFMode         .... Direct
   Integral package                     .... SHARK and LIBINT hybrid scheme
 Reset frequency        DirectResetFreq ....    20
 Integral Threshold     Thresh          ....  1.000e-09 Eh
 Primitive CutOff       TCut            ....  1.000e-10 Eh

Convergence Tolerance:
 Convergence Check Mode ConvCheckMode   .... Total+1el-Energy
 Convergence forced     ConvForced      .... 0
 Energy Change          TolE            ....  1.000e-05 Eh
 1-El. energy change                    ....  1.000e-02 Eh
 Orbital Gradient       TolG            ....  1.000e-04
 Orbital Rotation angle TolX            ....  1.000e-04
 DIIS Error             TolErr          ....  5.000e-04

------------------------------
INITIAL GUESS: MODEL POTENTIAL
------------------------------
Loading Hartree-Fock densities                     ... done
Calculating cut-offs                               ... done
Initializing the effective Hamiltonian             ... done
Setting up the integral package (SHARK)            ... done
Starting the Coulomb interaction                   ... done (   0.2 sec)
Making the grid                                    ... done (   0.3 sec)
Mapping shells                                     ... done
Starting the XC term evaluation                    ... done (   0.3 sec)
  promolecular density results
     # of electrons  =     95.992149413
     EX              =    -83.234331177
     EC              =     -3.268588697
     EX+EC           =    -86.502919873
Transforming the Hamiltonian                       ... done (   0.0 sec)
Diagonalizing the Hamiltonian                      ... done (   0.0 sec)
Back transforming the eigenvectors                 ... done (   0.0 sec)
Now organizing SCF variables                       ... done
                      ------------------
                      INITIAL GUESS DONE (   0.8 sec)
                      ------------------
             **** ENERGY FILE WAS UPDATED (sp.en.tmp) ****
Finished Guess after   1.0 sec
Maximum memory used throughout the entire GUESS-calculation: 21.8 MB

-------------------------------------------------------------------------------------------
                                      ORCA LEAN-SCF
                              memory conserving SCF solver
-------------------------------------------------------------------------------------------

----------------------------------------D-I-I-S--------------------------------------------
Iteration    Energy (Eh)           Delta-E    RMSDP     MaxDP     DIISErr   Damp  Time(sec)
-------------------------------------------------------------------------------------------
               ***  Starting incremental Fock matrix formation  ***
    1    -685.5125249280753224     0.00e+00  5.29e-03  1.86e-01  2.24e-01  0.700   1.2
    2    -685.6637217887990801    -1.51e-01  3.45e-03  1.30e-01  8.98e-02  0.700   1.1
                               ***Turning on AO-DIIS***
    3    -685.7112435826403498    -4.75e-02  1.17e-03  3.45e-02  1.75e-02  0.700   1.1
    4    -685.7429273010337738    -3.17e-02  1.45e-03  2.36e-02  1.07e-02  0.000   1.0
    5    -685.8164121590644982    -7.35e-02  5.05e-04  2.17e-02  5.00e-03  0.000   1.1
                              *** Initializing SOSCF ***
---------------------------------------S-O-S-C-F--------------------------------------
Iteration    Energy (Eh)           Delta-E    RMSDP     MaxDP     MaxGrad    Time(sec)
--------------------------------------------------------------------------------------
    6    -685.8167294347082361    -3.17e-04  1.44e-04  4.03e-03  9.43e-04     1.0
               *** Restarting incremental Fock matrix formation ***
    7    -685.8167564646161054    -2.70e-05  8.91e-05  2.86e-03  1.24e-04     1.2
    8    -685.8167577378804936    -1.27e-06  3.23e-05  1.07e-03  1.52e-04     1.0
                 **** Energy Check signals convergence ****

               *****************************************************
               *                     SUCCESS                       *
               *           SCF CONVERGED AFTER   8 CYCLES          *
               *****************************************************

             **** ENERGY FILE WAS UPDATED (sp.en.tmp) ****

----------------
TOTAL SCF ENERGY
----------------

Total Energy       :       -685.81675773788049 Eh          -18662.02274 eV

Components:
Nuclear Repulsion  :        840.05776224813064 Eh           22859.13385 eV
Electronic Energy  :      -1525.87451998601114 Eh          -41521.15658 eV
One Electron Energy:      -2609.66859600867701 Eh          -71012.69271 eV
Two Electron Energy:       1083.79407602266588 Eh           29491.53613 eV

Virial components:
Potential Energy   :      -1366.91813166534325 Eh          -37195.73336 eV
Kinetic Energy     :        681.10137392746276 Eh           18533.71062 eV
Virial Ratio       :          2.00692317471513

DFT components:
N(Alpha)           :       48.000082619784 electrons
N(Beta)            :       48.000082619784 electrons
N(Total)           :       96.000165239568 electrons
E(X)               :      -84.605741228471 Eh       
E(C)               :       -3.281311202102 Eh       
E(XC)              :      -87.887052430573 Eh       

---------------
SCF CONVERGENCE
---------------

  Last Energy change         ...    1.2733e-06  Tolerance :   1.0000e-05
  Last MAX-Density change    ...    1.0739e-03  Tolerance :   1.0000e-03
  Last RMS-Density change    ...    3.2318e-05  Tolerance :   1.0000e-04
  Last DIIS Error            ...    9.4338e-04  Tolerance :   5.0000e-04
  Last Orbital Gradient      ...    1.5235e-04  Tolerance :   1.0000e-04
  Last Orbital Rotation      ...    1.5056e-04  Tolerance :   1.0000e-04


----------------
ORBITAL ENERGIES
----------------

  NO   OCC          E(Eh)            E(eV) 
   0   2.0000     -18.762012      -510.5403 
   1   2.0000     -18.761765      -510.5336 
   2   2.0000     -18.757025      -510.4046 
   3   2.0000     -18.755205      -510.3551 
   4   2.0000     -18.750102      -510.2162 
   5   2.0000     -18.747688      -510.1505 
   6   2.0000      -9.978255      -271.5221 
   7   2.0000      -9.944590      -270.6061 
   8   2.0000      -9.942502      -270.5492 
   9   2.0000      -9.941282      -270.5160 
  10   2.0000      -9.935218      -270.3510 
  11   2.0000      -9.924138      -270.0495 
  12   2.0000      -0.979020       -26.6405 
  13   2.0000      -0.941262       -25.6131 
  14   2.0000      -0.933754       -25.4087 
  15   2.0000      -0.923694       -25.1350 
  16   2.0000      -0.919882       -25.0312 
  17   2.0000      -0.907220       -24.6867 
  18   2.0000      -0.703289       -19.1375 
  19   2.0000      -0.684962       -18.6388 
  20   2.0000      -0.612378       -16.6637 
  21   2.0000      -0.585801       -15.9405 
  22   2.0000      -0.568088       -15.4585 
  23   2.0000      -0.518674       -14.1138 
  24   2.0000      -0.500171       -13.6103 
  25   2.0000      -0.478283       -13.0147 
  26   2.0000      -0.475096       -12.9280 
  27   2.0000      -0.456463       -12.4210 
  28   2.0000      -0.449458       -12.2304 
  29   2.0000      -0.437907       -11.9161 
  30   2.0000      -0.415419       -11.3041 
  31   2.0000      -0.391960       -10.6658 
  32   2.0000      -0.374506       -10.1908 
  33   2.0000      -0.368990       -10.0407 
  34   2.0000      -0.361882        -9.8473 
  35   2.0000      -0.348187        -9.4746 
  36   2.0000      -0.326387        -8.8814 
  37   2.0000      -0.321634        -8.7521 
  38   2.0000      -0.306999        -8.3539 
  39   2.0000      -0.288903        -7.8614 
  40   2.0000      -0.277486        -7.5508 
  41   2.0000      -0.263989        -7.1835 
  42   2.0000      -0.243832        -6.6350 
  43   2.0000      -0.237102        -6.4519 
  44   2.0000      -0.233717        -6.3598 
  45   2.0000      -0.218940        -5.9577 
  46   2.0000      -0.216859        -5.9010 
  47   2.0000      -0.196204        -5.3390 
  48   0.0000       0.020794         0.5658 
  49   0.0000       0.027385         0.7452 
  50   0.0000       0.028588         0.7779 
  51   0.0000       0.037585         1.0227 
  52   0.0000       0.057917         1.5760 
  53   0.0000       0.077302         2.1035 
  54   0.0000       0.081949         2.2299 
  55   0.0000       0.094717         2.5774 
  56   0.0000       0.108061         2.9405 
  57   0.0000       0.110907         3.0179 
  58   0.0000       0.120472         3.2782 
*Only the first 10 virtual orbitals were printed.

                    ********************************
                    * MULLIKEN POPULATION ANALYSIS *
                    ********************************

-----------------------
MULLIKEN ATOMIC CHARGES
-----------------------
   0 C :    0.030843
   1 C :    0.040383
   2 H :    0.056954
   3 C :    0.004703
   4 H :    0.086136
   5 C :    0.107167
   6 H :    0.051632
   7 C :    0.005107
   8 H :    0.054077
   9 C :    0.202304
  10 H :    0.048804
  11 O :   -0.325912
  12 O :   -0.397697
  13 O :   -0.426277
  14 O :   -0.409309
  15 O :   -0.411299
  16 O :   -0.431259
  17 H :    0.080724
  18 H :    0.104803
  19 H :    0.310472
  20 H :    0.308740
  21 H :    0.309196
  22 H :    0.304325
  23 H :    0.295385
Sum of atomic charges:    0.0000000

--------------------------------
MULLIKEN REDUCED ORBITAL CHARGES
--------------------------------
  0 C s       :     3.040950  s :     3.040950
      pz      :     1.043689  p :     2.865568
      px      :     0.789468
      py      :     1.032412
      dz2     :     0.009449  d :     0.062639
      dxz     :     0.016277
      dyz     :     0.007084
      dx2y2   :     0.016102
      dxy     :     0.013727

  1 C s       :     3.063019  s :     3.063019
      pz      :     1.023976  p :     2.830767
      px      :     0.890107
      py      :     0.916684
      dz2     :     0.010350  d :     0.065831
      dxz     :     0.015932
      dyz     :     0.009679
      dx2y2   :     0.012625
      dxy     :     0.017245

  2 H s       :     0.943046  s :     0.943046

  3 C s       :     3.057891  s :     3.057891
      pz      :     0.748975  p :     2.870250
      px      :     1.035535
      py      :     1.085740
      dz2     :     0.020822  d :     0.067156
      dxz     :     0.018559
      dyz     :     0.012253
      dx2y2   :     0.005686
      dxy     :     0.009835

  4 H s       :     0.913864  s :     0.913864

  5 C s       :     3.004562  s :     3.004562
      pz      :     0.814848  p :     2.821356
      px      :     1.014891
      py      :     0.991617
      dz2     :     0.014501  d :     0.066915
      dxz     :     0.014437
      dyz     :     0.017465
      dx2y2   :     0.007534
      dxy     :     0.012978

  6 H s       :     0.948368  s :     0.948368

  7 C s       :     3.046704  s :     3.046704
      pz      :     1.094116  p :     2.881209
      px      :     0.796141
      py      :     0.990951
      dz2     :     0.011113  d :     0.066980
      dxz     :     0.014601
      dyz     :     0.010345
      dx2y2   :     0.015161
      dxy     :     0.015760

  8 H s       :     0.945923  s :     0.945923

  9 C s       :     3.019396  s :     3.019396
      pz      :     1.081519  p :     2.677863
      px      :     0.745634
      py      :     0.850710
      dz2     :     0.017902  d :     0.100437
      dxz     :     0.016559
      dyz     :     0.017723
      dx2y2   :     0.022926
      dxy     :     0.025328

 10 H s       :     0.951196  s :     0.951196

 11 O s       :     3.749830  s :     3.749830
      pz      :     1.826478  p :     4.561530
      px      :     1.182476
      py      :     1.552576
      dz2     :     0.002118  d :     0.014552
      dxz     :     0.002239
      dyz     :     0.001723
      dx2y2   :     0.003066
      dxy     :     0.005406

 12 O s       :     3.760618  s :     3.760618
      pz      :     1.741011  p :     4.622015
      px      :     1.650955
      py      :     1.230049
      dz2     :     0.001338  d :     0.015064
      dxz     :     0.002572
      dyz     :     0.004737
      dx2y2   :     0.002365
      dxy     :     0.004053

 13 O s       :     3.777918  s :     3.777918
      pz      :     1.895843  p :     4.633071
      px      :     1.221787
      py      :     1.515440
      dz2     :     0.002689  d :     0.015288
      dxz     :     0.001393
      dyz     :     0.001229
      dx2y2   :     0.002846
      dxy     :     0.007131

 14 O s       :     3.785598  s :     3.785598
      pz      :     1.413318  p :     4.608363
      px      :     1.490917
      py      :     1.704128
      dz2     :     0.002255  d :     0.015348
      dxz     :     0.004971
      dyz     :     0.001940
      dx2y2   :     0.003052
      dxy     :     0.003130

 15 O s       :     3.790183  s :     3.790183
      pz      :     1.329927  p :     4.605925
      px      :     1.887487
      py      :     1.388512
      dz2     :     0.005040  d :     0.015191
      dxz     :     0.001877
      dyz     :     0.002666
      dx2y2   :     0.004910
      dxy     :     0.000697

 16 O s       :     3.791761  s :     3.791761
      pz      :     1.745816  p :     4.623783
      px      :     1.240543
      py      :     1.637423
      dz2     :     0.001439  d :     0.015715
      dxz     :     0.003175
      dyz     :     0.003529
      dx2y2   :     0.001920
      dxy     :     0.005652

 17 H s       :     0.919276  s :     0.919276

 18 H s       :     0.895197  s :     0.895197

 19 H s       :     0.689528  s :     0.689528

 20 H s       :     0.691260  s :     0.691260

 21 H s       :     0.690804  s :     0.690804

 22 H s       :     0.695675  s :     0.695675

 23 H s       :     0.704615  s :     0.704615


------------------------
MULLIKEN OVERLAP CHARGES
------------------------
B(  0-C ,  1-C ) :   0.5440 B(  0-C ,  2-H ) :  -0.0916 B(  0-C ,  3-C ) :  -0.0561 
B(  0-C , 11-O ) :  -0.0892 B(  0-C , 16-O ) :   0.6071 B(  0-C , 17-H ) :   0.6603 
B(  0-C , 18-H ) :   0.6778 B(  0-C , 23-H ) :  -0.0931 B(  1-C ,  2-H ) :   0.5690 
B(  1-C ,  3-C ) :   0.3650 B(  1-C ,  4-H ) :  -0.0729 B(  1-C ,  7-C ) :  -0.0790 
B(  1-C ,  9-C ) :  -0.1029 B(  1-C , 11-O ) :   0.5137 B(  1-C , 15-O ) :  -0.1070 
B(  1-C , 16-O ) :  -0.0944 B(  1-C , 17-H ) :  -0.0801 B(  3-C ,  4-H ) :   0.6200 
B(  3-C ,  7-C ) :   0.1820 B(  3-C , 14-O ) :  -0.0976 B(  3-C , 15-O ) :   0.4954 
B(  3-C , 22-H ) :  -0.0770 B(  4-H ,  5-C ) :  -0.0655 B(  5-C ,  6-H ) :   0.5198 
B(  5-C , 11-O ) :  -0.0565 B(  5-C , 13-O ) :  -0.1277 B(  5-C , 14-O ) :   0.5266 
B(  5-C , 15-O ) :  -0.0619 B(  5-C , 21-H ) :  -0.0774 B(  7-C ,  8-H ) :   0.4869 
B(  7-C ,  9-C ) :   0.2365 B(  7-C , 10-H ) :  -0.1345 B(  7-C , 11-O ) :  -0.0512 
B(  7-C , 12-O ) :  -0.1200 B(  7-C , 13-O ) :   0.5959 B(  7-C , 14-O ) :  -0.0630 
B(  7-C , 20-H ) :  -0.1103 B(  8-H , 13-O ) :  -0.0671 B(  9-C , 10-H ) :   0.7349 
B(  9-C , 11-O ) :   0.6041 B(  9-C , 12-O ) :   0.6817 B(  9-C , 19-H ) :  -0.0641 
B( 10-H , 11-O ) :  -0.0845 B( 10-H , 12-O ) :  -0.0916 B( 11-O , 12-O ) :  -0.1221 
B( 12-O , 19-H ) :   0.5236 B( 13-O , 20-H ) :   0.5356 B( 14-O , 18-H ) :   0.0596 
B( 14-O , 21-H ) :   0.5150 B( 15-O , 22-H ) :   0.5174 B( 16-O , 18-H ) :  -0.0528 
B( 16-O , 23-H ) :   0.5247 B( 17-H , 18-H ) :  -0.0629 


                     *******************************
                     * LOEWDIN POPULATION ANALYSIS *
                     *******************************

----------------------
LOEWDIN ATOMIC CHARGES
----------------------
   0 C :   -0.140920
   1 C :   -0.060546
   2 H :    0.108133
   3 C :   -0.070198
   4 H :    0.118881
   5 C :   -0.066411
   6 H :    0.106831
   7 C :   -0.093331
   8 H :    0.106015
   9 C :   -0.006774
  10 H :    0.086508
  11 O :   -0.157888
  12 O :   -0.308521
  13 O :   -0.323365
  14 O :   -0.314365
  15 O :   -0.316149
  16 O :   -0.329199
  17 H :    0.099727
  18 H :    0.118275
  19 H :    0.292691
  20 H :    0.287355
  21 H :    0.291871
  22 H :    0.288834
  23 H :    0.282543

-------------------------------
LOEWDIN REDUCED ORBITAL CHARGES
-------------------------------
  0 C s       :     2.925283  s :     2.925283
      pz      :     1.085517  p :     3.072849
      px      :     0.890284
      py      :     1.097048
      dz2     :     0.024152  d :     0.142788
      dxz     :     0.038054
      dyz     :     0.016024
      dx2y2   :     0.035081
      dxy     :     0.029477

  1 C s       :     2.902999  s :     2.902999
      pz      :     1.085617  p :     3.005378
      px      :     0.944521
      py      :     0.975239
      dz2     :     0.026580  d :     0.152169
      dxz     :     0.038271
      dyz     :     0.018816
      dx2y2   :     0.028919
      dxy     :     0.039582

  2 H s       :     0.891867  s :     0.891867

  3 C s       :     2.891372  s :     2.891372
      pz      :     0.861820  p :     3.023020
      px      :     1.068603
      py      :     1.092597
      dz2     :     0.048289  d :     0.155807
      dxz     :     0.043104
      dyz     :     0.024559
      dx2y2   :     0.016607
      dxy     :     0.023248

  4 H s       :     0.881119  s :     0.881119

  5 C s       :     2.896974  s :     2.896974
      pz      :     0.934576  p :     3.013737
      px      :     1.065770
      py      :     1.013390
      dz2     :     0.032000  d :     0.155700
      dxz     :     0.035510
      dyz     :     0.038886
      dx2y2   :     0.016402
      dxy     :     0.032902

  6 H s       :     0.893169  s :     0.893169

  7 C s       :     2.903317  s :     2.903317
      pz      :     1.087782  p :     3.032371
      px      :     0.887432
      py      :     1.057157
      dz2     :     0.026577  d :     0.157643
      dxz     :     0.031460
      dyz     :     0.027597
      dx2y2   :     0.033844
      dxy     :     0.038165

  8 H s       :     0.893985  s :     0.893985

  9 C s       :     2.889393  s :     2.889393
      pz      :     1.108937  p :     2.890700
      px      :     0.835056
      py      :     0.946707
      dz2     :     0.040180  d :     0.226681
      dxz     :     0.034157
      dyz     :     0.045125
      dx2y2   :     0.049835
      dxy     :     0.057384

 10 H s       :     0.913492  s :     0.913492

 11 O s       :     3.467524  s :     3.467524
      pz      :     1.823730  p :     4.661716
      px      :     1.257627
      py      :     1.580359
      dz2     :     0.003793  d :     0.028648
      dxz     :     0.004224
      dyz     :     0.002239
      dx2y2   :     0.006819
      dxy     :     0.011574

 12 O s       :     3.522050  s :     3.522050
      pz      :     1.774139  p :     4.759625
      px      :     1.684699
      py      :     1.300787
      dz2     :     0.002195  d :     0.026846
      dxz     :     0.003392
      dyz     :     0.008426
      dx2y2   :     0.004434
      dxy     :     0.008399

 13 O s       :     3.532410  s :     3.532410
      pz      :     1.895959  p :     4.764079
      px      :     1.295223
      py      :     1.572897
      dz2     :     0.004315  d :     0.026875
      dxz     :     0.002486
      dyz     :     0.001319
      dx2y2   :     0.005715
      dxy     :     0.013039

 14 O s       :     3.537622  s :     3.537622
      pz      :     1.477115  p :     4.749685
      px      :     1.557554
      py      :     1.715016
      dz2     :     0.004439  d :     0.027058
      dxz     :     0.008740
      dyz     :     0.004375
      dx2y2   :     0.004485
      dxy     :     0.005019

 15 O s       :     3.538421  s :     3.538421
      pz      :     1.403183  p :     4.750907
      px      :     1.887447
      py      :     1.460276
      dz2     :     0.010107  d :     0.026821
      dxz     :     0.003071
      dyz     :     0.005133
      dx2y2   :     0.007747
      dxy     :     0.000763

 16 O s       :     3.540815  s :     3.540815
      pz      :     1.763437  p :     4.761039
      px      :     1.310493
      py      :     1.687109
      dz2     :     0.002406  d :     0.027345
      dxz     :     0.005820
      dyz     :     0.004876
      dx2y2   :     0.003964
      dxy     :     0.010279

 17 H s       :     0.900273  s :     0.900273

 18 H s       :     0.881725  s :     0.881725

 19 H s       :     0.707309  s :     0.707309

 20 H s       :     0.712645  s :     0.712645

 21 H s       :     0.708129  s :     0.708129

 22 H s       :     0.711166  s :     0.711166

 23 H s       :     0.717457  s :     0.717457


---------------------------------
LOEWDIN BOND ORDERS (THRESH 0.050000)
---------------------------------
B(  0-C ,  1-C ) :   1.0478 B(  0-C ,  3-C ) :   0.0582 B(  0-C , 11-O ) :   0.0754 
B(  0-C , 16-O ) :   1.2451 B(  0-C , 17-H ) :   0.9057 B(  0-C , 18-H ) :   0.8997 
B(  1-C ,  2-H ) :   0.8715 B(  1-C ,  3-C ) :   1.0357 B(  1-C ,  5-C ) :   0.0507 
B(  1-C ,  9-C ) :   0.0606 B(  1-C , 11-O ) :   1.1243 B(  1-C , 15-O ) :   0.0635 
B(  1-C , 16-O ) :   0.0860 B(  3-C ,  4-H ) :   0.8598 B(  3-C ,  5-C ) :   1.0106 
B(  3-C ,  7-C ) :   0.0521 B(  3-C , 11-O ) :   0.0507 B(  3-C , 14-O ) :   0.0611 
B(  3-C , 15-O ) :   1.2098 B(  5-C ,  6-H ) :   0.8648 B(  5-C ,  7-C ) :   1.0232 
B(  5-C ,  9-C ) :   0.0564 B(  5-C , 13-O ) :   0.0627 B(  5-C , 14-O ) :   1.2184 
B(  5-C , 15-O ) :   0.0781 B(  7-C ,  8-H ) :   0.8610 B(  7-C ,  9-C ) :   1.0167 
B(  7-C , 11-O ) :   0.0691 B(  7-C , 12-O ) :   0.0661 B(  7-C , 13-O ) :   1.2277 
B(  7-C , 14-O ) :   0.0771 B(  9-C , 10-H ) :   0.8704 B(  9-C , 11-O ) :   1.1671 
B(  9-C , 12-O ) :   1.2722 B(  9-C , 13-O ) :   0.0842 B( 11-O , 12-O ) :   0.0747 
B( 12-O , 19-H ) :   0.8689 B( 13-O , 20-H ) :   0.8722 B( 14-O , 21-H ) :   0.8793 
B( 15-O , 22-H ) :   0.8823 B( 16-O , 23-H ) :   0.8900 

------------------------------------------
LOEWDIN REDUCED ORBITAL POPULATIONS PER MO
-------------------------------------------
THRESHOLD FOR PRINTING IS 0.1%%
                      0         1         2         3         4         5   
                 -18.76201 -18.76176 -18.75703 -18.75520 -18.75010 -18.74769
                   2.00000   2.00000   2.00000   2.00000   2.00000   2.00000
                  --------  --------  --------  --------  --------  --------
11 O  s               0.5      99.4       0.0       0.0       0.0       0.0
12 O  s              99.4       0.5       0.0       0.0       0.0       0.0
13 O  s               0.0       0.0       0.0       0.0      99.9       0.0
14 O  s               0.0       0.0       0.0      99.9       0.0       0.0
15 O  s               0.0       0.0      99.9       0.0       0.0       0.0
16 O  s               0.0       0.0       0.0       0.0       0.0      99.9

                      6         7         8         9        10        11   
                  -9.97826  -9.94459  -9.94250  -9.94128  -9.93522  -9.92414
                   2.00000   2.00000   2.00000   2.00000   2.00000   2.00000
                  --------  --------  --------  --------  --------  --------
 0 C  s               0.0       0.0       0.0       0.0       0.0      99.6
 1 C  s               0.0       0.0       0.0      99.6       0.0       0.0
 3 C  s               0.0      99.6       0.0       0.0       0.0       0.0
 5 C  s               0.0       0.0      99.6       0.0       0.0       0.0
 7 C  s               0.0       0.0       0.0       0.0      99.6       0.0
 9 C  s              99.6       0.0       0.0       0.0       0.0       0.0
13 O  px              0.0       0.0       0.0       0.0       0.1       0.0
15 O  pz              0.0       0.1       0.0       0.0       0.0       0.0
16 O  px              0.0       0.0       0.0       0.0       0.0       0.1

                     12        13        14        15        16        17   
                  -0.97902  -0.94126  -0.93375  -0.92369  -0.91988  -0.90722
                   2.00000   2.00000   2.00000   2.00000   2.00000   2.00000
                  --------  --------  --------  --------  --------  --------
 0 C  s               0.3       0.2       0.9       8.5       0.9       0.1
 0 C  pz              0.3       0.0       0.1       0.0       0.0       0.3
 0 C  px              0.1       0.0       0.2       6.0       1.1       1.1
 0 C  py              0.0       0.0       0.0       0.6       0.1       0.1
 0 C  dz2             0.0       0.0       0.0       0.2       0.0       0.0
 0 C  dx2y2           0.0       0.0       0.0       0.3       0.0       0.0
 0 C  dxy             0.0       0.0       0.0       0.2       0.0       0.0
 1 C  s               3.8       0.4       2.1       0.8       0.0       3.1
 1 C  pz              0.0       0.0       0.0       1.0       0.0       0.0
 1 C  px              2.3       0.0       0.3       0.3       0.4       2.4
 1 C  py              0.8       0.8       0.0       0.2       0.3       1.9
 1 C  dxy             0.2       0.0       0.0       0.0       0.0       0.3
 2 H  s               0.5       0.1       0.4       0.1       0.0       0.3
 3 C  s               1.2       6.2       3.1       0.7       0.3       0.1
 3 C  pz              0.0       1.4       3.8       2.1       1.5       0.7
 3 C  px              0.1       0.6       0.0       0.0       0.0       0.0
 3 C  py              0.4       0.2       0.2       0.1       0.0       0.7
 3 C  dz2             0.0       0.3       0.2       0.1       0.1       0.1
 4 H  s               0.1       1.0       0.3       0.0       0.0       0.0
 5 C  s               0.8       8.0       1.5       0.1       1.3       0.0
 5 C  pz              0.0       1.6       2.7       0.6       2.3       0.0
 5 C  px              0.0       0.6       0.6       0.0       0.7       0.1
 5 C  py              0.2       0.5       0.2       0.1       1.6       0.2
 5 C  dz2             0.0       0.1       0.0       0.0       0.1       0.0
 5 C  dyz             0.0       0.2       0.1       0.0       0.2       0.0
 6 H  s               0.1       1.3       0.2       0.0       0.0       0.0
 7 C  s               2.9       1.2       4.2       0.0       2.9       0.7
 7 C  pz              0.6       0.0       0.0       0.0       0.0       0.0
 7 C  px              0.0       0.0       2.9       0.2       6.1       0.3
 7 C  py              0.6       1.6       0.5       0.0       0.1       0.1
 7 C  dx2y2           0.0       0.0       0.1       0.0       0.3       0.1
 7 C  dxy             0.0       0.0       0.0       0.0       0.1       0.0
 8 H  s               0.5       0.2       0.5       0.0       0.2       0.1
 9 C  s              15.6       0.7       0.1       0.0       0.1       0.0
 9 C  pz              0.5       0.0       0.2       0.0       0.1       0.0
 9 C  px              0.3       0.2       2.4       0.4       0.8       9.6
 9 C  py              3.1       1.6       0.1       0.0       0.6       2.2
 9 C  dz2             0.3       0.0       0.0       0.0       0.0       0.0
 9 C  dx2y2           0.1       0.0       0.1       0.0       0.0       0.3
 9 C  dxy             0.0       0.1       0.1       0.0       0.0       0.8
10 H  s               1.8       0.0       0.0       0.0       0.0       0.0
11 O  s              24.4       0.3       4.2       0.8       2.5      21.9
11 O  px              0.7       0.2       0.1       0.0       0.0       0.2
11 O  py              1.1       0.0       0.3       0.1       0.1       1.3
12 O  s              23.1       5.6       1.8       0.8       0.1      28.2
12 O  pz              0.5       0.1       0.0       0.0       0.0       0.5
12 O  px              1.6       0.2       0.0       0.0       0.0       0.5
12 O  py              0.2       0.0       0.0       0.0       0.0       0.1
13 O  s               2.3       2.7      19.7       0.4      28.6       4.6
13 O  px              0.1       0.1       0.3       0.0       0.2       0.0
13 O  py              0.2       0.1       0.9       0.0       1.4       0.2
14 O  s               0.6      26.5       9.4       2.4      18.8       0.9
14 O  pz              0.0       0.4       0.1       0.0       0.1       0.0
14 O  px              0.0       1.2       0.5       0.1       0.8       0.0
15 O  s               1.1      20.3      19.4       8.8       5.1       3.8
15 O  pz              0.1       0.7       0.5       0.2       0.1       0.0
15 O  py              0.0       0.6       0.5       0.3       0.2       0.2
16 O  s               0.1       0.4       2.4      46.1       6.7       3.3
16 O  pz              0.0       0.0       0.0       0.6       0.1       0.0
16 O  px              0.0       0.0       0.0       0.4       0.0       0.0
16 O  py              0.0       0.0       0.1       1.8       0.3       0.1
17 H  s               0.1       0.0       0.1       1.0       0.1       0.0
18 H  s               0.1       0.1       0.1       1.1       0.0       0.0
19 H  s               4.7       1.1       0.3       0.2       0.0       5.5
20 H  s               0.7       0.4       4.0       0.1       5.7       0.7
21 H  s               0.1       5.3       2.0       0.5       3.7       0.2
22 H  s               0.2       4.1       3.9       1.8       1.1       0.8
23 H  s               0.0       0.1       0.5       9.4       1.4       0.7

                     18        19        20        21        22        23   
                  -0.70329  -0.68496  -0.61238  -0.58580  -0.56809  -0.51867
                   2.00000   2.00000   2.00000   2.00000   2.00000   2.00000
                  --------  --------  --------  --------  --------  --------
 0 C  s               2.6       4.7      15.3       0.3       7.2       0.6
 0 C  pz              0.9       1.5       0.0       0.1       3.3       2.3
 0 C  px              1.1       1.4       1.2       0.0       0.1       0.4
 0 C  py              0.1       0.0       0.1       0.5       0.2       0.8
 1 C  s               7.8      12.1       0.7       0.2       5.0       1.4
 1 C  pz              0.3       0.2       4.7       0.7       4.4       0.1
 1 C  px              0.1       0.7       1.7       0.2       0.1       0.2
 1 C  py              4.5       0.1       0.8       6.3       0.3       3.0
 1 C  dz2             0.0       0.0       0.2       0.0       0.0       0.0
 1 C  dxy             0.2       0.0       0.0       0.1       0.0       0.0
 2 H  s               1.3       2.9       0.1       0.1       3.4       0.8
 3 C  s              13.3       0.5       5.8       5.1       0.3       1.0
 3 C  pz              4.1       0.0       0.2       0.1       1.5       2.6
 3 C  px              0.3       2.7       0.5       2.6       0.8       0.2
 3 C  py              0.8       1.6       0.6       0.9       4.9       0.9
 3 C  dz2             0.1       0.0       0.0       0.0       0.0       0.1
 4 H  s               2.6       0.2       1.4       1.9       0.6       0.0
 5 C  s              10.2       3.9       2.7       5.9       2.1       1.3
 5 C  pz              1.4       0.1       1.3       0.1       0.5       0.2
 5 C  px              0.5       1.4       2.2       3.8       2.8       1.9
 5 C  py              2.8       1.6       0.6       0.0       1.6       1.8
 5 C  dxz             0.0       0.0       0.0       0.0       0.0       0.1
 6 H  s               1.6       0.9       0.8       2.7       0.7       0.3
 7 C  s               4.2      10.3       4.2       1.6       4.6       0.8
 7 C  pz              0.3       1.0       0.0       1.0       0.2       0.4
 7 C  px              2.3       2.6       0.0       0.3       0.0       0.1
 7 C  py              0.5       0.2       2.1       7.6       0.1       1.9
 7 C  dyz             0.0       0.0       0.0       0.2       0.0       0.0
 7 C  dx2y2           0.0       0.1       0.0       0.0       0.0       0.0
 8 H  s               0.7       1.9       1.6       0.4       1.5       0.2
 9 C  s               0.0       9.3       2.6       8.0       0.3       0.4
 9 C  pz              0.3       0.4       0.9       0.3       0.8       0.4
 9 C  px              1.0       0.3       1.3       0.3       2.1       6.3
 9 C  py              1.9       2.5       1.3       0.1       2.2       0.0
 9 C  dxy             0.1       0.1       0.0       0.0       0.1       0.2
10 H  s               0.0       1.8       0.5       2.5       0.0       0.0
11 O  s               4.4       0.0       1.2       1.5       0.5       0.1
11 O  pz              0.1       0.1       0.4       0.3       0.0       0.5
11 O  px              1.1       8.9       0.0       5.0       8.7       5.7
11 O  py              0.5       0.1       0.1       0.2       1.2       0.1
11 O  dxy             0.0       0.1       0.0       0.0       0.1       0.0
12 O  s               0.2       2.3       0.3       1.2       0.4       0.1
12 O  pz              0.0       0.1       0.2       0.1       0.1       0.7
12 O  px              0.1       0.4       0.1       0.7       0.5       0.0
12 O  py              0.0       3.1       3.7      10.7       0.0      14.8
12 O  dxy             0.0       0.0       0.0       0.1       0.0       0.1
13 O  s               1.2       2.8       1.2       0.0       0.9       0.1
13 O  px              1.1       2.9       2.0       3.3       5.2       3.9
13 O  py              0.1       0.2       0.0       1.3       0.1       1.5
14 O  s               3.2       0.9       0.3       1.4       0.1       0.0
14 O  pz              1.9       0.5       2.0       2.4       4.0       7.2
14 O  px              0.5       0.0       0.4       0.1       1.3       1.7
14 O  py              1.1       0.3       0.3       1.4       1.0       1.9
15 O  s               3.7       0.0       1.2       0.5       0.1       0.0
15 O  pz              2.5       0.1       3.1       3.8       0.0       5.7
15 O  px              0.0       0.1       0.0       0.3       0.1       0.1
15 O  py              1.3       0.1       0.9       2.5       0.9       4.8
16 O  s               1.1       1.4       2.2       0.0       0.4       0.0
16 O  pz              0.0       0.0       0.5       0.0       1.3       1.0
16 O  px              0.7       1.2       7.6       0.0       8.2       3.9
16 O  py              0.0       0.0       0.1       0.0       0.1       0.2
17 H  s               0.4       1.0       4.2       0.3       2.0       0.0
18 H  s               0.8       0.9       4.6       0.0       3.9       0.8
19 H  s               0.0       1.6       1.2       3.7       0.0       4.3
20 H  s               0.6       1.6       0.8       1.2       1.6       1.6
21 H  s               2.0       0.4       0.8       1.2       1.9       3.1
22 H  s               2.1       0.1       1.5       2.1       0.2       3.0
23 H  s               0.5       0.7       2.9       0.0       2.9       1.4

                     24        25        26        27        28        29   
                  -0.50017  -0.47828  -0.47510  -0.45646  -0.44946  -0.43791
                   2.00000   2.00000   2.00000   2.00000   2.00000   2.00000
                  --------  --------  --------  --------  --------  --------
 0 C  s               0.4       0.1       0.2       0.6       1.4       0.3
 0 C  pz              0.0       2.1       2.5       1.0       0.3       3.2
 0 C  px              0.3       0.3       0.2       4.4       2.1       1.1
 0 C  py              0.8       0.5       1.1       5.0      10.2       1.8
 0 C  dx2y2           0.0       0.0       0.0       0.1       0.1       0.0
 0 C  dxy             0.0       0.0       0.0       0.1       0.2       0.0
 1 C  s               0.2       0.6       1.6       0.1       0.1       1.1
 1 C  pz              0.8       0.4       0.1       7.5       0.2       0.3
 1 C  px              0.4       6.7       0.6       0.0       3.1       3.9
 1 C  py              1.9       0.6       3.3       0.1       0.2       1.1
 1 C  dz2             0.0       0.0       0.0       0.0       0.2       0.0
 1 C  dyz             0.0       0.0       0.0       0.0       0.1       0.0
 1 C  dxy             0.0       0.0       0.1       0.0       0.2       0.1
 2 H  s               0.9       2.3       0.6       1.1       0.8       2.5
 3 C  s               0.7       0.2       0.7       1.5       0.8       0.4
 3 C  pz              2.2       0.5       5.2       1.4       3.7       0.1
 3 C  px              3.0       9.6       0.4       0.0       0.1       0.1
 3 C  py              0.3       1.0       2.8       3.5       1.9       2.5
 3 C  dz2             0.0       0.0       0.2       0.1       0.3       0.0
 3 C  dxy             0.0       0.0       0.0       0.0       0.0       0.1
 4 H  s               2.3       3.7       0.0       2.2       2.6       1.5
 5 C  s               1.7       0.1       0.0       0.1       0.1       2.4
 5 C  pz              5.5       1.0       0.6       7.9       4.1       0.8
 5 C  px              5.0       0.3       0.0       0.1       0.2       6.5
 5 C  py              2.1       2.6       1.8       0.2       0.1       0.1
 5 C  dxz             0.0       0.0       0.0       0.1       0.0       0.0
 5 C  dyz             0.0       0.0       0.0       0.1       0.0       0.1
 5 C  dxy             0.0       0.0       0.0       0.1       0.0       0.1
 6 H  s               6.4       0.0       0.5       1.5       0.3       4.6
 7 C  s               2.3       0.0       0.0       0.1       0.0       0.1
 7 C  pz             10.9       0.6       1.8       0.6       1.8       1.2
 7 C  px              0.8       6.5       1.5       0.1       0.6       4.8
 7 C  py              3.9       3.4       0.2       0.0       0.1       0.4
 7 C  dx2y2           0.0       0.0       0.0       0.0       0.0       0.2
 7 C  dxy             0.0       0.2       0.0       0.0       0.0       0.1
 8 H  s               8.0       0.2       0.5       0.3       0.6       0.4
 9 C  s               1.5       0.1       1.5       0.0       0.2       0.4
 9 C  pz             10.9       0.9       7.0       0.9       0.5       5.3
 9 C  px              1.6       0.0       2.6       0.3       1.2       1.2
 9 C  py              0.5       6.0       3.1       0.2       1.1       4.7
10 H  s               6.2       0.0       4.8       0.6       0.2       4.4
11 O  s               0.1       0.5       2.0       0.0       0.5       0.0
11 O  pz              1.8       1.0       1.3       2.5       0.0       0.1
11 O  px              1.2       2.5       3.4       1.4       5.0       4.0
11 O  py              0.1       3.6       2.1       0.4       0.7       0.6
12 O  s               0.1       0.5       0.5       0.0       0.5       0.0
12 O  pz              1.4       0.2       3.3       0.1       0.4       1.9
12 O  px              0.0       2.6       0.1       0.3       1.4       1.6
12 O  py              1.4       1.8       9.7       0.1       0.3       1.2
13 O  s               0.1       0.2       0.2       0.1       0.0       0.0
13 O  pz              1.4       0.0       0.1       0.1       0.4       0.4
13 O  px              0.1      16.6       1.9       0.1       0.8       9.7
13 O  py              1.0       4.2       0.0       0.3       0.0       0.0
13 O  dxy             0.0       0.1       0.0       0.0       0.0       0.1
14 O  s               0.2       0.1       0.0       0.2       0.0       1.7
14 O  pz              0.1       1.8       0.1       7.7       3.7       0.4
14 O  px              1.7       0.1       0.1       1.8       0.1       7.2
14 O  py              1.6       0.3       0.2       7.2       3.8       0.5
15 O  s               0.0       0.1       0.0       1.1       1.2       0.0
15 O  pz              0.6       0.6      13.4       0.1       1.8       0.6
15 O  px              0.6       1.3       0.1       0.1       0.0       0.0
15 O  py              1.4       1.3       3.8       5.0       8.0       0.0
15 O  dz2             0.0       0.0       0.1       0.0       0.0       0.0
16 O  s               0.1       0.1       0.0       0.7       1.7       0.0
16 O  pz              0.0       0.4       0.9       2.8       2.5       0.2
16 O  px              0.6       0.2       0.5      10.7       7.6       2.5
16 O  py              0.1       0.1       0.1       2.1       4.8       0.4
17 H  s               0.4       0.5       1.1       2.7       5.7       2.2
18 H  s               0.1       0.4       0.1       0.0       0.0       1.0
19 H  s               0.2       0.5       3.4       0.0       0.1       0.7
20 H  s               0.1       6.0       0.3       0.1       0.1       2.4
21 H  s               0.6       0.6       0.0       4.6       1.8       1.2
22 H  s               0.6       0.5       4.4       0.7       2.6       0.1
23 H  s               0.1       0.0       0.2       4.4       3.9       0.6

                     30        31        32        33        34        35   
                  -0.41542  -0.39196  -0.37451  -0.36899  -0.36188  -0.34819
                   2.00000   2.00000   2.00000   2.00000   2.00000   2.00000
                  --------  --------  --------  --------  --------  --------
 0 C  s               0.0       0.0       0.1       0.0       0.1       0.2
 0 C  pz              1.3       2.6       2.8       6.9       7.1       6.2
 0 C  px              6.0       0.0       7.3       3.4       0.0       4.2
 0 C  py              3.7       0.4       3.1       9.0       1.1       2.0
 0 C  dz2             0.0       0.0       0.0       0.1       0.0       0.1
 0 C  dxz             0.0       0.0       0.0       0.0       0.0       0.1
 0 C  dyz             0.0       0.0       0.0       0.0       0.0       0.1
 0 C  dx2y2           0.0       0.0       0.0       0.0       0.0       0.1
 1 C  s               0.1       0.2       0.0       0.1       0.5       0.1
 1 C  pz              2.0       1.3       0.1       6.8       7.4       6.0
 1 C  px              8.8       0.1       0.4       0.8       0.6       5.8
 1 C  py              4.3       0.7       0.3       0.9       1.7       0.8
 1 C  dz2             0.0       0.0       0.0       0.1       0.0       0.1
 1 C  dxz             0.0       0.0       0.0       0.0       0.0       0.3
 1 C  dxy             0.0       0.0       0.2       0.0       0.1       0.1
 2 H  s               4.4       0.1       0.3       0.2       1.3       8.6
 3 C  s               0.0       0.7       0.2       0.4       0.1       0.2
 3 C  pz              0.8       0.3       1.6       0.4       1.8       0.0
 3 C  px              1.2       0.2      13.3       5.4       1.7       0.3
 3 C  py              8.9       1.6       0.3       0.6       2.6       0.1
 3 C  dz2             0.0       0.0       0.0       0.1       0.4       0.0
 3 C  dxy             0.0       0.1       0.0       0.1       0.2       0.0
 4 H  s               2.6       1.7       2.6       1.6       0.9       0.1
 5 C  s               0.0       0.2       0.0       0.0       0.0       0.2
 5 C  pz              0.8       0.6       0.8       2.2       4.1       1.1
 5 C  px              0.0       0.1       8.8       1.0       1.0       0.1
 5 C  py              1.5       5.7       9.1       1.4       6.1       2.1
 5 C  dxz             0.0       0.3       0.1       0.0       0.0       0.1
 5 C  dyz             0.0       0.2       0.0       0.0       0.0       0.0
 5 C  dxy             0.0       0.0       0.0       0.0       0.2       0.0
 6 H  s               0.3       0.6       4.1       0.6       2.9       0.0
 7 C  s               1.7       0.2       0.0       0.1       0.0       0.2
 7 C  pz              0.0       9.0       0.0       5.4       6.9       4.3
 7 C  px              0.2       3.6       0.1       1.1       3.5       0.2
 7 C  py              5.9       3.2       0.6       1.6       2.8       0.0
 7 C  dz2             0.2       0.1       0.0       0.1       0.0       0.0
 7 C  dx2y2           0.0       0.0       0.1       0.0       0.0       0.0
 7 C  dxy             0.0       0.3       0.0       0.0       0.1       0.0
 8 H  s               1.7       4.3       0.3       3.7       2.9       0.6
 9 C  s               0.5       0.0       0.2       0.1       0.0       0.1
 9 C  pz              0.1      10.7       0.1       2.7       0.1       1.8
 9 C  px              0.4       2.0       0.1       0.3       0.6       0.0
 9 C  py              4.6       2.1       1.6       0.2       0.6       0.0
 9 C  dz2             0.1       0.0       0.0       0.1       0.0       0.0
 9 C  dyz             0.1       0.0       0.0       0.0       0.0       0.0
 9 C  dx2y2           0.0       0.0       0.0       0.0       0.1       0.2
 9 C  dxy             0.2       0.2       0.0       0.0       0.0       0.1
10 H  s               0.4       2.9       0.5       1.9       0.0       1.0
11 O  s               0.1       0.3       0.0       0.0       0.9       0.5
11 O  pz              0.5       4.2       0.1       0.1       5.3       1.4
11 O  px              0.0       3.6       0.1       0.3       0.9       0.0
11 O  py              1.1       2.2       1.0       1.7       3.8      11.6
12 O  s               0.3       0.2       0.0       1.3       0.0       0.2
12 O  pz              0.0       5.3       0.0       3.8       0.2       0.6
12 O  px              0.5       0.2       1.7       1.0       0.0       1.4
12 O  py              7.1       3.1       0.4       0.2       0.0       0.4
13 O  s               1.3       0.0       0.5       0.4       0.4       0.0
13 O  pz              0.0       3.0       0.0       2.5       4.5       3.1
13 O  px              0.8       3.8       1.0       0.6       2.4       0.1
13 O  py              5.3       0.0       0.8       2.3       2.0       0.4
14 O  s               0.0       1.1       1.5       0.1       0.0       1.4
14 O  pz              0.3       4.6       4.8       0.0       0.6       3.1
14 O  px              0.0       2.9       5.8       0.7       0.0       7.4
14 O  py              0.9       0.8       0.0       0.8       4.2       0.0
15 O  s               1.0       0.6       0.0       0.1       0.1       0.0
15 O  pz              1.7       0.1       0.2       1.9       4.0       0.2
15 O  px              0.5       0.2       5.8       4.7       2.1       0.0
15 O  py              1.4       2.1       0.0       0.4       0.1       0.1
16 O  s               0.5       0.0       0.6       0.3       0.0       0.3
16 O  pz              0.1       0.7       0.3       3.0       2.4       1.2
16 O  px              3.9       0.2       5.0       0.1       0.8       5.1
16 O  py              1.1       0.0       3.7       5.6       1.2       3.4
17 H  s               0.7       0.6       0.3       6.4       1.8       0.1
18 H  s               3.6       0.4       5.3       0.6       0.7       8.8
19 H  s               2.3       0.2       0.1       0.4       0.0       0.1
20 H  s               0.9       0.9       0.6       0.0       0.1       0.1
21 H  s               0.0       1.2       0.0       0.0       0.1       0.1
22 H  s               0.0       0.3       0.1       0.6       0.9       0.0
23 H  s               0.5       0.0       0.3       0.0       0.1       0.3

                     36        37        38        39        40        41   
                  -0.32639  -0.32163  -0.30700  -0.28890  -0.27749  -0.26399
                   2.00000   2.00000   2.00000   2.00000   2.00000   2.00000
                  --------  --------  --------  --------  --------  --------
 0 C  s               0.1       0.2       0.0       0.1       0.1       0.1
 0 C  pz              0.4       0.1       0.1       0.1       1.9       0.0
 0 C  px              0.0       0.5       0.1       0.4       0.2       0.1
 0 C  py              0.1       1.1       0.1       2.0       6.5       0.1
 0 C  dxz             0.0       0.1       0.0       0.1       0.4       0.1
 0 C  dx2y2           0.0       0.0       0.0       0.1       0.1       0.0
 0 C  dxy             0.0       0.0       0.0       0.1       0.2       0.0
 1 C  s               0.7       0.0       0.5       0.1       0.4       0.4
 1 C  pz              0.6       0.1       0.2       0.1       1.2       0.1
 1 C  px              0.3       1.7       0.0       2.0       0.1       0.3
 1 C  py              1.7       0.8       0.1       0.7       0.1       8.3
 1 C  dyz             0.0       0.1       0.0       0.0       0.2       0.1
 1 C  dx2y2           0.1       0.3       0.0       0.0       0.0       0.4
 2 H  s               0.9       1.4       0.3       1.0       0.1       0.8
 3 C  s               0.1       0.3       0.2       0.4       0.1       0.3
 3 C  pz              1.4       1.8       1.6       1.2       0.4       0.3
 3 C  px              0.0       0.7       2.2       1.3       0.3       0.0
 3 C  py              0.4       1.7       0.4       0.8       0.3      10.6
 3 C  dyz             0.0       0.0       0.3       0.1       0.0       0.3
 3 C  dx2y2           0.0       0.0       0.0       0.0       0.0       0.1
 3 C  dxy             0.0       0.0       0.1       0.0       0.0       0.2
 4 H  s               0.1       0.2       3.5       0.1       0.1       4.3
 5 C  s               0.4       0.2       0.2       0.1       0.2       0.4
 5 C  pz              0.0       0.0       2.0       0.7       0.3       0.0
 5 C  px              0.0       0.0       0.2       5.0       2.1       0.1
 5 C  py              0.6       0.0       0.6       0.1       0.5       0.7
 5 C  dz2             0.0       0.0       0.2       0.0       0.0       0.0
 5 C  dxz             0.0       0.0       0.1       0.3       0.1       0.1
 5 C  dyz             0.0       0.0       0.2       0.2       0.1       0.0
 6 H  s               0.1       0.0       2.2       3.1       0.7       0.3
 7 C  s               0.0       0.3       0.2       0.2       0.0       0.1
[...]
 1 C  dxy             0.1       0.0       2.8       0.2       1.0       3.0
 3 C  s               0.4       0.5       0.4       0.0       1.3       0.1
 3 C  pz              0.4       0.4       0.6       0.1       2.7       0.0
 3 C  px              0.0       0.0       0.1       0.0       0.2       0.0
 3 C  py              0.0       0.0       0.1       0.0       0.2       0.1
 3 C  dz2             2.1       2.0       2.0       0.1       6.9       0.1
 3 C  dxz             0.0       0.2       0.1       0.2       0.5       0.0
 3 C  dx2y2           0.0       0.0       0.3       0.0       0.0       0.1
 4 H  s               0.0       0.0       0.0       0.0       0.2       0.0
 5 C  s               0.6       0.7       0.0       0.4       0.8       0.2
 5 C  pz              0.6       1.0       0.0       0.3       0.8       0.1
 5 C  px              0.1       0.1       0.1       0.0       0.1       0.0
 5 C  py              0.3       0.4       0.1       0.0       0.2       0.0
 5 C  dz2             1.2       2.0       0.1       0.4       0.4       0.0
 5 C  dxz             0.3       0.4       0.1       0.0       1.5       0.0
 5 C  dyz             1.9       2.1       0.0       0.1       1.2       0.3
 5 C  dx2y2           0.3       0.2       0.0       0.0       0.1       0.0
 5 C  dxy             0.1       0.2       0.2       0.5       0.2       0.1
 7 C  s               0.2       0.0       0.9       0.9       0.0       0.2
 7 C  px              0.4       0.0       1.1       1.8       0.0       0.6
 7 C  py              0.0       0.1       0.1       0.5       0.0       0.0
 7 C  dz2             0.0       0.1       0.3       1.8       0.0       0.4
 7 C  dxz             0.0       0.0       0.1       0.1       0.0       0.4
 7 C  dyz             0.0       0.0       0.1       0.1       0.2       0.0
 7 C  dx2y2           1.0       0.0       1.5       3.6       0.1       0.4
 7 C  dxy             0.5       0.0       1.5       2.6       0.1       0.1
 9 C  s               0.1       0.1       1.0       0.1       0.3       0.2
 9 C  px              0.0       0.0       0.2       0.7       0.0       3.1
 9 C  py              0.0       0.1       0.5       0.3       0.1       0.2
 9 C  dz2             0.1       0.0       0.4       0.0       0.2       0.0
 9 C  dxz             0.1       0.0       0.7       0.1       0.0       0.5
 9 C  dyz             0.0       0.0       0.2       0.2       0.1       0.1
 9 C  dx2y2           0.1       0.2       1.0       0.0       0.2       4.8
 9 C  dxy             0.1       0.3       2.7       5.5       1.4       4.2
11 O  s               0.0       0.0       0.9       0.4       0.8       0.0
11 O  px              0.0       0.0       0.8       0.2       0.4       4.9
11 O  py              0.0       0.0       0.1       0.1       0.1       0.1
11 O  dz2             0.0       0.3       2.3       0.7       1.9       0.1
11 O  dxz             0.0       0.3       0.0       1.0       0.6       0.0
11 O  dyz             0.0       0.3       0.9       0.0       0.1       0.4
11 O  dx2y2           0.0       0.0       1.0       7.3       0.3       7.8
11 O  dxy             1.4       1.3      15.3       0.2       7.2      34.1
12 O  s               0.0       0.1       1.6       0.6       0.2       1.8
12 O  px              0.0       0.0       0.3       0.2       0.1       0.6
12 O  py              0.1       0.1       0.9       0.9       0.3       0.6
12 O  dz2             0.0       0.2       2.7       1.1       0.4       3.5
12 O  dxz             0.0       0.0       0.5       0.7       0.0       1.3
12 O  dyz             0.4       0.1       0.8       3.1       0.5       0.3
12 O  dx2y2           0.0       0.4       3.6       0.4       0.4       0.4
12 O  dxy             0.3       0.8       9.9       8.0       2.4       9.5
13 O  s               0.2       0.0       1.6       2.8       0.0       0.8
13 O  px              0.5       0.0       1.5       2.6       0.0       0.4
13 O  dz2             0.8       0.0       3.7       6.9       0.0       1.3
13 O  dxz             0.0       0.0       0.0       0.4       0.0       0.2
13 O  dyz             0.0       0.0       0.1       0.0       0.0       0.1
13 O  dx2y2           3.7       0.0       9.2      17.8       0.0       1.4
13 O  dxy             2.8       0.2       6.1       7.9       0.0       1.7
14 O  s               1.0       1.7       0.0       0.7       1.9       0.2
14 O  pz              0.8       1.2       0.0       0.2       1.0       0.1
14 O  py              0.3       0.7       0.0       0.1       0.4       0.0
14 O  dz2             4.7       5.0       0.1       0.7       4.4       0.5
14 O  dxz             4.5       6.2       0.0       0.6       1.3       0.2
14 O  dyz             7.5      10.7       0.2       2.8       8.6       0.5
14 O  dx2y2           0.6       1.1       0.1       0.1       1.0       0.0
14 O  dxy             1.7       3.0       0.0       0.6       0.3       0.0
15 O  s               0.5       0.5       0.8       0.1       4.8       0.0
15 O  pz              0.6       0.5       0.7       0.1       2.6       0.0
15 O  py              0.1       0.2       0.0       0.0       0.4       0.0
15 O  dz2             9.1       7.5      10.5       1.1      31.2       0.3
15 O  dxz             1.0       1.9       0.3       0.0       0.4       0.0
15 O  dyz             0.0       0.2       0.0       0.0       0.9       0.0
15 O  dx2y2           0.1       0.1       0.1       0.0       0.0       0.1
16 O  s               1.8       1.9       0.1       0.5       0.0       0.3
16 O  px              2.0       1.9       0.0       0.3       0.0       0.1
16 O  dz2             7.3       7.0       0.1       1.2       0.1       0.2
16 O  dxz             0.3       0.1       0.3       0.0       0.1       0.4
16 O  dx2y2          12.5      11.4       0.4       2.1       0.1       0.6
16 O  dxy            12.2      11.1       0.1       1.4       0.1       0.2
19 H  s               0.0       0.0       0.0       0.2       0.0       0.1
20 H  s               0.1       0.0       0.2       0.3       0.0       0.0
21 H  s               0.2       0.4       0.0       0.0       0.1       0.0
22 H  s               0.1       0.1       0.1       0.0       0.2       0.0
23 H  s               0.3       0.3       0.0       0.0       0.0       0.0



                      *****************************
                      * MAYER POPULATION ANALYSIS *
                      *****************************

  NA   - Mulliken gross atomic population
  ZA   - Total nuclear charge
  QA   - Mulliken gross atomic charge
  VA   - Mayer's total valence
  BVA  - Mayer's bonded valence
  FA   - Mayer's free valence

  ATOM       NA         ZA         QA         VA         BVA        FA
  0 C      5.9692     6.0000     0.0308     3.9131     3.9131     0.0000
  1 C      5.9596     6.0000     0.0404     4.0189     4.0189     0.0000
  2 H      0.9430     1.0000     0.0570     0.9879     0.9879     0.0000
  3 C      5.9953     6.0000     0.0047     4.0758     4.0758     0.0000
  4 H      0.9139     1.0000     0.0861     0.9985     0.9985     0.0000
  5 C      5.8928     6.0000     0.1072     3.9738     3.9738    -0.0000
  6 H      0.9484     1.0000     0.0516     1.0023     1.0023    -0.0000
  7 C      5.9949     6.0000     0.0051     4.1035     4.1035     0.0000
  8 H      0.9459     1.0000     0.0541     0.9947     0.9947     0.0000
  9 C      5.7977     6.0000     0.2023     4.2304     4.2304     0.0000
 10 H      0.9512     1.0000     0.0488     0.9927     0.9927     0.0000
 11 O      8.3259     8.0000    -0.3259     2.1486     2.1486     0.0000
 12 O      8.3977     8.0000    -0.3977     2.0355     2.0355     0.0000
 13 O      8.4263     8.0000    -0.4263     2.0090     2.0090    -0.0000
 14 O      8.4093     8.0000    -0.4093     2.0238     2.0238     0.0000
 15 O      8.4113     8.0000    -0.4113     1.9886     1.9886     0.0000
 16 O      8.4313     8.0000    -0.4313     2.0089     2.0089    -0.0000
 17 H      0.9193     1.0000     0.0807     0.9623     0.9623     0.0000
 18 H      0.8952     1.0000     0.1048     0.9980     0.9980    -0.0000
 19 H      0.6895     1.0000     0.3105     0.8898     0.8898     0.0000
 20 H      0.6913     1.0000     0.3087     0.8971     0.8971    -0.0000
 21 H      0.6908     1.0000     0.3092     0.8794     0.8794    -0.0000
 22 H      0.6957     1.0000     0.3043     0.8810     0.8810     0.0000
 23 H      0.7046     1.0000     0.2954     0.8854     0.8854    -0.0000

  Mayer bond orders larger than 0.100000
B(  0-C ,  1-C ) :   1.0132 B(  0-C , 16-O ) :   1.0509 B(  0-C , 17-H ) :   0.9180 
B(  0-C , 18-H ) :   0.9035 B(  1-C ,  2-H ) :   0.8862 B(  1-C ,  3-C ) :   1.0405 
B(  1-C , 11-O ) :   0.9889 B(  3-C ,  4-H ) :   0.8809 B(  3-C ,  5-C ) :   0.9987 
B(  3-C , 15-O ) :   1.0386 B(  5-C ,  6-H ) :   0.8628 B(  5-C ,  7-C ) :   1.0279 
B(  5-C , 14-O ) :   1.0626 B(  7-C ,  8-H ) :   0.8430 B(  7-C ,  9-C ) :   1.0629 
B(  7-C , 13-O ) :   1.0732 B(  9-C , 10-H ) :   0.8807 B(  9-C , 11-O ) :   1.0264 
B(  9-C , 12-O ) :   1.1488 B( 12-O , 19-H ) :   0.8384 B( 13-O , 20-H ) :   0.8346 
B( 14-O , 21-H ) :   0.8439 B( 15-O , 22-H ) :   0.8479 B( 16-O , 23-H ) :   0.8517 


-------
TIMINGS
-------

Total SCF time: 0 days 0 hours 0 min 9 sec 

Total time                  ....       9.078 sec
Sum of individual times     ....       8.675 sec  ( 95.6%)

SCF preparation             ....       0.163 sec  (  1.8%)
Fock matrix formation       ....       7.811 sec  ( 86.0%)
  Startup                   ....       0.051 sec  (  0.6% of F)
  Split-RI-J                ....       3.516 sec  ( 45.0% of F)
  XC integration            ....       3.848 sec  ( 49.3% of F)
    Basis function eval.    ....       1.299 sec  ( 33.8% of XC)
    Density eval.           ....       0.715 sec  ( 18.6% of XC)
    XC-Functional eval.     ....       0.270 sec  (  7.0% of XC)
    XC-Potential eval.      ....       0.954 sec  ( 24.8% of XC)
Diagonalization             ....       0.000 sec  (  0.0%)
Density matrix formation    ....       0.162 sec  (  1.8%)
Total Energy calculation    ....       0.023 sec  (  0.3%)
Population analysis         ....       0.098 sec  (  1.1%)
Orbital Transformation      ....       0.053 sec  (  0.6%)
Orbital Orthonormalization  ....       0.000 sec  (  0.0%)
DIIS solution               ....       0.283 sec  (  3.1%)
  MO trafo                  ....       0.000 sec  (  0.0 % of DIIS)
  Orb grad                  ....       0.000 sec  (  0.0 % of DIIS)
  Energy W gradient         ....       0.000 sec  (  0.0 % of DIIS)
  DIIS error                ....       0.006 sec  (  2.0 % of DIIS)
  DIIS work                 ....       0.235 sec  ( 82.8 % of DIIS)
  Form Q                    ....       0.000 sec  (  0.0 % of DIIS)
  Form QpQm                 ....       0.000 sec  (  0.0 % of DIIS)
  Exp/Cayley                ....       0.000 sec  (  0.0 % of DIIS)
  Orb update                ....       0.000 sec  (  0.0 % of DIIS)
  Wake-sleep                ....       0.014 sec  (  5.0 % of DIIS)
SOSCF solution              ....       0.081 sec  (  0.9%)
  MO trafo                  ....       0.044 sec  ( 55.1 % of SOSCF)
  Orb grad                  ....       0.001 sec  (  1.5 % of SOSCF)
  Rot update                ....       0.017 sec  ( 20.6 % of SOSCF)
  Step                      ....       0.018 sec  ( 22.6 % of SOSCF)
Finished LeanSCF after   9.2 sec

Maximum memory used throughout the entire LEANSCF-calculation: 18.2 MB


-------------------------------------------------------------------------------
                          DFT DISPERSION CORRECTION                            
                                                                               
                                DFTD4 V3.4.0                                   
-------------------------------------------------------------------------------
The PBE functional is recognized
Active option DFTDOPT                   ...         5   

-------------------------   ----------------
Dispersion correction           -0.024566889
-------------------------   ----------------

------------------   -----------------
gCP correction             0.154033677
------------------   -----------------

-------------------------   --------------------
FINAL SINGLE POINT ENERGY      -685.687290949549
-------------------------   --------------------


------------------------------------------------------------------------------
                              ORCA PROPERTY CALCULATIONS
------------------------------------------------------------------------------

GBWName                                 ... sp.gbw
Number of atoms                         ...     24
Number of basis functions               ...    192
Max core memory                         ...   1024 MB

Electric properties:
Dipole moment                           ... YES
Quadrupole moment                       ...  NO
Static polarizability (Dipole/Dipole)   ...  NO
Static polarizability (Dipole/Quad.)    ...  NO
Static polarizability (Quad./Quad.)     ...  NO
Static polarizability (Velocity)        ...  NO

Atomic electric properties:
Dipole moment                           ...  NO
Quadrupole moment                       ...  NO
Static polarizability                   ...  NO

Choice of electric origin               ... Center of mass
Position of electric origin             ...    -0.000005     0.000001    -0.000001

General magnetic properties:
Magnetizability                         ...  NO

EPR properties:
g-Tensor (aka g-matrix)                 ...  NO
Zero-Field splitting spin-orbit         ...  NO
Zero-field splitting spin-spin          ...  NO
Hyperfine couplings                     ...  NO (   0 nuclei)
Quadrupole couplings                    ...  NO (   0 nuclei)
Contact density                         ...  NO (   0 nuclei)

NMR properties:
Chemical shifts                         ...  NO (   0 nuclei)
Spin-rotation constants                 ...  NO (   0 nuclei)
Spin-spin couplings                     ...  NO (   0 nuclei,    0 pairs)

Choice of magnetic origin               ... GIAO
Position of magnetic origin             ...     0.000000     0.000000     0.000000

Properties with geometric perturbations:
SCF Hessian                             ...  NO
IR spectrum                             ...  NO
VCD spectrum                            ...  NO
X-ray spectroscopy properties:
SCF XES/XAS/RIXS spectra                ...  NO


-------------
DIPOLE MOMENT
-------------

Method             : SCF
Type of density    : Electron Density
Multiplicity       :   1
Irrep              :   0
Energy             :  -685.8167577378804936 Eh
Relativity type    : 
Basis              : AO
                                X                 Y                 Z
Electronic contribution:      1.745456715      -0.703947158       1.088197347
Nuclear contribution   :     -1.618778074       0.553422401      -0.658769656
                        -----------------------------------------
Total Dipole Moment    :      0.126678641      -0.150524757       0.429427691
                        -----------------------------------------
Magnitude (a.u.)       :      0.472348729
Magnitude (Debye)      :      1.200615055



--------------------
Rotational spectrum 
--------------------
 
Rotational constants in cm-1:             0.039470             0.025277             0.021745 
Rotational constants in MHz :          1183.288569           757.787366           651.888191 

Dipole components along the rotational axes: 
x,y,z [a.u.] :    -0.199473    -0.205912     0.375398 
x,y,z [Debye]:    -0.507020    -0.523388     0.954187 

 

Dipole moment calculation done in   0.0 sec 

Maximum memory used throughout the entire PROP-calculation: 11.9 MB

--------------------------------
SUGGESTED CITATIONS FOR THIS RUN
--------------------------------

Below you find a list of papers that are relevant to this ORCA run
We neither can nor want to force you to cite these papers, but we appreciate if you do
You receive ORCA, which is the product of decades of hard work by many enthusiastic individuals, for free
The only thing we kindly ask in return is that you cite our papers,
We deeply appreciate it, if you show your appreciation for ORCA by not just citing the generic ORCA reference.

Please note that relegating all ORCA citations to the supporting information does *not* help us.
SI sections are not indexed - citations you put there will not count into any citation statistics
But we need these citations in order to attract the funding resources that allow us to do what we are doing

Therefore, if you are a happy ORCA user, please consider citing a few of the papers listed below in the main body of your paper

In addition to the list printed below, the program has created the file sp.bibtex that contains the list in bibtex format
You can import this file easily into all common literature databanks and citation aid programs


List of essential papers. We consider these as the minimum necessary citations

  1. Neese,F.
     Software update: the ORCA program system, version 5.0
     WIRES Comput. Molec. Sci., 2022 12(1)e1606
     doi.org/10.1002/wcms.1606

List of papers to cite with high priority. The work reported in these papers was absolutely
necessary for this run to complete.
Our perspective: the developers of density functionals and basis sets usually get cited in chemistry papers
Good! But without the algorithms to do something with them, the functionals or basis sets would not do anything.
Hence, in our opinion, the algorithm design and method developments papers are equally worthy of getting cited

  1. Neese,F.
     An improvement of the resolution of the identity approximation for the formation of the Coulomb matrix
     J. Comp. Chem., 2003 24(14)1740-1747
     doi.org/10.1002/jcc.10318
  2. Neese,F.
     The SHARK Integral Generation and Digestion System
     J. Comp. Chem., 2022  1-16
     doi.org/10.1002/jcc.26942
  3. Caldeweyher,E.; Bannwarth,C.; Grimme,S.
     Extension of the D3 dispersion coefficient model
     J. Chem. Phys., 2017 147 034112-XXXX
     doi.org/10.1063/1.4993215
  4. Caldeweyher,E.; Ehlert,S.; Hansen,A.; Neugebauer,H.; Spicher,S.; Bannwarth,C.; Grimme,S.
     A generally applicable atomic-charge dependent London dispersion correction
     J. Chem. Phys., 2019 150 154122-XXXX
     doi.org/10.1063/1.5090222
  5. Caldeweyher,E.; Mewes,J.; Ehlert,S.; Grimme,S.
     Extension and evaluation of the D4 London-dispersion model for periodic systems
     Phys. Chem. Chem. Phys., 2020 22(16)8499-8512
     doi.org/10.1039/D0CP00502A

List of suggested additional citations. These are papers that are important in the 'surrounding' of 
of this run, or papers that preceded the highly important papers. If you like your results we are grateful for a citation.

  1. Neese,F.
     The ORCA program system
     WIRES Comput. Molec. Sci., 2012 2(1)73-78
     doi.org/10.1002/wcms.81
  2. Neese,F.
     Software update: the ORCA program system, version 4.0
     WIRES Comput. Molec. Sci., 2018 8(1)1-6
     doi.org/10.1002/wcms.1327
  3. Neese,F.; Wennmohs,F.; Becker,U.; Riplinger,C.
     The ORCA quantum chemistry program package
     J. Chem. Phys., 2020 152 Art. No. L224108
     doi.org/10.1063/5.0004608

List of optional additional citations

  1. Neese,F.
     Approximate second-order SCF convergence for spin unrestricted wavefunctions
     Chem. Phys. Lett., 2000 325(1-3)93-98
     doi.org/10.1016/s0009-2614(00)00662-x

Timings for individual modules:

Sum of individual times          ...       11.149 sec (=   0.186 min)
Startup calculation              ...        0.878 sec (=   0.015 min)   7.9 %
SCF iterations                   ...       10.173 sec (=   0.170 min)  91.2 %
Property calculations            ...        0.098 sec (=   0.002 min)   0.9 %
                             ****ORCA TERMINATED NORMALLY****
TOTAL RUN TIME: 0 days 0 hours 0 minutes 11 seconds 841 msec
