      -----------------------------------------------------------      
     |                   =====================                   |     
     |                           x T B                           |     
     |                   =====================                   |     
     |                         S. Grimme                         |     
     |          Mulliken Center for Theoretical Chemistry        |     
     |                    University of Bonn                     |     
      -----------------------------------------------------------      

   * xtb version 6.7.1 (edcfbbe) compiled by 'albert@albert-system' on 2024-07-22

   xtb is free software: you can redistribute it and/or modify it under
   the terms of the GNU Lesser General Public License as published by
   the Free Software Foundation, either version 3 of the License, or
   (at your option) any later version.
   
   xtb is distributed in the hope that it will be useful,
   but WITHOUT ANY WARRANTY; without even the implied warranty of
   MERCHANTABILITY or FITNESS FOR A PARTICULAR PURPOSE.  See the
   GNU Lesser General Public License for more details.
   
   Cite this work as:
   * C. Bannwarth, E. Caldeweyher, S. Ehlert, A. Hansen, P. Pracht,
     J. Seibert, S. Spicher, S. Grimme, WIREs Comput. Mol. Sci., 2020, 11,
     e01493. DOI: 10.1002/wcms.1493
   
   for GFN2-xTB:
   * C. Bannwarth, S. Ehlert and S. Grimme., J. Chem. Theory Comput., 2019,
     15, 1652-1671. DOI: 10.1021/acs.jctc.8b01176
   for GFN1-xTB:
   * S. Grimme, C. Bannwarth, P. Shushkov, J. Chem. Theory Comput., 2017,
     13, 1989-2009. DOI: 10.1021/acs.jctc.7b00118
   for GFN0-xTB:
   * P. Pracht, E. Caldeweyher, S. Ehlert, S. Grimme, ChemRxiv, 2019, preprint.
     DOI: 10.26434/chemrxiv.8326202.v1
   for GFN-FF:
   * S. Spicher and S. Grimme, Angew. Chem. Int. Ed., 2020, 59, 15665-15673.
     DOI: 10.1002/anie.202004239
   
   for ALPB and GBSA implicit solvation:
   * S. Ehlert, M. Stahn, S. Spicher, S. Grimme, J. Chem. Theory Comput.,
     2021, 17, 4250-4261. DOI: 10.1021/acs.jctc.1c00471
   
   for ddCOSMO and CPCM-X implicit solvation:
   * M. Stahn, S. Ehlert, S. Grimme, J. Phys. Chem. A,
     2023, XX, XXXX-XXXX. DOI: 10.1021/acs.jpca.3c04382
   
   for DFT-D4:
   * E. Caldeweyher, C. Bannwarth and S. Grimme, J. Chem. Phys., 2017,
     147, 034112. DOI: 10.1063/1.4993215
   * E. Caldeweyher, S. Ehlert, A. Hansen, H. Neugebauer, S. Spicher,
     C. Bannwarth and S. Grimme, J. Chem. Phys., 2019, 150, 154122.
     DOI: 10.1063/1.5090222
   * E. Caldeweyher, J.-M. Mewes, S. Ehlert and S. Grimme, Phys. Chem. Chem. Phys.
     2020, 22, 8499-8512. DOI: 10.1039/D0CP00502A
   
   for sTDA-xTB:
   * S. Grimme and C. Bannwarth, J. Chem. Phys., 2016, 145, 054103.
     DOI: 10.1063/1.4959605
   
   in the mass-spec context:
   * V. Asgeirsson, C. Bauer and S. Grimme, Chem. Sci., 2017, 8, 4879.
     DOI: 10.1039/c7sc00601b
   * J. Koopman and S. Grimme, ACS Omega 2019, 4, 12, 15120-15133.
     DOI: 10.1021/acsomega.9b02011
   
   for metadynamics refer to:
   * S. Grimme, J. Chem. Theory Comput., 2019, 155, 2847-2862
     DOI: 10.1021/acs.jctc.9b00143
   
   for SPH calculations refer to:
   * S. Spicher and S. Grimme, J. Chem. Theory Comput., 2021, 17, 1701-1714
     DOI: 10.1021/acs.jctc.0c01306
   
   for ONIOM refer to:
   * C. Plett, A. Katbashev, S. Ehlert, S. Grimme, M. Bursch,
     Phys. Chem. Chem. Phys., 2023, 25, 17860-17868. DOI: 10.1039/D3CP02178E
   
   for DIPRO refer to:
   * J. Kohn, N. Gildemeister, S. Grimme, D. Fazzi, A. Hansen,
     J. Chem. Phys., 2023, just accepted.
   
   for PTB refer to:
   * S. Grimme, M. Mueller, A. Hansen, J. Chem. Phys., 2023, 158, 124111.
     DOI: 10.1063/5.0137838
   
   with help from (in alphabetical order)
   P. Atkinson, C. Bannwarth, F. Bohle, G. Brandenburg, E. Caldeweyher
   M. Checinski, S. Dohm, S. Ehlert, S. Ehrlich, I. Gerasimov, C. Hölzer
   A. Katbashev, J. Kohn, J. Koopman, C. Lavigne, S. Lehtola, F. März, M. Müller,
   F. Musil, H. Neugebauer, J. Pisarek, C. Plett, P. Pracht, F. Pultar,
   J. Seibert, P. Shushkov, S. Spicher, M. Stahn, M. Steiner, T. Strunk,
   J. Stückrath, T. Rose, and J. Unsleber
   
 * started run on 2025/04/03 at 21:50:14.467     
   ID    Z sym.   atoms
    1    6 C      1-8
    2    1 H      9-24

           -------------------------------------------------
          |                Calculation Setup                |
           -------------------------------------------------

          program call               : /srv/scratch/z5358697/.xtb/bin/xtb solv.coord --gfn2 --sp --chrg 0 --norestart --parallel 1 --alpb water reference -I xtb_sp-xcontrol-inp
          hostname                   : k158
          coordinate file            : solv.coord
          omp threads                :                     1


           -------------------------------------------------
          |                 G F N 2 - x T B                 |
           -------------------------------------------------

        Reference                      10.1021/acs.jctc.8b01176
      * Hamiltonian:
        H0-scaling (s, p, d)           1.850000    2.230000    2.230000
        zeta-weighting                 0.500000
      * Dispersion:
        s8                             2.700000
        a1                             0.520000
        a2                             5.000000
        s9                             5.000000
      * Repulsion:
        kExp                           1.500000    1.000000
        rExp                           1.000000
      * Coulomb:
        alpha                          2.000000
        third order                    shell-resolved
        anisotropic                    true
        a3                             3.000000
        a5                             4.000000
        cn-shift                       1.200000
        cn-exp                         4.000000
        max-rad                        5.000000

      * Solvation model:               ALPB
        Solvent                        water
        Parameter file                 internal GFN2-xTB/ALPB
        Dielectric constant                8.0200E+01
        Reference state                gsolv=reference [X=1]
        Free energy shift                  2.8945E-03 Eh       1.8164E+00 kcal/mol
        Temperature                        2.9815E+02 K
        Density                            1.0000E+00 kg/L
        Solvent mass                       1.8000E+01 g/mol
        Interaction kernel             P16
        Born radius scaling (c1)           1.4744E+00
        Born radii integrator          GBOBC
        Born offset                        0.0000E+00 a0       0.0000E+00 AA
        H-bond correction              true
        Ion screening                  false
        Surface tension                    1.0000E-05 Eh       1.5569E+01 dyn/cm
        Grid points                               974 per atom

          ...................................................
          :                      SETUP                      :
          :.................................................:
          :  # basis functions                  48          :
          :  # atomic orbitals                  48          :
          :  # shells                           32          :
          :  # electrons                        48          :
          :  max. iterations                   250          :
          :  Hamiltonian                  GFN2-xTB          :
          :  restarted?                      false          :
          :  GBSA solvation                   true          :
          :  PC potential                    false          :
          :  electronic temp.          300.0000000     K    :
          :  accuracy                    1.0000000          :
          :  -> integral cutoff          0.2500000E+02      :
          :  -> integral neglect         0.1000000E-07      :
          :  -> SCF convergence          0.1000000E-05 Eh   :
          :  -> wf. convergence          0.1000000E-03 e    :
          :  Broyden damping             0.4000000          :
          :  net charge                          0          :
          :  unpaired electrons                  0          :
          ...................................................

 iter      E             dE          RMSdq      gap      omega  full diag
   1    -25.6475438 -0.256475E+02  0.223E+00   13.19       0.0  T
   2    -25.6889173 -0.413735E-01  0.122E+00   13.13       1.0  T
   3    -25.6898327 -0.915380E-03  0.590E-01   13.08       1.0  T
   4    -25.6899726 -0.139867E-03  0.938E-02   13.04       1.0  T
   5    -25.6900080 -0.354153E-04  0.474E-02   13.04       1.0  T
   6    -25.6900085 -0.486907E-06  0.415E-03   13.04       4.9  T
   7    -25.6900086 -0.787695E-07  0.986E-04   13.04      20.7  T
   8    -25.6900086 -0.352021E-09  0.131E-04   13.04     155.4  T

   *** convergence criteria satisfied after 8 iterations ***

         #    Occupation            Energy/Eh            Energy/eV
      -------------------------------------------------------------
         1        2.0000           -0.6301629             -17.1476
       ...           ...                  ...                  ...
        18        2.0000           -0.4470905             -12.1660
        19        2.0000           -0.4390643             -11.9475
        20        2.0000           -0.4294738             -11.6866
        21        2.0000           -0.4243059             -11.5460
        22        2.0000           -0.4097350             -11.1495
        23        2.0000           -0.4035883             -10.9822
        24        2.0000           -0.4004059             -10.8956 (HOMO)
        25                          0.0789260               2.1477 (LUMO)
        26                          0.0822872               2.2391
        27                          0.0935742               2.5463
        28                          0.0995249               2.7082
        29                          0.1002137               2.7270
       ...                                ...                  ...
        48                          0.3321610               9.0386
      -------------------------------------------------------------
                  HL-Gap            0.4793319 Eh           13.0433 eV
             Fermi-level           -0.1607399 Eh           -4.3740 eV

 SCC (total)                   0 d,  0 h,  0 min,  0.014 sec
 SCC setup                      ...        0 min,  0.001 sec ( 10.059%)
 Dispersion                     ...        0 min,  0.000 sec (  0.904%)
 classical contributions        ...        0 min,  0.000 sec (  0.181%)
 integral evaluation            ...        0 min,  0.002 sec ( 12.271%)
 iterations                     ...        0 min,  0.005 sec ( 36.227%)
 molecular gradient             ...        0 min,  0.006 sec ( 39.483%)
 printout                       ...        0 min,  0.000 sec (  0.793%)

         :::::::::::::::::::::::::::::::::::::::::::::::::::::
         ::                     SUMMARY                     ::
         :::::::::::::::::::::::::::::::::::::::::::::::::::::
         :: total energy             -25.314155349454 Eh    ::
         :: total w/o Gsasa/hb       -25.315745190121 Eh    ::
         :: gradient norm              0.000065878731 Eh/a0 ::
         :: HOMO-LUMO gap             13.043285508197 eV    ::
         ::.................................................::
         :: SCC energy               -25.689896837602 Eh    ::
         :: -> isotropic ES            0.004769986108 Eh    ::
         :: -> anisotropic ES          0.007631023143 Eh    ::
         :: -> anisotropic XC          0.014350681909 Eh    ::
         :: -> dispersion             -0.017968922055 Eh    ::
         :: -> Gsolv                   0.001416005402 Eh    ::
         ::    -> Gelec               -0.000173835264 Eh    ::
         ::    -> Gsasa               -0.000895851168 Eh    ::
         ::    -> Ghb                 -0.000408857326 Eh    ::
         ::    -> Gshift               0.002894549160 Eh    ::
         :: repulsion energy           0.375741488148 Eh    ::
         :: add. restraining           0.000000000000 Eh    ::
         :: total charge               0.000000000000 e     ::
         :::::::::::::::::::::::::::::::::::::::::::::::::::::

           -------------------------------------------------
          |                Property Printout                |
           -------------------------------------------------

    * Orbital Energies and Occupations

         #    Occupation            Energy/Eh            Energy/eV
      -------------------------------------------------------------
         1        2.0000           -0.6301629             -17.1476
       ...           ...                  ...                  ...
        12        2.0000           -0.4870258             -13.2526
        13        2.0000           -0.4864310             -13.2365
        14        2.0000           -0.4738180             -12.8932
        15        2.0000           -0.4599046             -12.5146
        16        2.0000           -0.4572827             -12.4433
        17        2.0000           -0.4527291             -12.3194
        18        2.0000           -0.4470905             -12.1660
        19        2.0000           -0.4390643             -11.9475
        20        2.0000           -0.4294738             -11.6866
        21        2.0000           -0.4243059             -11.5460
        22        2.0000           -0.4097350             -11.1495
        23        2.0000           -0.4035883             -10.9822
        24        2.0000           -0.4004059             -10.8956 (HOMO)
        25                          0.0789260               2.1477 (LUMO)
        26                          0.0822872               2.2391
        27                          0.0935742               2.5463
        28                          0.0995249               2.7082
        29                          0.1002137               2.7270
        30                          0.1150819               3.1315
        31                          0.1245146               3.3882
        32                          0.1288198               3.5054
        33                          0.1486304               4.0444
        34                          0.1716167               4.6699
        35                          0.1860451               5.0625
       ...                                ...                  ...
        48                          0.3321610               9.0386
      -------------------------------------------------------------
                  HL-Gap            0.4793319 Eh           13.0433 eV
             Fermi-level           -0.1607399 Eh           -4.3740 eV

     #   Z          covCN         q      C6AA      α(0)
     1   6 C        3.754    -0.110    22.661     6.788
     2   6 C        3.851    -0.015    20.801     6.487
     3   6 C        3.806    -0.061    21.670     6.627
     4   6 C        3.806    -0.061    21.670     6.627
     5   6 C        3.851    -0.015    20.801     6.487
     6   6 C        3.806    -0.061    21.670     6.627
     7   6 C        3.806    -0.061    21.670     6.627
     8   6 C        3.754    -0.110    22.661     6.788
     9   1 H        0.925     0.033     2.541     2.493
    10   1 H        0.925     0.033     2.541     2.493
    11   1 H        0.925     0.039     2.458     2.452
    12   1 H        0.924     0.021     2.716     2.577
    13   1 H        0.924     0.032     2.564     2.504
    14   1 H        0.924     0.028     2.609     2.526
    15   1 H        0.924     0.028     2.609     2.526
    16   1 H        0.924     0.032     2.564     2.504
    17   1 H        0.924     0.021     2.716     2.577
    18   1 H        0.924     0.028     2.609     2.526
    19   1 H        0.924     0.032     2.564     2.504
    20   1 H        0.924     0.032     2.564     2.504
    21   1 H        0.924     0.028     2.609     2.526
    22   1 H        0.925     0.033     2.541     2.493
    23   1 H        0.925     0.039     2.459     2.452
    24   1 H        0.925     0.033     2.541     2.493

 Mol. C6AA /au·bohr⁶  :       3949.007061
 Mol. C8AA /au·bohr⁸  :      83677.413125
 Mol. α(0) /au        :         93.209134


Wiberg/Mayer (AO) data.
largest (>0.10) Wiberg bond orders for each atom

 ---------------------------------------------------------------------------
     #   Z sym  total        # sym  WBO       # sym  WBO       # sym  WBO
 ---------------------------------------------------------------------------
     1   6 C    3.997 --     2 C    1.010     9 H    0.987    10 H    0.987
                            11 H    0.982
     2   6 C    3.996 --     1 C    1.010     7 C    0.997     3 C    0.997
                            12 H    0.969
     3   6 C    3.998 --     4 C    1.009     2 C    0.997    14 H    0.976
                            13 H    0.975
     4   6 C    3.998 --     3 C    1.009     5 C    0.997    15 H    0.976
                            16 H    0.975
     5   6 C    3.996 --     8 C    1.010     6 C    0.997     4 C    0.997
                            17 H    0.969
     6   6 C    3.998 --     7 C    1.009     5 C    0.997    18 H    0.976
                            19 H    0.976
     7   6 C    3.998 --     6 C    1.009     2 C    0.997    21 H    0.976
                            20 H    0.976
     8   6 C    3.997 --     5 C    1.010    22 H    0.987    24 H    0.987
                            23 H    0.982
     9   1 H    0.999 --     1 C    0.987
    10   1 H    0.999 --     1 C    0.987
    11   1 H    0.998 --     1 C    0.982
    12   1 H    1.000 --     2 C    0.969
    13   1 H    0.999 --     3 C    0.975
    14   1 H    0.999 --     3 C    0.976
    15   1 H    0.999 --     4 C    0.976
    16   1 H    0.999 --     4 C    0.975
    17   1 H    1.000 --     5 C    0.969
    18   1 H    0.999 --     6 C    0.976
    19   1 H    0.999 --     6 C    0.976
    20   1 H    0.999 --     7 C    0.976
    21   1 H    0.999 --     7 C    0.976
    22   1 H    0.999 --     8 C    0.987
    23   1 H    0.998 --     8 C    0.982
    24   1 H    0.999 --     8 C    0.987
 ---------------------------------------------------------------------------

Topologies differ in total number of bonds
Writing topology from bond orders to xtbtopo.mol

molecular dipole:
                 x           y           z       tot (Debye)
 q only:       -0.000      -0.000      -0.000
   full:       -0.000      -0.000      -0.000       0.000
molecular quadrupole (traceless):
                xx          xy          yy          xz          yz          zz
 q only:       -0.125      -0.000       0.018       0.246      -0.000       0.108
  q+dip:       -0.471      -0.000      -0.012       0.267      -0.000       0.482
   full:       -0.253      -0.000      -0.006       0.257      -0.000       0.259


           -------------------------------------------------
          | TOTAL ENERGY              -25.314155349454 Eh   |
          | GRADIENT NORM               0.000065878731 Eh/α |
          | HOMO-LUMO GAP              13.043285508197 eV   |
           -------------------------------------------------

------------------------------------------------------------------------
 * finished run on 2025/04/03 at 21:50:14.511     
------------------------------------------------------------------------
 total:
 * wall-time:     0 d,  0 h,  0 min,  0.043 sec
 *  cpu-time:     0 d,  0 h,  0 min,  0.022 sec
 * ratio c/w:     0.519 speedup
 SCF:
 * wall-time:     0 d,  0 h,  0 min,  0.015 sec
 *  cpu-time:     0 d,  0 h,  0 min,  0.014 sec
 * ratio c/w:     0.992 speedup

