13
 energy: -195.257913078655 gnorm: 0.020550455990 xtb: 6.7.1 (edcfbbe)
C            0.00523479360232        1.24924461115357        0.11103572594920
C            1.22711910244377        0.33413864314807       -0.08701815183856
C            0.65618573669077       -1.04721129446405        0.03669866831626
C           -0.66493909879465       -1.04172416236162        0.03675170241629
C           -1.22428470974251        0.34434022445259       -0.08704852373857
H            0.00888394860394        2.08968565742600       -0.58003042975703
H            0.00687111260304        1.64796993123026        1.12567028449881
H            1.67136464034063        0.46406431620564       -1.07768975417755
H            2.00835161208995        0.52177186893121        0.65050947668826
H            1.29100462437208       -1.91483271434851        0.09230378014090
H           -1.30694775597914       -1.90400959174372        0.09234571004092
H           -1.66742177663888        0.47790365331177       -1.07776416617759
H           -2.00395368978800        0.53846703013861        0.65049609948825
13
 energy: -195.258657763039 gnorm: 0.005432379313 xtb: 6.7.1 (edcfbbe)
C            0.00523454985754        1.25262687953658        0.11260121411549
C            1.23412726925378        0.33559472418629       -0.08893919081922
C            0.66141993338845       -1.04999330167786        0.04505411862585
C           -0.67013547577106       -1.04443427293605        0.04503378687344
C           -1.23127841054599        0.34588429342764       -0.08895794907425
H            0.00882660959843        2.10313163190401       -0.57203523476661
H            0.00687348124981        1.65007850472320        1.13102742852922
H            1.68397420327041        0.46443130846023       -1.08188814154524
H            2.02582774721433        0.52854664235317        0.64184352645415
H            1.29301360549005       -1.93042238898294        0.09132082736300
H           -1.30905388334268       -1.91955276918392        0.09129949126485
H           -1.68001410817759        0.47846595908208       -1.08192130541260
H           -2.02134715163625        0.54545088548881        0.64182197233879
13
 energy: -195.258740830800 gnorm: 0.001471054131 xtb: 6.7.1 (edcfbbe)
C            0.00523727454775        1.25474989416154        0.11379789259344
C            1.23566453349024        0.33595712990458       -0.09092122551096
C            0.66286050523454       -1.05116732615517        0.04655913304629
C           -0.67158527971608       -1.04559234940861        0.04654047995818
C           -1.23281028433690        0.34626368777206       -0.09094785169559
H            0.00884397463781        2.11211753501886       -0.56436981882308
H            0.00686498298710        1.64566886305639        1.13599748869651
H            1.68563473020057        0.46376559521014       -1.08571380839627
H            2.03207042360221        0.53433338047345        0.63566923155818
H            1.28906795359132       -1.93811843019844        0.09488961014670
H           -1.30517628699537       -1.92728354028666        0.09486312537656
H           -1.68167572775412        0.47783406262523       -1.08574511638645
H           -2.02752860047676        0.55127946102910        0.63564162272315
13
 energy: -195.258770233994 gnorm: 0.001407404236 xtb: 6.7.1 (edcfbbe)
C            0.00523000360433        1.25403295614452        0.11625009568138
C            1.23661805707144        0.33653736464490       -0.09397036069444
C            0.66322022881741       -1.04977503948590        0.04952450675297
C           -0.67193980468538       -1.04419748918745        0.04949961945739
C           -1.23375965232031        0.34685332444302       -0.09399367717249
H            0.00887027927104        2.11757351175292       -0.55434114919758
H            0.00682535788650        1.63528077012618        1.14247826469735
H            1.68126712363765        0.46289446183443       -1.09186258380662
H            2.03726637075480        0.53889658208358        0.62733196847496
H            1.28361769912832       -1.94094048203492        0.09998024778282
H           -1.29975012233589       -1.93015787971813        0.09994331581798
H           -1.67731113000738        0.47693741617019       -1.09188755473443
H           -2.03268646441508        0.55587227485874        0.62730840424926
13
 energy: -195.258806913579 gnorm: 0.001658664178 xtb: 6.7.1 (edcfbbe)
C            0.00522070639202        1.25326810763379        0.12128464755389
C            1.23517696949232        0.33710589509753       -0.09936834532823
C            0.66307453756547       -1.04775401263227        0.05434052012318
C           -0.67179092580649       -1.04217517070044        0.05431468988577
C           -1.23231652052217        0.34740461522844       -0.09939560265616
H            0.00892134631515        2.12658364553437       -0.53624222982426
H            0.00675180288037        1.61704246139372        1.15394693790605
H            1.66700233659822        0.46080657480501       -1.10320156933729
H            2.04280874439231        0.54418875852197        0.61226008368300
H            1.27787096861165       -1.94166547884673        0.10967220122965
H           -1.29400232900973       -1.93093099587457        0.10963927682819
H           -1.66306947339074        0.47473193895871       -1.10322338374169
H           -2.03818067071088        0.56120105630798        0.61223450898791
13
 energy: -195.258845705887 gnorm: 0.002114222241 xtb: 6.7.1 (edcfbbe)
C            0.00521811919987        1.25039786631905        0.13005701626522
C            1.23358351571308        0.33826707949022       -0.10718443313971
C            0.66311875545948       -1.04499006616438        0.06184817275733
C           -0.67178427681247       -1.03940828464279        0.06182984151083
C           -1.23071081396404        0.34857572662901       -0.10720595844880
H            0.00896703013094        2.13784319250269       -0.50831323944618
H            0.00662195367257        1.58993550563530        1.17126477551616
H            1.64441006490933        0.45749286876393       -1.12052992764188
H            2.05364645386042        0.55062357727467        0.58816906214918
H            1.27573417080509       -1.93931361578366        0.12438325720236
H           -1.29184132203067       -1.92859253036809        0.12434414564012
H           -1.64051522237758        0.47123983646453       -1.12055935540502
H           -2.04898164738582        0.56773566926143        0.58815935244703
13
 energy: -195.258871134893 gnorm: 0.001958531181 xtb: 6.7.1 (edcfbbe)
C            0.00521353046366        1.24958623373360        0.13741431504314
C            1.23065966814466        0.33899495269714       -0.11354090765849
C            0.66312193457417       -1.04444637694090        0.06786596662147
C           -0.67179281462006       -1.03887590046506        0.06784377678481
C           -1.22778241596217        0.34927164495415       -0.11356788934666
H            0.00902809414491        2.14871918556909       -0.48476198916612
H            0.00654512610278        1.56906656439501        1.18531741505825
H            1.62413677061389        0.45476325185925       -1.13443308201087
H            2.06143094558129        0.55533221934310        0.56760387333528
H            1.27750874916423       -1.93707782381336        0.13671533364967
H           -1.29360829152533       -1.92635291773191        0.13667719665413
H           -1.62027634598843        0.46832449974569       -1.13446258546290
H           -2.05671875544812        0.57250080292775        0.56759210482654
13
 energy: -195.258884211597 gnorm: 0.000471432011 xtb: 6.7.1 (edcfbbe)
C            0.00520442312501        1.24785798355413        0.14391472567038
C            1.22824724254764        0.33986994040366       -0.11826502412436
C            0.66309936423124       -1.04436148273022        0.07245774139600
C           -0.67177567730662       -1.03879211700252        0.07243709780781
C           -1.22536129816503        0.35011627800876       -0.11829362790338
H            0.00905319115999        2.15497584949184       -0.46554575123243
H            0.00647294181122        1.55214373982735        1.19581512149660
H            1.60628141140294        0.45267600174738       -1.14504809417688
H            2.06808924195497        0.55788993145614        0.55018927429944
H            1.28386190456339       -1.93227671612856        0.14677047007770
H           -1.29992278483676       -1.92149463042696        0.14673212484646
H           -1.60244101493812        0.46607946917051       -1.14507038723133
H           -2.06334323220403        0.57512169619991        0.55017051929262
13
 energy: -195.258886433373 gnorm: 0.000542698647 xtb: 6.7.1 (edcfbbe)
C            0.00521097588560        1.24877597478227        0.14081929104495
C            1.22902291253552        0.33951124883743       -0.11548347787350
C            0.66312935041622       -1.04525895134409        0.06987984881662
C           -0.67180527203039       -1.03968068816666        0.06986331346811
C           -1.22613812512570        0.34977018453229       -0.11550785532090
H            0.00902261343403        2.15088123791712       -0.47575233210622
H            0.00650908982361        1.56189544898683        1.18979863269886
H            1.61456351469362        0.45368431282704       -1.13889141735101
H            2.06440058271085        0.55550906518766        0.55891731723616
H            1.28478539462841       -1.93298022489365        0.14133652689068
H           -1.30084599474201       -1.92218473770533        0.14130188123175
H           -1.61070631881357        0.46716343544826       -1.13891616879325
H           -2.05968275407706        0.57271984420868        0.55889827660048
13
 energy: -195.258886433373 gnorm: 0.000542698647 xtb: 6.7.1 (edcfbbe)
C            0.00521097588560        1.24877597478227        0.14081929104495
C            1.22902291253552        0.33951124883743       -0.11548347787350
C            0.66312935041622       -1.04525895134409        0.06987984881662
C           -0.67180527203039       -1.03968068816666        0.06986331346811
C           -1.22613812512570        0.34977018453229       -0.11550785532090
H            0.00902261343403        2.15088123791712       -0.47575233210622
H            0.00650908982361        1.56189544898683        1.18979863269886
H            1.61456351469362        0.45368431282704       -1.13889141735101
H            2.06440058271085        0.55550906518766        0.55891731723616
H            1.28478539462841       -1.93298022489365        0.14133652689068
H           -1.30084599474201       -1.92218473770533        0.14130188123175
H           -1.61070631881357        0.46716343544826       -1.13891616879325
H           -2.05968275407706        0.57271984420868        0.55889827660048
