      -----------------------------------------------------------      
     |                   =====================                   |     
     |                           x T B                           |     
     |                   =====================                   |     
     |                         S. Grimme                         |     
     |          Mulliken Center for Theoretical Chemistry        |     
     |                    University of Bonn                     |     
      -----------------------------------------------------------      

   * xtb version 6.7.1 (edcfbbe) compiled by 'albert@albert-system' on 2024-07-22

   xtb is free software: you can redistribute it and/or modify it under
   the terms of the GNU Lesser General Public License as published by
   the Free Software Foundation, either version 3 of the License, or
   (at your option) any later version.
   
   xtb is distributed in the hope that it will be useful,
   but WITHOUT ANY WARRANTY; without even the implied warranty of
   MERCHANTABILITY or FITNESS FOR A PARTICULAR PURPOSE.  See the
   GNU Lesser General Public License for more details.
   
   Cite this work as:
   * C. Bannwarth, E. Caldeweyher, S. Ehlert, A. Hansen, P. Pracht,
     J. Seibert, S. Spicher, S. Grimme, WIREs Comput. Mol. Sci., 2020, 11,
     e01493. DOI: 10.1002/wcms.1493
   
   for GFN2-xTB:
   * C. Bannwarth, S. Ehlert and S. Grimme., J. Chem. Theory Comput., 2019,
     15, 1652-1671. DOI: 10.1021/acs.jctc.8b01176
   for GFN1-xTB:
   * S. Grimme, C. Bannwarth, P. Shushkov, J. Chem. Theory Comput., 2017,
     13, 1989-2009. DOI: 10.1021/acs.jctc.7b00118
   for GFN0-xTB:
   * P. Pracht, E. Caldeweyher, S. Ehlert, S. Grimme, ChemRxiv, 2019, preprint.
     DOI: 10.26434/chemrxiv.8326202.v1
   for GFN-FF:
   * S. Spicher and S. Grimme, Angew. Chem. Int. Ed., 2020, 59, 15665-15673.
     DOI: 10.1002/anie.202004239
   
   for ALPB and GBSA implicit solvation:
   * S. Ehlert, M. Stahn, S. Spicher, S. Grimme, J. Chem. Theory Comput.,
     2021, 17, 4250-4261. DOI: 10.1021/acs.jctc.1c00471
   
   for ddCOSMO and CPCM-X implicit solvation:
   * M. Stahn, S. Ehlert, S. Grimme, J. Phys. Chem. A,
     2023, XX, XXXX-XXXX. DOI: 10.1021/acs.jpca.3c04382
   
   for DFT-D4:
   * E. Caldeweyher, C. Bannwarth and S. Grimme, J. Chem. Phys., 2017,
     147, 034112. DOI: 10.1063/1.4993215
   * E. Caldeweyher, S. Ehlert, A. Hansen, H. Neugebauer, S. Spicher,
     C. Bannwarth and S. Grimme, J. Chem. Phys., 2019, 150, 154122.
     DOI: 10.1063/1.5090222
   * E. Caldeweyher, J.-M. Mewes, S. Ehlert and S. Grimme, Phys. Chem. Chem. Phys.
     2020, 22, 8499-8512. DOI: 10.1039/D0CP00502A
   
   for sTDA-xTB:
   * S. Grimme and C. Bannwarth, J. Chem. Phys., 2016, 145, 054103.
     DOI: 10.1063/1.4959605
   
   in the mass-spec context:
   * V. Asgeirsson, C. Bauer and S. Grimme, Chem. Sci., 2017, 8, 4879.
     DOI: 10.1039/c7sc00601b
   * J. Koopman and S. Grimme, ACS Omega 2019, 4, 12, 15120-15133.
     DOI: 10.1021/acsomega.9b02011
   
   for metadynamics refer to:
   * S. Grimme, J. Chem. Theory Comput., 2019, 155, 2847-2862
     DOI: 10.1021/acs.jctc.9b00143
   
   for SPH calculations refer to:
   * S. Spicher and S. Grimme, J. Chem. Theory Comput., 2021, 17, 1701-1714
     DOI: 10.1021/acs.jctc.0c01306
   
   for ONIOM refer to:
   * C. Plett, A. Katbashev, S. Ehlert, S. Grimme, M. Bursch,
     Phys. Chem. Chem. Phys., 2023, 25, 17860-17868. DOI: 10.1039/D3CP02178E
   
   for DIPRO refer to:
   * J. Kohn, N. Gildemeister, S. Grimme, D. Fazzi, A. Hansen,
     J. Chem. Phys., 2023, just accepted.
   
   for PTB refer to:
   * S. Grimme, M. Mueller, A. Hansen, J. Chem. Phys., 2023, 158, 124111.
     DOI: 10.1063/5.0137838
   
   with help from (in alphabetical order)
   P. Atkinson, C. Bannwarth, F. Bohle, G. Brandenburg, E. Caldeweyher
   M. Checinski, S. Dohm, S. Ehlert, S. Ehrlich, I. Gerasimov, C. Hölzer
   A. Katbashev, J. Kohn, J. Koopman, C. Lavigne, S. Lehtola, F. März, M. Müller,
   F. Musil, H. Neugebauer, J. Pisarek, C. Plett, P. Pracht, F. Pultar,
   J. Seibert, P. Shushkov, S. Spicher, M. Stahn, M. Steiner, T. Strunk,
   J. Stückrath, T. Rose, and J. Unsleber
   
 * started run on 2025/04/03 at 21:53:28.289     
   ID    Z sym.   atoms
    1    6 C      1-5
    2   16 S      6
    3    1 H      7-12

           -------------------------------------------------
          |                Calculation Setup                |
           -------------------------------------------------

          program call               : /srv/scratch/z5358697/.xtb/bin/xtb solv.coord --gfn2 --sp --chrg 0 --norestart --parallel 1 --alpb water reference -I xtb_sp-xcontrol-inp
          hostname                   : k142
          coordinate file            : solv.coord
          omp threads                :                     1


           -------------------------------------------------
          |                 G F N 2 - x T B                 |
           -------------------------------------------------

        Reference                      10.1021/acs.jctc.8b01176
      * Hamiltonian:
        H0-scaling (s, p, d)           1.850000    2.230000    2.230000
        zeta-weighting                 0.500000
      * Dispersion:
        s8                             2.700000
        a1                             0.520000
        a2                             5.000000
        s9                             5.000000
      * Repulsion:
        kExp                           1.500000    1.000000
        rExp                           1.000000
      * Coulomb:
        alpha                          2.000000
        third order                    shell-resolved
        anisotropic                    true
        a3                             3.000000
        a5                             4.000000
        cn-shift                       1.200000
        cn-exp                         4.000000
        max-rad                        5.000000

      * Solvation model:               ALPB
        Solvent                        water
        Parameter file                 internal GFN2-xTB/ALPB
        Dielectric constant                8.0200E+01
        Reference state                gsolv=reference [X=1]
        Free energy shift                  2.8945E-03 Eh       1.8164E+00 kcal/mol
        Temperature                        2.9815E+02 K
        Density                            1.0000E+00 kg/L
        Solvent mass                       1.8000E+01 g/mol
        Interaction kernel             P16
        Born radius scaling (c1)           1.4744E+00
        Born radii integrator          GBOBC
        Born offset                        0.0000E+00 a0       0.0000E+00 AA
        H-bond correction              true
        Ion screening                  false
        Surface tension                    1.0000E-05 Eh       1.5569E+01 dyn/cm
        Grid points                               974 per atom

          ...................................................
          :                      SETUP                      :
          :.................................................:
          :  # basis functions                  36          :
          :  # atomic orbitals                  35          :
          :  # shells                           19          :
          :  # electrons                        32          :
          :  max. iterations                   250          :
          :  Hamiltonian                  GFN2-xTB          :
          :  restarted?                      false          :
          :  GBSA solvation                   true          :
          :  PC potential                    false          :
          :  electronic temp.          300.0000000     K    :
          :  accuracy                    1.0000000          :
          :  -> integral cutoff          0.2500000E+02      :
          :  -> integral neglect         0.1000000E-07      :
          :  -> SCF convergence          0.1000000E-05 Eh   :
          :  -> wf. convergence          0.1000000E-03 e    :
          :  Broyden damping             0.4000000          :
          :  net charge                          0          :
          :  unpaired electrons                  0          :
          ...................................................

 iter      E             dE          RMSdq      gap      omega  full diag
   1    -17.2386447 -0.172386E+02  0.404E+00    3.88       0.0  T
   2    -17.2482411 -0.959642E-02  0.230E+00    3.93       1.0  T
   3    -17.2442173  0.402389E-02  0.983E-01    3.93       1.0  T
   4    -17.2502992 -0.608199E-02  0.362E-01    3.91       1.0  T
   5    -17.2506138 -0.314539E-03  0.138E-01    3.90       1.0  T
   6    -17.2506632 -0.493646E-04  0.654E-02    3.90       1.0  T
   7    -17.2506816 -0.184346E-04  0.192E-02    3.90       1.5  T
   8    -17.2506818 -0.213334E-06  0.872E-03    3.90       3.3  T
   9    -17.2506820 -0.174057E-06  0.353E-03    3.90       8.2  T
  10    -17.2506820 -0.191875E-07  0.108E-03    3.90      26.6  T
  11    -17.2506820 -0.221350E-08  0.451E-04    3.90      64.0  T
  12    -17.2506820 -0.524690E-09  0.125E-04    3.90     231.7  T

   *** convergence criteria satisfied after 12 iterations ***

         #    Occupation            Energy/Eh            Energy/eV
      -------------------------------------------------------------
         1        2.0000           -0.7244103             -19.7122
       ...           ...                  ...                  ...
        10        2.0000           -0.4646223             -12.6430
        11        2.0000           -0.4619756             -12.5710
        12        2.0000           -0.4611032             -12.5473
        13        2.0000           -0.4457089             -12.1284
        14        2.0000           -0.4414225             -12.0117
        15        2.0000           -0.3912977             -10.6478
        16        2.0000           -0.3799547             -10.3391 (HOMO)
        17                         -0.2365632              -6.4372 (LUMO)
        18                         -0.1972260              -5.3668
        19                         -0.1610669              -4.3829
        20                         -0.1132510              -3.0817
        21                          0.0001651               0.0045
       ...                                ...                  ...
        35                          0.7041541              19.1610
      -------------------------------------------------------------
                  HL-Gap            0.1433915 Eh            3.9019 eV
             Fermi-level           -0.3082590 Eh           -8.3882 eV

 SCC (total)                   0 d,  0 h,  0 min,  0.009 sec
 SCC setup                      ...        0 min,  0.001 sec (  7.433%)
 Dispersion                     ...        0 min,  0.000 sec (  0.613%)
 classical contributions        ...        0 min,  0.000 sec (  0.165%)
 integral evaluation            ...        0 min,  0.002 sec ( 24.570%)
 iterations                     ...        0 min,  0.003 sec ( 38.721%)
 molecular gradient             ...        0 min,  0.002 sec ( 26.883%)
 printout                       ...        0 min,  0.000 sec (  1.431%)

         :::::::::::::::::::::::::::::::::::::::::::::::::::::
         ::                     SUMMARY                     ::
         :::::::::::::::::::::::::::::::::::::::::::::::::::::
         :: total energy             -16.985801660599 Eh    ::
         :: total w/o Gsasa/hb       -16.988711704329 Eh    ::
         :: gradient norm              0.000045632385 Eh/a0 ::
         :: HOMO-LUMO gap              3.901880932600 eV    ::
         ::.................................................::
         :: SCC energy               -17.250675699585 Eh    ::
         :: -> isotropic ES            0.003074106849 Eh    ::
         :: -> anisotropic ES          0.001620363448 Eh    ::
         :: -> anisotropic XC          0.009703540160 Eh    ::
         :: -> dispersion             -0.008744072284 Eh    ::
         :: -> Gsolv                   0.002141234932 Eh    ::
         ::    -> Gelec               -0.000768808798 Eh    ::
         ::    -> Gsasa                0.000679645040 Eh    ::
         ::    -> Ghb                 -0.000664150470 Eh    ::
         ::    -> Gshift               0.002894549160 Eh    ::
         :: repulsion energy           0.264874038986 Eh    ::
         :: add. restraining           0.000000000000 Eh    ::
         :: total charge               0.000000000000 e     ::
         :::::::::::::::::::::::::::::::::::::::::::::::::::::

           -------------------------------------------------
          |                Property Printout                |
           -------------------------------------------------

    * Orbital Energies and Occupations

         #    Occupation            Energy/Eh            Energy/eV
      -------------------------------------------------------------
         1        2.0000           -0.7244103             -19.7122
       ...           ...                  ...                  ...
         4        2.0000           -0.5927869             -16.1306
         5        2.0000           -0.5595927             -15.2273
         6        2.0000           -0.5462785             -14.8650
         7        2.0000           -0.5227743             -14.2254
         8        2.0000           -0.4962483             -13.5036
         9        2.0000           -0.4879536             -13.2779
        10        2.0000           -0.4646223             -12.6430
        11        2.0000           -0.4619756             -12.5710
        12        2.0000           -0.4611032             -12.5473
        13        2.0000           -0.4457089             -12.1284
        14        2.0000           -0.4414225             -12.0117
        15        2.0000           -0.3912977             -10.6478
        16        2.0000           -0.3799547             -10.3391 (HOMO)
        17                         -0.2365632              -6.4372 (LUMO)
        18                         -0.1972260              -5.3668
        19                         -0.1610669              -4.3829
        20                         -0.1132510              -3.0817
        21                          0.0001651               0.0045
        22                          0.0291661               0.7937
        23                          0.0374519               1.0191
        24                          0.1193073               3.2465
        25                          0.1511183               4.1121
        26                          0.1752028               4.7675
        27                          0.2003030               5.4505
       ...                                ...                  ...
        35                          0.7041541              19.1610
      -------------------------------------------------------------
                  HL-Gap            0.1433915 Eh            3.9019 eV
             Fermi-level           -0.3082590 Eh           -8.3882 eV

     #   Z          covCN         q      C6AA      α(0)
     1   6 C        3.776    -0.124    22.896     6.817
     2   6 C        2.982     0.028    27.382     8.584
     3   6 C        3.123    -0.066    29.446     8.887
     4   6 C        3.114    -0.053    29.148     8.844
     5   6 C        2.939    -0.030    28.748     8.794
     6  16 S        2.338    -0.072   144.027    20.199
     7   1 H        0.925     0.061     2.186     2.312
     8   1 H        0.925     0.067     2.123     2.279
     9   1 H        0.925     0.067     2.123     2.279
    10   1 H        0.926     0.039     2.465     2.455
    11   1 H        0.926     0.038     2.475     2.460
    12   1 H        0.926     0.045     2.380     2.412

 Mol. C6AA /au·bohr⁶  :       2230.663417
 Mol. C8AA /au·bohr⁸  :      65628.209668
 Mol. α(0) /au        :         76.320659


Wiberg/Mayer (AO) data.
largest (>0.10) Wiberg bond orders for each atom

 ---------------------------------------------------------------------------
     #   Z sym  total        # sym  WBO       # sym  WBO       # sym  WBO
 ---------------------------------------------------------------------------
     1   6 C    3.993 --     2 C    1.041     7 H    0.979     9 H    0.968
                             8 H    0.968
     2   6 C    3.950 --     3 C    1.613     6 S    1.151     1 C    1.041
                             5 C    0.115
     3   6 C    3.984 --     2 C    1.613     4 C    1.258    10 H    0.964
     4   6 C    3.988 --     5 C    1.644     3 C    1.258    11 H    0.965
     5   6 C    3.945 --     4 C    1.644     6 S    1.175    12 H    0.970
                             2 C    0.115
     6  16 S    2.580 --     5 C    1.175     2 C    1.151
     7   1 H    0.996 --     1 C    0.979
     8   1 H    0.995 --     1 C    0.968
     9   1 H    0.995 --     1 C    0.968
    10   1 H    0.998 --     3 C    0.964
    11   1 H    0.998 --     4 C    0.965
    12   1 H    0.998 --     5 C    0.970
 ---------------------------------------------------------------------------

Topologies differ in total number of bonds
Writing topology from bond orders to xtbtopo.mol

molecular dipole:
                 x           y           z       tot (Debye)
 q only:        0.394       0.144       0.000
   full:        0.262       0.383       0.000       1.179
molecular quadrupole (traceless):
                xx          xy          yy          xz          yz          zz
 q only:        3.229       0.201      -1.391       0.001       0.000      -1.837
  q+dip:        4.194       0.405      -1.047       0.001       0.000      -3.147
   full:        4.224       0.463      -1.914       0.001       0.000      -2.311


           -------------------------------------------------
          | TOTAL ENERGY              -16.985801660599 Eh   |
          | GRADIENT NORM               0.000045632385 Eh/α |
          | HOMO-LUMO GAP               3.901880932600 eV   |
           -------------------------------------------------

------------------------------------------------------------------------
 * finished run on 2025/04/03 at 21:53:28.326     
------------------------------------------------------------------------
 total:
 * wall-time:     0 d,  0 h,  0 min,  0.037 sec
 *  cpu-time:     0 d,  0 h,  0 min,  0.016 sec
 * ratio c/w:     0.448 speedup
 SCF:
 * wall-time:     0 d,  0 h,  0 min,  0.009 sec
 *  cpu-time:     0 d,  0 h,  0 min,  0.009 sec
 * ratio c/w:     0.990 speedup

