24
 energy: -43.383499878541 gnorm: 0.057736599754 xtb: 6.7.1 (edcfbbe)
C           -2.54915047501585       -0.92755830909323        0.35833603614391
C           -1.11165450371989       -0.49222094279878        0.58333012066469
H           -0.93102130380536       -0.48583962660419        1.67161268904940
C           -0.79210952579698        0.89181870934770        0.01734693023219
H           -0.99003008379054        0.89556680273047       -1.06596295848986
C            0.67776833300899        1.21591640222103        0.24065575914816
H            0.86198055665605        1.30226961440412        1.32338516531318
C            1.55841297590038        0.10937874699532       -0.32197662374306
H            1.44029113138106        0.06435917430208       -1.41527120993440
C            1.12653142066035       -1.23360670590183        0.25893781415368
H            1.26434672735814       -1.25064813616625        1.35289886681054
O           -0.25546780771049       -1.45973247116303       -0.04625661287154
O            1.87593212717868       -2.24321240947966       -0.36340080560204
O            2.90854430169875        0.41762671228259        0.03088925685355
O            0.93765749651428        2.47024316472882       -0.40080913908020
O           -1.63755532806945        1.83536267956890        0.68174637809514
O           -2.93679840956186       -0.93490382398633       -1.02136135882863
H           -3.21328139790885       -0.28683547208540        0.94982846412549
H           -2.65749748702861       -1.95556239651755        0.71717278972867
H            1.84428203330510       -3.03311349655507        0.19275640384798
H            3.48218803264431       -0.19359598380842       -0.44995280255342
H            1.83251780952547        2.74178972689628       -0.15790644089780
H           -1.40931108613241        2.71138407040886        0.34230052713926
H           -3.10564690081455       -0.02201245792069       -1.28719255025002
24
 energy: -43.386462765824 gnorm: 0.030649718316 xtb: 6.7.1 (edcfbbe)
C           -2.55156359049407       -0.93370112872638        0.35388943001384
C           -1.10464203163694       -0.50054408176365        0.58048485155949
H           -0.92255905944235       -0.48395413608938        1.66653893632892
C           -0.79835545190645        0.89137604734620        0.01948016887673
H           -0.98804496380857        0.89601376795412       -1.06302587360077
C            0.67427751967986        1.22629711556988        0.24421232814001
H            0.86554145516898        1.31468753538992        1.32366507528314
C            1.56070292814759        0.11835931581410       -0.31920279666032
H            1.44437221570838        0.07090149454698       -1.40996902057258
C            1.12731696065701       -1.23171219545078        0.25742414586615
H            1.27206382455348       -1.23153374839957        1.35060705513031
O           -0.24776483879637       -1.46896119591449       -0.02206627119734
O            1.87812201167508       -2.23125012778333       -0.35415801396795
O            2.90159862103513        0.41910333103772        0.02846141746137
O            0.93086998812626        2.46994931510783       -0.39018047137602
O           -1.63855286725069        1.82865783560629        0.67098066383861
O           -2.94586977567555       -0.93754263427115       -1.00738855233921
H           -3.20565815714151       -0.28187516946261        0.94162841907054
H           -2.66098665217144       -1.96461492200599        0.69779458534952
H            1.81834828450733       -3.04644922714495        0.16685288105139
H            3.48122913844580       -0.20366751859349       -0.43277737116307
H            1.83822030799674        2.73246574531228       -0.17878764151324
H           -1.39923983633168        2.70996526911481        0.34734732612544
H           -3.10849739456932       -0.02509711538865       -1.28070457265010
24
 energy: -43.388086734174 gnorm: 0.014656673902 xtb: 6.7.1 (edcfbbe)
C           -2.55221255775104       -0.94098242328659        0.34729779108674
C           -1.09452638589929       -0.50814266337646        0.58157038943746
H           -0.92166130672962       -0.47664041095811        1.66926174148931
C           -0.80333123538672        0.89046777947299        0.01822797435101
H           -0.97668063748593        0.88906998318831       -1.06717242547960
C            0.67296093859098        1.23876534326629        0.24614249198892
H            0.86489592618642        1.31996994014526        1.32589268180577
C            1.56534677630638        0.12908342363354       -0.31898915368349
H            1.44417061438627        0.08246224660931       -1.40880012066475
C            1.12822824822150       -1.22643174935208        0.26260066509303
H            1.28609110268251       -1.20221336017089        1.35875543611761
O           -0.23752411802189       -1.47309356776176        0.00702012895829
O            1.88233273762676       -2.20766548333356       -0.34073320664729
O            2.89244218093020        0.42490591134603        0.02677243307438
O            0.91777778073147        2.47235114502471       -0.37783525716298
O           -1.64589160934098        1.81195995637527        0.65421398039529
O           -2.95033028892885       -0.93615367786704       -0.99498052507087
H           -3.18962769404681       -0.28444498938621        0.94651543111015
H           -2.65570229893771       -1.97453207997134        0.67948245391813
H            1.75959396518445       -3.06831181254035        0.11118738302271
H            3.48265105765467       -0.22096209325364       -0.39396321180637
H            1.84553674873581        2.71943852367510       -0.22328890813108
H           -1.38940442974376        2.70322250617458        0.36329521671752
H           -3.10420687848809       -0.02524887584762       -1.28136669086503
24
 energy: -43.388406407786 gnorm: 0.013717578480 xtb: 6.7.1 (edcfbbe)
C           -2.55124803651819       -0.94359291628883        0.34628670726926
C           -1.09269088206129       -0.50878352291227        0.58356084935335
H           -0.92670053643952       -0.47098433119163        1.67301173154857
C           -0.80269488801077        0.88912579384357        0.01665878955559
H           -0.97012082902339        0.88094018056370       -1.07083017528734
C            0.67339267378875        1.24135204472932        0.24618818812686
H            0.86275983680672        1.31765123472441        1.32796789748131
C            1.56659610957710        0.13225114679550       -0.31969073811625
H            1.44126554861712        0.08497202364141       -1.41000492189482
C            1.13010202984961       -1.22381452086520        0.26437176968641
H            1.29357785307406       -1.19244977388758        1.36188419993830
O           -0.23486267996333       -1.47410763461553        0.01479260022148
O            1.88432221964083       -2.20356703785359       -0.33811537100618
O            2.89230267645002        0.42976201946958        0.02565024746391
O            0.91458544941538        2.47590948199384       -0.37544521734567
O           -1.65100234360997        1.80788860474219        0.64710831333054
O           -2.94970433757287       -0.93120768689940       -0.99510744106627
H           -3.18671064871016       -0.29287949337017        0.95470946227166
H           -2.65077435140978       -1.97882799569858        0.67575923987157
H            1.73663299277106       -3.07107243660898        0.08962909076045
H            3.48309025533121       -0.22905460024259       -0.37469160477317
H            1.84665553738123        2.71595569327910       -0.24061017319900
H           -1.38754735926629        2.70120971448360        0.36950221360684
H           -3.10029765364080       -0.01980241602612       -1.28147895874253
24
 energy: -43.388923475635 gnorm: 0.010946724051 xtb: 6.7.1 (edcfbbe)
C           -2.54663507096086       -0.94979463006257        0.34604002018469
C           -1.08972066993242       -0.50814955917705        0.58957390613140
H           -0.93677077189297       -0.45900003002400        1.68188814069621
C           -0.80074167275410        0.88519722382834        0.01126531476911
H           -0.95840105077416        0.86157268540633       -1.07972146016373
C            0.67263250162406        1.24479475387199        0.24699037905578
H            0.85687120737736        1.31387505516651        1.33250682701597
C            1.56784845927125        0.13927942271495       -0.32023923351154
H            1.43574439862372        0.08957740655673       -1.41181106880249
C            1.13707116616414       -1.21621822249481        0.27131643440928
H            1.31022700065110       -1.17762663786824        1.37067202884796
O           -0.22733854188749       -1.47477341189452        0.03104540256446
O            1.89244134507347       -2.19547924570966       -0.33155326980046
O            2.89389152142910        0.44283672725205        0.02056195724503
O            0.90880256804611        2.48435978475114       -0.36900471940423
O           -1.66264360464295        1.80325594218788        0.62718088829337
O           -2.94666070870762       -0.91777161830027       -0.99586516941185
H           -3.18584456532520       -0.31801080917533        0.97252063693704
H           -2.63648185047839       -1.99068021365914        0.66439127578725
H            1.68108350103097       -3.07318919659386        0.03937179320409
H            3.48063199960200       -0.24715685564848       -0.33250898072433
H            1.84888982989349        2.70507954727676       -0.27667328509090
H           -1.38164570721063        2.69827235919645        0.37717976379975
H           -3.09232264774325       -0.00337690579546       -1.27402088297698
24
 energy: -43.389188086607 gnorm: 0.008646883559 xtb: 6.7.1 (edcfbbe)
C           -2.54163294668560       -0.95577920434263        0.34678740059498
C           -1.08838755906200       -0.50690637398540        0.59402780991450
H           -0.93969914409828       -0.45226028161969        1.68643543296017
C           -0.79991184477422        0.88239290713323        0.00716252461203
H           -0.95249605520969        0.84935586995401       -1.08463053314095
C            0.67025374255868        1.24648995694692        0.24883985317420
H            0.85144379273222        1.31476549890347        1.33538922545024
C            1.56766200116834        0.14408082121177       -0.31777246196111
H            1.43357768426075        0.09143350069685       -1.40953848809061
C            1.14252655836326       -1.21017839931590        0.27808925510377
H            1.32042743757747       -1.17180970871488        1.37723252103998
O           -0.22130984474697       -1.47464789027430        0.04203411224622
O            1.89897917727719       -2.19045064773764       -0.32528516995457
O            2.89542670835968        0.45246676235472        0.01665036457202
O            0.90587175872458        2.48959966404255       -0.36292944484706
O           -1.66991258697722        1.80382131920501        0.60968860888590
O           -2.94381799153285       -0.90805055626795       -0.99513038608583
H           -3.18743191829832       -0.33916973871426        0.98226302614239
H           -2.62356642336083       -2.00198993714204        0.65139861353605
H            1.63842153000458       -3.07134319223432        0.00253291347039
H            3.47580982466149       -0.25565859442741       -0.30650130754885
H            1.85194570577780        2.69283038706110       -0.30134027582072
H           -1.37406145916372        2.69777167836921        0.37643420088899
H           -3.08918951107961        0.01010973070332       -1.26073109608729
24
 energy: -43.389378594631 gnorm: 0.003220511828 xtb: 6.7.1 (edcfbbe)
C           -2.53599427962139       -0.96239242297339        0.34801965781890
C           -1.08789792564449       -0.50523958461063        0.59768181924490
H           -0.93818077306847       -0.44740406182650        1.68862448340008
C           -0.79986863079582        0.87995320245473        0.00252467290469
H           -0.94843168095173        0.83959439133378       -1.08876527857066
C            0.66671298705714        1.24723590712055        0.25096458143448
H            0.84468740616583        1.31794478822067        1.33737468164040
C            1.56661404518317        0.14757303193392       -0.31391711816227
H            1.43295570474770        0.09084388563017       -1.40521342381746
C            1.14724354217824       -1.20484993987530        0.28507688476727
H            1.32814356377580       -1.16960721669335        1.38281362002590
O           -0.21559446782530       -1.47416948670901        0.05084313794712
O            1.90383428282011       -2.18800260950073       -0.31860098969764
O            2.89640376270901        0.46129342565257        0.01357632183528
O            0.90517815044783        2.49284362736288       -0.35723123367884
O           -1.67546204435914        1.80698092327727        0.59096573722666
O           -2.94169800010247       -0.89762727152685       -0.99331103278606
H           -3.18965340688770       -0.36154445333697        0.98999100990459
H           -2.60862765619136       -2.01436470920890        0.63449741295641
H            1.60171742691657       -3.06349399105426       -0.03070229164951
H            3.47006578444468       -0.26022758966254       -0.28332538114946
H            1.85477048409971        2.67799656702466       -0.32117081567277
H           -1.36415267339228        2.69819646977840        0.37063402629557
H           -3.09183696522892        0.02534068899456       -1.24024378316269
24
 energy: -43.389312713475 gnorm: 0.016257043764 xtb: 6.7.1 (edcfbbe)
C           -2.52936431093903       -0.97055923108827        0.34943425327433
C           -1.08508255376918       -0.50436845633901        0.59964144766488
H           -0.93300780141411       -0.44250302588569        1.68908235116975
C           -0.80044576995045        0.87835651711090       -0.00273250003795
H           -0.94347278118431        0.83015413280712       -1.09366490429393
C            0.66332492143746        1.25062125169779        0.25275192632230
H            0.83778596773440        1.32496049307315        1.33874635511196
C            1.56819989545704        0.15278635692438       -0.30730822112856
H            1.43609985007785        0.09045015606424       -1.39797795238729
C            1.15333234272695       -1.19886628467437        0.29416918260609
H            1.33336298750877       -1.16690446373371        1.39107328438443
O           -0.20659466233408       -1.47222134493696        0.05853872590070
O            1.91291685673095       -2.18147936252811       -0.30847317664356
O            2.89750958457534        0.47255219346763        0.01471473057199
O            0.90327516557346        2.49601409387452       -0.35370668737374
O           -1.68140407242580        1.80863636872274        0.57088295537954
O           -2.94131785562340       -0.88808670242898       -0.98846044714409
H           -3.18804640477241       -0.38510031724843        0.99966336360815
H           -2.59055914777501       -2.02806571217675        0.61644100485821
H            1.54553381839953       -3.06563501137372       -0.07959126874629
H            3.46812247415724       -0.26404477719183       -0.25189539680803
H            1.85795762844206        2.66340312203975       -0.34649392917091
H           -1.35645567191688        2.69785592574908        0.36220664593400
H           -3.10074182423969        0.03891764988026       -1.21593504399709
24
 energy: -43.389461787827 gnorm: 0.002833371618 xtb: 6.7.1 (edcfbbe)
C           -2.53183686553982       -0.96780920977260        0.34894844618683
C           -1.08638064155444       -0.50475492070744        0.59785192908727
H           -0.93245947606854       -0.44555229034271        1.68736012295513
C           -0.80058400187480        0.87928380427741       -0.00121785626555
H           -0.94570749633640        0.83472892816264       -1.09187947913400
C            0.66450714514317        1.24907163087669        0.25176275272234
H            0.83995567651067        1.32331247807975        1.33751087382804
C            1.56788314005267        0.14980507908245       -0.30893204317781
H            1.43670292769958        0.08914893171820       -1.39962068556977
C            1.15029709347695       -1.20217309109470        0.29046155950400
H            1.32939628989111       -1.16989358008224        1.38735474093502
O           -0.21031880816423       -1.47274263157226        0.05323580328592
O            1.90808742839889       -2.18592012311562       -0.31236639016599
O            2.89671562848406        0.46760802910472        0.01675688332577
O            0.90524967981903        2.49350187962411       -0.35652814997703
O           -1.67820373804987        1.80868593192922        0.57816723983562
O           -2.94316538553972       -0.88901887269449       -0.98946555328272
H           -3.18796067187445       -0.37798844378803        0.99701850600353
H           -2.59590599772073       -2.02349530768843        0.61994751111895
H            1.57277951589977       -3.06087243791934       -0.05969414125602
H            3.47013363739111       -0.26067955541186       -0.26212407466173
H            1.85678690568719        2.66802815008229       -0.33532643475629
H           -1.36033665655488        2.69791144410918        0.36108440501258
H           -3.10470669269961        0.03668774894878       -1.21919926649920
24
 energy: -43.389485726194 gnorm: 0.002799870520 xtb: 6.7.1 (edcfbbe)
C           -2.53083742288751       -0.96929840591893        0.34917844546234
C           -1.08564128629545       -0.50500690471184        0.59718921736773
H           -0.93065080183307       -0.44561584241405        1.68655622006625
C           -0.80040576288076        0.87889094715131       -0.00268780067539
H           -0.94411170897428        0.83281678556324       -1.09348742007714
C            0.66449029716673        1.24953223308114        0.25153993415454
H            0.83871356582015        1.32495869066291        1.33737125317728
C            1.56924315889817        0.15006468764294       -0.30707177309340
H            1.43932559991747        0.08852492492904       -1.39786288184660
C            1.15099937360413       -1.20199448009080        0.29176959250645
H            1.32857399034433       -1.17016021998727        1.38888155006994
O           -0.20893783299987       -1.47252094372506        0.05228277070221
O            1.90986482136563       -2.18591460957221       -0.30987142453579
O            2.89719785785650        0.46930265060782        0.02009079523435
O            0.90554820868656        2.49324188498770       -0.35794104595751
O           -1.67911547479625        1.80829948842702        0.57464119755912
O           -2.94507584380582       -0.88412027027280       -0.98817322578181
H           -3.18652424943376       -0.38386280716894        1.00157740626820
H           -2.59197891873109       -2.02639769674639        0.61483122577388
H            1.56501538550658       -3.06023619911771       -0.06861788590037
H            3.47189201883858       -0.25918565845092       -0.25489064822495
H            1.85740505018508        2.66597166108063       -0.33957577230668
H           -1.36149103292586        2.69736024513457        0.35649079581480
H           -3.11257035614949        0.04222341071430       -1.21111382670258
24
 energy: -43.389560950601 gnorm: 0.004956388412 xtb: 6.7.1 (edcfbbe)
C           -2.52643142861309       -0.97521100632676        0.34990471408803
C           -1.08100384323063       -0.50733434533684        0.59299792628743
H           -0.92157832069389       -0.44783792352626        1.68205211128454
C           -0.79871087422825        0.87615045435975       -0.00982346243653
H           -0.93706338971691        0.82349545546835       -1.10128911191742
C            0.66541156746936        1.25159250521440        0.24882305341709
H            0.83393301869657        1.33390284244140        1.33522777184199
C            1.57728171422162        0.15083233422644       -0.29822825846794
H            1.45543748022312        0.08585876911880       -1.39012819103823
C            1.15460498777727       -1.20207569636909        0.29753227720938
H            1.32258442138839       -1.17151083439040        1.39674718543517
O           -0.20220847177748       -1.47187138501821        0.04532584016923
O            1.91953357057869       -2.18670303912706       -0.29652054510228
O            2.90002777306142        0.47628681150868        0.03974083290810
O            0.90687076495851        2.49103031015943       -0.36846491091649
O           -1.68241837653651        1.80396472053861        0.56059132255015
O           -2.95643122199287       -0.85743723660103       -0.98104885816862
H           -3.17809465877792       -0.41156135939347        1.02536357118434
H           -2.57536333244933       -2.03918470742159        0.58957347074876
H            1.53009136334661       -3.05894192221848       -0.11042093935997
H            3.48278004519324       -0.25141874321193       -0.22072818286483
H            1.85913869801461        2.66018447987830       -0.35714987044811
H           -1.37265583030381        2.69338621809627        0.33160903705793
H           -3.15480702013202        0.07127686973640       -1.17058008440680
24
 energy: -43.389591631034 gnorm: 0.002796644199 xtb: 6.7.1 (edcfbbe)
C           -2.52586563408444       -0.97563402101755        0.34998384273209
C           -1.07940600782510       -0.50872755076948        0.59077161004495
H           -0.91830882133830       -0.45014640859249        1.67974222355525
C           -0.79787612827506        0.87496365348462       -0.01167822562919
H           -0.93594594958015        0.82160570138588       -1.10318291123176
C            0.66617396453480        1.25160212534354        0.24726831001966
H            0.83339908189382        1.33708705863988        1.33367772747433
C            1.58038879859473        0.15018624014656       -0.29531399344695
H            1.46315510838861        0.08540793887947       -1.38784013434563
C            1.15511997936262       -1.20338136020525        0.29811519898235
H            1.31887199188790       -1.17314487370174        1.39826883958624
O           -0.20099525120970       -1.47220487880685        0.04109674510235
O            1.92190379180420       -2.18827830709189       -0.29289757646217
O            2.90103015893429        0.47629269994904        0.04917912234938
O            0.90726305499468        2.48912215368704       -0.37388288583322
O           -1.68249405401379        1.80147988919783        0.55897786350337
O           -2.96173759318950       -0.84777263157884       -0.97780395550172
H           -3.17452258295403       -0.41799787709117        1.03265816248079
H           -2.57307825968022       -2.04117940925056        0.58201794952679
H            1.52697152958890       -3.05791443826980       -0.11911939848041
H            3.48728452383809       -0.24737799110495       -0.21372220169221
H            1.85959757458953        2.66078605762904       -0.35910676233847
H           -1.38016735026453        2.69156964718898        0.32105985249728
H           -3.16983328952068        0.08053015375439       -1.15716270383814
24
 energy: -43.389618767773 gnorm: 0.002778268764 xtb: 6.7.1 (edcfbbe)
C           -2.52448790219634       -0.97646214545980        0.35059064715551
C           -1.07675302242331       -0.51084677348332        0.58806040001162
H           -0.91341933306908       -0.45295277093734        1.67671127393669
C           -0.79630736730660        0.87231570109244       -0.01525194604853
H           -0.93472614110336        0.81738666913750       -1.10658066179608
C            0.66694452240113        1.25135298356741        0.24398778136673
H            0.83159613340716        1.34313420356013        1.33032015445058
C            1.58493157361750        0.14927834043167       -0.29082437981435
H            1.47581647056474        0.08451459833318       -1.38430834685752
C            1.15662960605274       -1.20495088944119        0.29955303772628
H            1.31474122888788       -1.17530704166995        1.40087589996173
O           -0.19863765360185       -1.47318412980233        0.03647807705534
O            1.92598902955382       -2.19029052275953       -0.28721685081226
O            2.90287865730783        0.47621673705136        0.06348492026690
O            0.90801179067540        2.48576504480039       -0.38374769666404
O           -1.68254557946397        1.79781330528825        0.55506638542327
O           -2.96954600641554       -0.83188985615584       -0.97192562328009
H           -3.16879376165112       -0.42873037716989        1.04468646384217
H           -2.56933535303434       -2.04487268608390        0.57006372537949
H            1.51818238026985       -3.05709679876369       -0.13562278873519
H            3.49285873334950       -0.24344625506046       -0.20328309587553
H            1.85756370166120        2.66465761178929       -0.35724820157214
H           -1.39193054649782        2.68834480777129        0.30249154226624
H           -3.18873252450875        0.09612381577005       -1.13525401833186
24
 energy: -43.389633680332 gnorm: 0.001441362048 xtb: 6.7.1 (edcfbbe)
C           -2.52343287220361       -0.97744975487820        0.35063941345593
C           -1.07521637107974       -0.51239327362661        0.58723777134477
H           -0.91125306474531       -0.45410804778205        1.67561643555671
C           -0.79538719399772        0.86994651589513       -0.01737487819899
H           -0.93413956472200        0.81365834574071       -1.10853376368679
C            0.66681259456160        1.25109432138216        0.24212684772189
H            0.83037249745042        1.34753789137536        1.32812646445454
C            1.58715605894263        0.14888852204101       -0.28764527505387
H            1.48434525004523        0.08461572237770       -1.38169914863122
C            1.15791018086526       -1.20569121964883        0.30102004233519
H            1.31400983501672       -1.17608249968471        1.40275051790800
O           -0.19691143965247       -1.47454105163692        0.03608636528421
O            1.92850701902545       -2.19120272237314       -0.28357047621636
O            2.90378099489948        0.47527066564172        0.07364031645854
O            0.90679304867214        2.48370880839942       -0.39009317714951
O           -1.68314850500152        1.79540295593243        0.55173296429935
O           -2.97413431177908       -0.81970063177003       -0.96792615952678
H           -3.16537222719247       -0.43749733995811        1.05288542951875
H           -2.56677064413535       -2.04828389471357        0.56013670513692
H            1.51145753779620       -3.05575838940685       -0.14783006411965
H            3.49461517251570       -0.24223386552592       -0.19800038369040
H            1.85724620243012        2.66712560764225       -0.35756808716578
H           -1.39993878832351        2.68568407456599        0.28902640974765
H           -3.19637277291149        0.10888283181678       -1.11967757072814
24
 energy: -43.389646982118 gnorm: 0.001835025811 xtb: 6.7.1 (edcfbbe)
C           -2.52205527266200       -0.97923738054247        0.35103854094997
C           -1.07419704123912       -0.51342720390178        0.58771063886465
H           -0.91027565641254       -0.45260577161347        1.67577044457497
C           -0.79449185285627        0.86691098581317       -0.02089604403559
H           -0.93280689261926        0.80776812406482       -1.11187410106783
C            0.66625718180487        1.25047800599625        0.23939415829017
H            0.82764580194799        1.35243576517095        1.32502369384953
C            1.58880138575397        0.14804433200726       -0.28472994318108
H            1.49197380681566        0.08375775081709       -1.37906065436906
C            1.15948753980064       -1.20626638144164        0.30346577733530
H            1.31639772061245       -1.17647575775153        1.40493902743285
O           -0.19505072079330       -1.47659855490042        0.03941514973447
O            1.93022154823271       -2.19223456582554       -0.28057416345796
O            2.90492429880118        0.47351974918752        0.08235676245411
O            0.90584298653926        2.48087486471387       -0.39818011479826
O           -1.68424328583966        1.79372801989038        0.54477910195481
O           -2.97809905215998       -0.80674118380034       -0.96355407240149
H           -3.16318345308280       -0.44874828466798        1.06152296430795
H           -2.56275476825972       -2.05261106683854        0.54916851888080
H            1.50186186162996       -3.05409582685976       -0.16126657015186
H            3.49472302129045       -0.24245338187947       -0.19570651685347
H            1.85284512290105        2.67387997547224       -0.35003288828479
H           -1.40438689078546        2.68280407969454        0.27498757406882
H           -3.19850875294344        0.12416727900058       -1.10259058504205
24
 energy: -43.389656345877 gnorm: 0.001793564466 xtb: 6.7.1 (edcfbbe)
C           -2.52222166636886       -0.98024832691111        0.35114263571470
C           -1.07514339642609       -0.51297965624419        0.58972199840099
H           -0.91278923611066       -0.44893463368779        1.67781046037068
C           -0.79483753242540        0.86597888253158       -0.02200750232093
H           -0.93164518263788        0.80461532338187       -1.11303895710292
C            0.66555060715178        1.25036502397886        0.23880773064858
H            0.82689050682995        1.35230927305440        1.32423412558903
C            1.58764167957795        0.14773269359113       -0.28555043959236
H            1.49009619077059        0.08309112724539       -1.37953184703135