      -----------------------------------------------------------      
     |                   =====================                   |     
     |                           x T B                           |     
     |                   =====================                   |     
     |                         S. Grimme                         |     
     |          Mulliken Center for Theoretical Chemistry        |     
     |                    University of Bonn                     |     
      -----------------------------------------------------------      

   * xtb version 6.7.1 (edcfbbe) compiled by 'albert@albert-system' on 2024-07-22

   xtb is free software: you can redistribute it and/or modify it under
   the terms of the GNU Lesser General Public License as published by
   the Free Software Foundation, either version 3 of the License, or
   (at your option) any later version.
   
   xtb is distributed in the hope that it will be useful,
   but WITHOUT ANY WARRANTY; without even the implied warranty of
   MERCHANTABILITY or FITNESS FOR A PARTICULAR PURPOSE.  See the
   GNU Lesser General Public License for more details.
   
   Cite this work as:
   * C. Bannwarth, E. Caldeweyher, S. Ehlert, A. Hansen, P. Pracht,
     J. Seibert, S. Spicher, S. Grimme, WIREs Comput. Mol. Sci., 2020, 11,
     e01493. DOI: 10.1002/wcms.1493
   
   for GFN2-xTB:
   * C. Bannwarth, S. Ehlert and S. Grimme., J. Chem. Theory Comput., 2019,
     15, 1652-1671. DOI: 10.1021/acs.jctc.8b01176
   for GFN1-xTB:
   * S. Grimme, C. Bannwarth, P. Shushkov, J. Chem. Theory Comput., 2017,
     13, 1989-2009. DOI: 10.1021/acs.jctc.7b00118
   for GFN0-xTB:
   * P. Pracht, E. Caldeweyher, S. Ehlert, S. Grimme, ChemRxiv, 2019, preprint.
     DOI: 10.26434/chemrxiv.8326202.v1
   for GFN-FF:
   * S. Spicher and S. Grimme, Angew. Chem. Int. Ed., 2020, 59, 15665-15673.
     DOI: 10.1002/anie.202004239
   
   for ALPB and GBSA implicit solvation:
   * S. Ehlert, M. Stahn, S. Spicher, S. Grimme, J. Chem. Theory Comput.,
     2021, 17, 4250-4261. DOI: 10.1021/acs.jctc.1c00471
   
   for ddCOSMO and CPCM-X implicit solvation:
   * M. Stahn, S. Ehlert, S. Grimme, J. Phys. Chem. A,
     2023, XX, XXXX-XXXX. DOI: 10.1021/acs.jpca.3c04382
   
   for DFT-D4:
   * E. Caldeweyher, C. Bannwarth and S. Grimme, J. Chem. Phys., 2017,
     147, 034112. DOI: 10.1063/1.4993215
   * E. Caldeweyher, S. Ehlert, A. Hansen, H. Neugebauer, S. Spicher,
     C. Bannwarth and S. Grimme, J. Chem. Phys., 2019, 150, 154122.
     DOI: 10.1063/1.5090222
   * E. Caldeweyher, J.-M. Mewes, S. Ehlert and S. Grimme, Phys. Chem. Chem. Phys.
     2020, 22, 8499-8512. DOI: 10.1039/D0CP00502A
   
   for sTDA-xTB:
   * S. Grimme and C. Bannwarth, J. Chem. Phys., 2016, 145, 054103.
     DOI: 10.1063/1.4959605
   
   in the mass-spec context:
   * V. Asgeirsson, C. Bauer and S. Grimme, Chem. Sci., 2017, 8, 4879.
     DOI: 10.1039/c7sc00601b
   * J. Koopman and S. Grimme, ACS Omega 2019, 4, 12, 15120-15133.
     DOI: 10.1021/acsomega.9b02011
   
   for metadynamics refer to:
   * S. Grimme, J. Chem. Theory Comput., 2019, 155, 2847-2862
     DOI: 10.1021/acs.jctc.9b00143
   
   for SPH calculations refer to:
   * S. Spicher and S. Grimme, J. Chem. Theory Comput., 2021, 17, 1701-1714
     DOI: 10.1021/acs.jctc.0c01306
   
   for ONIOM refer to:
   * C. Plett, A. Katbashev, S. Ehlert, S. Grimme, M. Bursch,
     Phys. Chem. Chem. Phys., 2023, 25, 17860-17868. DOI: 10.1039/D3CP02178E
   
   for DIPRO refer to:
   * J. Kohn, N. Gildemeister, S. Grimme, D. Fazzi, A. Hansen,
     J. Chem. Phys., 2023, just accepted.
   
   for PTB refer to:
   * S. Grimme, M. Mueller, A. Hansen, J. Chem. Phys., 2023, 158, 124111.
     DOI: 10.1063/5.0137838
   
   with help from (in alphabetical order)
   P. Atkinson, C. Bannwarth, F. Bohle, G. Brandenburg, E. Caldeweyher
   M. Checinski, S. Dohm, S. Ehlert, S. Ehrlich, I. Gerasimov, C. Hölzer
   A. Katbashev, J. Kohn, J. Koopman, C. Lavigne, S. Lehtola, F. März, M. Müller,
   F. Musil, H. Neugebauer, J. Pisarek, C. Plett, P. Pracht, F. Pultar,
   J. Seibert, P. Shushkov, S. Spicher, M. Stahn, M. Steiner, T. Strunk,
   J. Stückrath, T. Rose, and J. Unsleber
   
 * started run on 2025/04/03 at 21:50:14.635     
   ID    Z sym.   atoms
    1    6 C      1-4
    2    1 H      5-10

           -------------------------------------------------
          |                Calculation Setup                |
           -------------------------------------------------

          program call               : /srv/scratch/z5358697/.xtb/bin/xtb gas.coord --gfn2 --sp --chrg 0 --norestart --parallel 1
          hostname                   : k158
          coordinate file            : gas.coord
          omp threads                :                     1


           -------------------------------------------------
          |                 G F N 2 - x T B                 |
           -------------------------------------------------

        Reference                      10.1021/acs.jctc.8b01176
      * Hamiltonian:
        H0-scaling (s, p, d)           1.850000    2.230000    2.230000
        zeta-weighting                 0.500000
      * Dispersion:
        s8                             2.700000
        a1                             0.520000
        a2                             5.000000
        s9                             5.000000
      * Repulsion:
        kExp                           1.500000    1.000000
        rExp                           1.000000
      * Coulomb:
        alpha                          2.000000
        third order                    shell-resolved
        anisotropic                    true
        a3                             3.000000
        a5                             4.000000
        cn-shift                       1.200000
        cn-exp                         4.000000
        max-rad                        5.000000


          ...................................................
          :                      SETUP                      :
          :.................................................:
          :  # basis functions                  22          :
          :  # atomic orbitals                  22          :
          :  # shells                           14          :
          :  # electrons                        22          :
          :  max. iterations                   250          :
          :  Hamiltonian                  GFN2-xTB          :
          :  restarted?                      false          :
          :  GBSA solvation                  false          :
          :  PC potential                    false          :
          :  electronic temp.          300.0000000     K    :
          :  accuracy                    1.0000000          :
          :  -> integral cutoff          0.2500000E+02      :
          :  -> integral neglect         0.1000000E-07      :
          :  -> SCF convergence          0.1000000E-05 Eh   :
          :  -> wf. convergence          0.1000000E-03 e    :
          :  Broyden damping             0.4000000          :
          :  net charge                          0          :
          :  unpaired electrons                  0          :
          ...................................................

 iter      E             dE          RMSdq      gap      omega  full diag
   1    -11.7865796 -0.117866E+02  0.600E+00    7.07       0.0  T
   2    -11.7966105 -0.100309E-01  0.363E+00    6.99       1.0  T
   3    -11.7458151  0.507954E-01  0.250E+00    7.04       1.0  T
   4    -11.8027540 -0.569389E-01  0.381E-01    6.89       1.0  T
   5    -11.8035044 -0.750351E-03  0.764E-02    6.91       1.0  T
   6    -11.8035140 -0.962629E-05  0.325E-02    6.91       1.0  T
   7    -11.8035145 -0.490740E-06  0.997E-03    6.91       3.2  T
   8    -11.8035147 -0.205996E-06  0.140E-03    6.91      22.7  T
   9    -11.8035147 -0.401403E-09  0.655E-04    6.91      48.3  T
  10    -11.8035147 -0.211671E-09  0.104E-04    6.91     303.4  T

   *** convergence criteria satisfied after 10 iterations ***

         #    Occupation            Energy/Eh            Energy/eV
      -------------------------------------------------------------
         1        2.0000           -0.6203498             -16.8806
       ...           ...                  ...                  ...
         5        2.0000           -0.5080436             -13.8246
         6        2.0000           -0.4895419             -13.3211
         7        2.0000           -0.4732941             -12.8790
         8        2.0000           -0.4496481             -12.2355
         9        2.0000           -0.4454702             -12.1219
        10        2.0000           -0.4013681             -10.9218
        11        2.0000           -0.3980258             -10.8308 (HOMO)
        12                         -0.1441428              -3.9223 (LUMO)
        13                         -0.1396670              -3.8005
        14                          0.0697305               1.8975
        15                          0.1344662               3.6590
        16                          0.1687751               4.5926
       ...                                ...                  ...
        22                          1.4419248              39.2368
      -------------------------------------------------------------
                  HL-Gap            0.2538830 Eh            6.9085 eV
             Fermi-level           -0.2710843 Eh           -7.3766 eV

 SCC (total)                   0 d,  0 h,  0 min,  0.017 sec
 SCC setup                      ...        0 min,  0.000 sec (  0.882%)
 Dispersion                     ...        0 min,  0.000 sec (  0.247%)
 classical contributions        ...        0 min,  0.000 sec (  0.074%)
 integral evaluation            ...        0 min,  0.001 sec (  3.325%)
 iterations                     ...        0 min,  0.015 sec ( 87.918%)
 molecular gradient             ...        0 min,  0.001 sec (  6.799%)
 printout                       ...        0 min,  0.000 sec (  0.664%)

         :::::::::::::::::::::::::::::::::::::::::::::::::::::
         ::                     SUMMARY                     ::
         :::::::::::::::::::::::::::::::::::::::::::::::::::::
         :: total energy             -11.546225770397 Eh    ::
         :: gradient norm              0.002493282493 Eh/a0 ::
         :: HOMO-LUMO gap              6.908506865766 eV    ::
         ::.................................................::
         :: SCC energy               -11.803513123584 Eh    ::
         :: -> isotropic ES            0.003075710940 Eh    ::
         :: -> anisotropic ES          0.001661575767 Eh    ::
         :: -> anisotropic XC          0.012892944583 Eh    ::
         :: -> dispersion             -0.004151616333 Eh    ::
         :: repulsion energy           0.257287353187 Eh    ::
         :: add. restraining           0.000000000000 Eh    ::
         :: total charge               0.000000000000 e     ::
         :::::::::::::::::::::::::::::::::::::::::::::::::::::

           -------------------------------------------------
          |                Property Printout                |
           -------------------------------------------------

    * Orbital Energies and Occupations

         #    Occupation            Energy/Eh            Energy/eV
      -------------------------------------------------------------
         1        2.0000           -0.6203498             -16.8806
         2        2.0000           -0.5980912             -16.2749
         3        2.0000           -0.5733606             -15.6019
         4        2.0000           -0.5217659             -14.1980
         5        2.0000           -0.5080436             -13.8246
         6        2.0000           -0.4895419             -13.3211
         7        2.0000           -0.4732941             -12.8790
         8        2.0000           -0.4496481             -12.2355
         9        2.0000           -0.4454702             -12.1219
        10        2.0000           -0.4013681             -10.9218
        11        2.0000           -0.3980258             -10.8308 (HOMO)
        12                         -0.1441428              -3.9223 (LUMO)
        13                         -0.1396670              -3.8005
        14                          0.0697305               1.8975
        15                          0.1344662               3.6590
        16                          0.1687751               4.5926
        17                          0.1719801               4.6798
        18                          0.1912744               5.2048
        19                          0.2421713               6.5898
        20                          0.2861795               7.7873
        21                          0.3493626               9.5066
        22                          1.4419248              39.2368
      -------------------------------------------------------------
                  HL-Gap            0.2538830 Eh            6.9085 eV
             Fermi-level           -0.2710843 Eh           -7.3766 eV

     #   Z          covCN         q      C6AA      α(0)
     1   6 C        3.756    -0.096    22.377     6.745
     2   6 C        3.802    -0.034    21.173     6.551
     3   6 C        1.967    -0.027    31.783     9.104
     4   6 C        1.909    -0.116    34.347     9.465
     5   1 H        0.925     0.037     2.482     2.464
     6   1 H        0.925     0.037     2.482     2.464
     7   1 H        0.925     0.033     2.538     2.491
     8   1 H        0.924     0.048     2.351     2.398
     9   1 H        0.924     0.048     2.351     2.398
    10   1 H        0.928     0.069     2.098     2.265

 Mol. C6AA /au·bohr⁶  :        902.896884
 Mol. C8AA /au·bohr⁸  :      20738.892396
 Mol. α(0) /au        :         46.344678


Wiberg/Mayer (AO) data.
largest (>0.10) Wiberg bond orders for each atom

 ---------------------------------------------------------------------------
     #   Z sym  total        # sym  WBO       # sym  WBO       # sym  WBO
 ---------------------------------------------------------------------------
     1   6 C    3.996 --     2 C    0.999     5 H    0.989     6 H    0.989
                             7 H    0.987
     2   6 C    3.998 --     3 C    1.052     1 C    0.999     8 H    0.957
                             9 H    0.957
     3   6 C    3.978 --     4 C    2.898     2 C    1.052
     4   6 C    3.975 --     3 C    2.898    10 H    0.972
     5   1 H    0.999 --     1 C    0.989
     6   1 H    0.999 --     1 C    0.989
     7   1 H    0.999 --     1 C    0.987
     8   1 H    0.998 --     2 C    0.957
     9   1 H    0.998 --     2 C    0.957
    10   1 H    0.995 --     4 C    0.972
 ---------------------------------------------------------------------------

Topologies differ in total number of bonds
Writing topology from bond orders to xtbtopo.mol

molecular dipole:
                 x           y           z       tot (Debye)
 q only:       -0.260       0.081      -0.000
   full:       -0.262       0.082      -0.000       0.699
molecular quadrupole (traceless):
                xx          xy          yy          xz          yz          zz
 q only:        0.526      -0.490      -0.002      -0.000      -0.000      -0.524
  q+dip:        3.109      -2.784      -1.315      -0.000       0.000      -1.794
   full:        1.529      -1.475      -0.551      -0.000       0.000      -0.977


           -------------------------------------------------
          | TOTAL ENERGY              -11.546225770397 Eh   |
          | GRADIENT NORM               0.002493282493 Eh/α |
          | HOMO-LUMO GAP               6.908506865766 eV   |
           -------------------------------------------------

------------------------------------------------------------------------
 * finished run on 2025/04/03 at 21:50:14.677     
------------------------------------------------------------------------
 total:
 * wall-time:     0 d,  0 h,  0 min,  0.042 sec
 *  cpu-time:     0 d,  0 h,  0 min,  0.012 sec
 * ratio c/w:     0.277 speedup
 SCF:
 * wall-time:     0 d,  0 h,  0 min,  0.018 sec
 *  cpu-time:     0 d,  0 h,  0 min,  0.005 sec
 * ratio c/w:     0.306 speedup

