
                                 *****************
                                 * O   R   C   A *
                                 *****************

                                            #,                                       
                                            ###                                      
                                            ####                                     
                                            #####                                    
                                            ######                                   
                                           ########,                                 
                                     ,,################,,,,,                         
                               ,,#################################,,                 
                          ,,##########################################,,             
                       ,#########################################, ''#####,          
                    ,#############################################,,   '####,        
                  ,##################################################,,,,####,       
                ,###########''''           ''''###############################       
              ,#####''   ,,,,##########,,,,          '''####'''          '####       
            ,##' ,,,,###########################,,,                        '##       
           ' ,,###''''                  '''############,,,                           
         ,,##''                                '''############,,,,        ,,,,,,###''
      ,#''                                            '''#######################'''  
     '                                                          ''''####''''         
             ,#######,   #######,   ,#######,      ##                                
            ,#'     '#,  ##    ##  ,#'     '#,    #''#        ,####,   ,####,        
            ##       ##  ##   ,#'  ##            #'  '#       #'       #'  '#        
            ##       ##  #######   ##           ,######,      #####,   #    #        
            '#,     ,#'  ##    ##  '#,     ,#' ,#      #,     #,   #   #,  ,#        
             '#######'   ##     ##  '#######'  #'      '#     '####' # '####'        



                #########################################################
                #                        -***-                          #
                #          Department of theory and spectroscopy        #
                #                                                       #
                #                      Frank Neese                      #
                #                                                       #
                #     Directorship, Architecture, Infrastructure        #
                #                    SHARK, DRIVERS                     #
                #        Core code/Algorithms in most modules           #
                #                                                       #
                #        Max Planck Institute fuer Kohlenforschung      #
                #                Kaiser Wilhelm Platz 1                 #
                #                 D-45470 Muelheim/Ruhr                 #
                #                      Germany                          #
                #                                                       #
                #                  All rights reserved                  #
                #                        -***-                          #
                #########################################################


                         Program Version 6.0.0  -   RELEASE  -


 With contributions from (in alphabetic order):
   Daniel Aravena         : Magnetic Suceptibility
   Michael Atanasov       : Ab Initio Ligand Field Theory (pilot matlab implementation)
   Alexander A. Auer      : GIAO ZORA, VPT2 properties, NMR spectrum
   Ute Becker             : All parallelization in ORCA, NUMFREQ, NUMCALC
   Giovanni Bistoni       : ED, misc. LED, open-shell LED, HFLD
   Martin Brehm           : Molecular dynamics
   Dmytro Bykov           : pre 5.0 version of the SCF Hessian
   Marcos Casanova-Páez   : Triplet and SCS-CIS(D). UHF-(DLPNO)-IP/EA/STEOM-CCSD. UHF-CVS-IP/STEOM-CCSD
   Vijay G. Chilkuri      : MRCI spin determinant printing, contributions to CSF-ICE
   Pauline Colinet        : FMM embedding
   Dipayan Datta          : RHF DLPNO-CCSD density
   Achintya Kumar Dutta   : EOM-CC, STEOM-CC
   Nicolas Foglia         : Exact transition moments, OPA infrastructure, MCD improvements
   Dmitry Ganyushin       : Spin-Orbit,Spin-Spin,Magnetic field MRCI
   Miquel Garcia          : C-PCM and meta-GGA Hessian, CCSD/C-PCM, Gaussian charge scheme
   Tiago L. C. Gouveia    : GS-ROHF, GS-ROCIS
   Yang Guo               : DLPNO-NEVPT2, F12-NEVPT2, CIM, IAO-localization
   Andreas Hansen         : Spin unrestricted coupled pair/coupled cluster methods
   Ingolf Harden          : AUTO-CI MPn and infrastructure 
   Benjamin Helmich-Paris : MC-RPA, TRAH-(SCF,CASSCF), AVAS, COSX integrals, SCF dyn. polar.
   Lee Huntington         : MR-EOM, pCC
   Robert Izsak           : Overlap fitted RIJCOSX, COSX-SCS-MP3, EOM
   Riya Kayal             : Wick's Theorem for AUTO-CI, AUTO-CI UHF-CCSDT
   Emily Kempfer          : AUTO-CI, RHF CISDT and CCSDT
   Christian Kollmar      : KDIIS, OOCD, Brueckner-CCSD(T), CCSD density, CASPT2, CASPT2-K, improved NEVPT2
   Axel Koslowski         : Symmetry handling
   Simone Kossmann        : Meta GGA functionals, TD-DFT gradient, OOMP2, (MP2 Hessian; deprecated post 5.0)
   Lucas Lang             : DCDCAS
   Marvin Lechner         : AUTO-CI (C++ implementation), FIC-MRCC
   Spencer Leger          : CASSCF response
   Dagmar Lenk            : GEPOL surface, SMD, ORCA-2-JSON
   Dimitrios Liakos       : Extrapolation schemes; Compound Job, initial MDCI parallelization
   Dimitrios Manganas     : Further ROCIS development; embedding schemes. LFT, Crystal Embedding
   Dimitrios Pantazis     : SARC Basis sets
   Anastasios Papadopoulos: AUTO-CI, single reference methods and gradients
   Taras Petrenko         : pre 6.0 DFT Hessian and TD-DFT gradient, (ASA, deprecated), ECA, 1-Electron XAS/XES, NRVS
   Peter Pinski           : DLPNO-MP2, DLPNO-MP2 Gradient
   Christoph Reimann      : Effective Core Potentials
   Marius Retegan         : Local ZFS, SOC
   Christoph Riplinger    : Optimizer, TS searches, QM/MM, DLPNO-CCSD(T), (RO)-DLPNO pert. Triples
   Michael Roemelt        : Original ROCIS implementation
   Masaaki Saitow         : Open-shell DLPNO-CCSD energy and density
   Barbara Sandhoefer     : DKH picture change effects
   Kantharuban Sivalingam : CASSCF convergence/infrastructure, NEVPT2 and variants, FIC-MRCI
   Bernardo de Souza      : ESD, SOC TD-DFT
   Georgi Stoychev        : AutoAux, RI-MP2 NMR, DLPNO-MP2 response, X2C
   Van Anh Tran           : RI-MP2 g-tensors
   Willem Van den Heuvel  : Paramagnetic NMR
   Zikuan Wang            : NOTCH, Electric field optimization 
   Frank Wennmohs         : Technical directorship and infrastructure
   Hang Xu                : AUTO-CI-Response properties 


 We gratefully acknowledge several colleagues who have allowed us to
 interface, adapt or use parts of their codes:
   Stefan Grimme, W. Hujo, H. Kruse, P. Pracht,  : VdW corrections, initial TS optimization,
                  C. Bannwarth, S. Ehlert,         DFT functionals, gCP, sTDA/sTD-DF
                  L. Wittmann, M. Mueller
   Ed Valeev, F. Pavosevic, A. Kumar             : LibInt (2-el integral package), F12 methods
   Garnet Chan, S. Sharma, J. Yang, R. Olivares  : DMRG
   Ulf Ekstrom                                   : XCFun DFT Library
   Mihaly Kallay                                 : mrcc  (arbitrary order and MRCC methods)
   Frank Weinhold                                : gennbo (NPA and NBO analysis)
   Simon Mueller                                 : openCOSMO-RS
   Christopher J. Cramer and Donald G. Truhlar   : smd solvation model
   Lars Goerigk                                  : TD-DFT with DH, B97 family of functionals
   V. Asgeirsson, H. Jonsson                     : NEB implementation
   FAccTs GmbH                                   : IRC, NEB, NEB-TS, DLPNO-Multilevel, CI-OPT
                                                   MM, QMMM, 2- and 3-layer-ONIOM, Crystal-QMMM,
                                                   LR-CPCM, SF, NACMEs, symmetry and pop. for TD-DFT,
                                                   nearIR, NL-DFT gradient (VV10), updates on ESD,
                                                   ML-optimized integration grids, MBIS, APM,
                                                   GOAT, DOCKER, SOLVATOR, interface openCOSMO-RS
   S Lehtola, MJT Oliveira, MAL Marques          : LibXC Library
   Liviu Ungur et al                             : ANISO software


 Your calculation uses the libint2 library for the computation of 2-el integrals
 For citations please refer to: http://libint.valeyev.net

 Your ORCA version has been built with support for libXC version: 6.2.2
 For citations please refer to: https://libxc.gitlab.io

 This ORCA versions uses:
   CBLAS   interface :  Fast vector & matrix operations
   LAPACKE interface :  Fast linear algebra routines
   SCALAPACK package :  Parallel linear algebra routines
   Shared memory     :  Shared parallel matrices
   BLAS/LAPACK       :  OpenBLAS 0.3.27  USE64BITINT DYNAMIC_ARCH NO_AFFINITY SkylakeX SINGLE_THREADED
        Core in use  :  SkylakeX
   Copyright (c) 2011-2014, The OpenBLAS Project


Your calculation utilizes the geometrical counterpoise correction gCP
Please cite in your paper:
H.Kruse, S. Grimme J.Chem.Phys., 136, (2012), 154101 
   

Your calculation utilizes the atom-pairwise dispersion correction
based on EEQ partial charges (D4)


================================================================================

----- Orbital basis set information -----
Your calculation utilizes the basis: def2-SV(P)
   F. Weigend and R. Ahlrichs, Phys. Chem. Chem. Phys. 7, 3297 (2005).

----- AuxJ basis set information -----
Your calculation utilizes the auxiliary basis: def2/J
   F. Weigend, Phys. Chem. Chem. Phys. 8, 1057 (2006).

================================================================================
                                        WARNINGS
                       Please study these warnings very carefully!
================================================================================


================================================================================
                                       INPUT FILE
================================================================================
NAME = sp.inp
|  1> ! pbe def2-sv(p) def2/J RI DEFGRID1 loosescf d4 GCP(DFT/SV(P)) printgap
|  2> %output
|  3>     printlevel normal
|  4> end
|  5> * xyz 0 1
|  6> C -1.8443046159 -0.6146901488 -1.0946454349
|  7> C -1.2409020198 -0.5597689697 0.3272612971
|  8> H -2.0236520201 -0.893505911 1.0228143823
|  9> C -0.796669823 0.8563736521 0.7160478465
| 10> H -1.610744409 1.5534352011 0.473875021
| 11> C 0.433247316 1.3157211101 -0.0874280673
| 12> H 1.0024607373 1.994609954 0.5629848848
| 13> C 1.3552409773 0.1342179564 -0.4308211256
| 14> H 1.1095888339 -0.2352389787 -1.4404685849
| 15> C 1.116173295 -1.0121608887 0.5676495128
| 16> H 1.3127536199 -0.6427711699 1.5871193112
| 17> O -0.189699418 -1.5170685377 0.448015902
| 18> O 2.0012255951 -2.0572354513 0.3462519267
| 19> O 2.6912346326 0.5668027808 -0.388384653
| 20> O -0.0234741446 1.9828256562 -1.2376486178
| 21> O -0.4658838884 0.9486993061 2.0819465071
| 22> O -3.1480662077 -0.090031463 -1.1349283632
| 23> H -1.9281442232 -1.667094311 -1.3761215102
| 24> H -1.1933757833 -0.1002936238 -1.8059934745
| 25> H 1.6138713033 -2.6674870935 -0.3011998067
| 26> H 3.2652205021 -0.2094549625 -0.2883166974
| 27> H 0.7242039295 2.4164638588 -1.6731967319
| 28> H -1.2526871632 0.7859599828 2.6230674303
| 29> H -3.1105143711 0.8742217625 -1.1910143956
| 30> *
| 31> 
| 32>                          ****END OF INPUT****
================================================================================

                       ****************************
                       * Single Point Calculation *
                       ****************************

---------------------------------
CARTESIAN COORDINATES (ANGSTROEM)
---------------------------------
  C     -1.844305   -0.614690   -1.094645
  C     -1.240902   -0.559769    0.327261
  H     -2.023652   -0.893506    1.022814
  C     -0.796670    0.856374    0.716048
  H     -1.610744    1.553435    0.473875
  C      0.433247    1.315721   -0.087428
  H      1.002461    1.994610    0.562985
  C      1.355241    0.134218   -0.430821
  H      1.109589   -0.235239   -1.440469
  C      1.116173   -1.012161    0.567650
  H      1.312754   -0.642771    1.587119
  O     -0.189699   -1.517069    0.448016
  O      2.001226   -2.057235    0.346252
  O      2.691235    0.566803   -0.388385
  O     -0.023474    1.982826   -1.237649
  O     -0.465884    0.948699    2.081947
  O     -3.148066   -0.090031   -1.134928
  H     -1.928144   -1.667094   -1.376122
  H     -1.193376   -0.100294   -1.805993
  H      1.613871   -2.667487   -0.301200
  H      3.265221   -0.209455   -0.288317
  H      0.724204    2.416464   -1.673197
  H     -1.252687    0.785960    2.623067
  H     -3.110514    0.874222   -1.191014

----------------------------
CARTESIAN COORDINATES (A.U.)
----------------------------
  NO LB      ZA    FRAG     MASS         X           Y           Z
   0 C     6.0000    0    12.011   -3.485231   -1.161596   -2.068580
   1 C     6.0000    0    12.011   -2.344965   -1.057810    0.618434
   2 H     1.0000    0     1.008   -3.824148   -1.688481    1.932839
   3 C     6.0000    0    12.011   -1.505488    1.618312    1.353134
   4 H     1.0000    0     1.008   -3.043866    2.935567    0.895494
   5 C     6.0000    0    12.011    0.818719    2.486353   -0.165215
   6 H     1.0000    0     1.008    1.894376    3.769267    1.063887
   7 C     6.0000    0    12.011    2.561034    0.253635   -0.814134
   8 H     1.0000    0     1.008    2.096819   -0.444537   -2.722091
   9 C     6.0000    0    12.011    2.109262   -1.912707    1.072702
  10 H     1.0000    0     1.008    2.480745   -1.214661    2.999221
  11 O     8.0000    0    15.999   -0.358480   -2.866844    0.846627
  12 O     8.0000    0    15.999    3.781768   -3.887612    0.654321
  13 O     8.0000    0    15.999    5.085696    1.071102   -0.733941
  14 O     8.0000    0    15.999   -0.044360    3.746997   -2.338817
  15 O     8.0000    0    15.999   -0.880393    1.792782    3.934309
  16 O     8.0000    0    15.999   -5.948983   -0.170135   -2.144704
  17 H     1.0000    0     1.008   -3.643665   -3.150352   -2.600493
  18 H     1.0000    0     1.008   -2.255153   -0.189527   -3.412833
  19 H     1.0000    0     1.008    3.049775   -5.040820   -0.569185
  20 H     1.0000    0     1.008    6.170373   -0.395813   -0.544840
  21 H     1.0000    0     1.008    1.368547    4.566455   -3.161884
  22 H     1.0000    0     1.008   -2.367236    1.485249    4.956879
  23 H     1.0000    0     1.008   -5.878020    1.652040   -2.250691

--------------------------------
INTERNAL COORDINATES (ANGSTROEM)
--------------------------------
 C      0   0   0     0.000000000000     0.00000000     0.00000000
 C      1   0   0     1.545616311832     0.00000000     0.00000000
 H      2   1   0     1.099032303115   107.06075939     0.00000000
 C      2   1   3     1.534261109116   112.26895145   240.37593399
 H      4   2   1     1.098753799573   108.37254925    47.88977701
 C      4   2   1     1.539243255640   111.99524684   290.43580211
 H      6   4   2     1.099059138363   106.81342223   210.88386409
 C      6   4   2     1.537511237737   111.49480090   327.73250808
 H      8   6   4     1.102828814695   109.16782221    95.19794773
 C      8   6   4     1.538922164685   109.53441767   337.07399591
 H     10   8   6     1.102003293254   108.83300048   301.43274152
 O     10   8   6     1.405185922720   110.90342931    64.32493040
 O     10   8   6     1.387269010119   111.00936010   184.36262239
 O      8   6   4     1.404923318729   109.07996913   215.46641109
 O      6   4   2     1.405926841195   108.00404674    91.35353216
 O      4   2   1     1.408411343303   111.97880091   169.72006265
 O      1   2   3     1.405945852140   112.03176504    43.85187931
 H      1   2   3     1.092617216290   107.52842632   287.39034791
 H      1   2   3     1.092853221382   110.46019713   168.13109739
 H     13  10   8     0.970383512466   108.99998224   271.24264112
 H     14   8   6     0.970592323356   108.61575208   160.04448574
 H     15   6   4     0.967867115331   109.25674016   169.90640506
 H     16   4   2     0.968687428487   109.87519276   295.53524947
 H     17   1   2     0.966612676489   109.74883354    81.82990756

---------------------------
INTERNAL COORDINATES (A.U.)
---------------------------
 C      0   0   0     0.000000000000     0.00000000     0.00000000
 C      1   0   0     2.920791537484     0.00000000     0.00000000
 H      2   1   0     2.076870065219   107.06075939     0.00000000
 C      2   1   3     2.899333314156   112.26895145   240.37593399
 H      4   2   1     2.076343769798   108.37254925    47.88977701
 C      4   2   1     2.908748206645   111.99524684   290.43580211
 H      6   4   2     2.076920776490   106.81342223   210.88386409
 C      6   4   2     2.905475167150   111.49480090   327.73250808
 H      8   6   4     2.084044432370   109.16782221    95.19794773
 C      8   6   4     2.908141432677   109.53441767   337.07399591
 H     10   8   6     2.082484422929   108.83300048   301.43274152
 O     10   8   6     2.655416561182   110.90342931    64.32493040
 O     10   8   6     2.621558503201   111.00936010   184.36262239
 O      8   6   4     2.654920311558   109.07996913   215.46641109
 O      6   4   2     2.656816694187   108.00404674    91.35353216
 O      4   2   1     2.661511722751   111.97880091   169.72006265
 O      1   2   3     2.656852619668   112.03176504    43.85187931
 H      1   2   3     2.064747307996   107.52842632   287.39034791
 H      1   2   3     2.065193292985   110.46019713   168.13109739
 H     13  10   8     1.833759083434   108.99998224   271.24264112
 H     14   8   6     1.834153678828   108.61575208   160.04448574
 H     15   6   4     1.829003782005   109.25674016   169.90640506
 H     16   4   2     1.830553949213   109.87519276   295.53524947
 H     17   1   2     1.826633236141   109.74883354    81.82990756

---------------------
BASIS SET INFORMATION
---------------------
There are 3 groups of distinct atoms

 Group   1 Type C   : 7s4p1d contracted to 3s2p1d pattern {511/31/1}
 Group   2 Type H   : 4s contracted to 2s pattern {31}
 Group   3 Type O   : 7s4p1d contracted to 3s2p1d pattern {511/31/1}

Atom   0C    basis set group =>   1
Atom   1C    basis set group =>   1
Atom   2H    basis set group =>   2
Atom   3C    basis set group =>   1
Atom   4H    basis set group =>   2
Atom   5C    basis set group =>   1
Atom   6H    basis set group =>   2
Atom   7C    basis set group =>   1
Atom   8H    basis set group =>   2
Atom   9C    basis set group =>   1
Atom  10H    basis set group =>   2
Atom  11O    basis set group =>   3
Atom  12O    basis set group =>   3
Atom  13O    basis set group =>   3
Atom  14O    basis set group =>   3
Atom  15O    basis set group =>   3
Atom  16O    basis set group =>   3
Atom  17H    basis set group =>   2
Atom  18H    basis set group =>   2
Atom  19H    basis set group =>   2
Atom  20H    basis set group =>   2
Atom  21H    basis set group =>   2
Atom  22H    basis set group =>   2
Atom  23H    basis set group =>   2
---------------------------------
AUXILIARY/J BASIS SET INFORMATION
---------------------------------
There are 3 groups of distinct atoms

 Group   1 Type C   : 12s5p4d2f1g contracted to 6s4p3d1f1g pattern {711111/2111/211/2/1}
 Group   2 Type H   : 5s2p1d contracted to 3s1p1d pattern {311/2/1}
 Group   3 Type O   : 12s5p4d2f1g contracted to 6s4p3d1f1g pattern {711111/2111/211/2/1}

Atom   0C    basis set group =>   1
Atom   1C    basis set group =>   1
Atom   2H    basis set group =>   2
Atom   3C    basis set group =>   1
Atom   4H    basis set group =>   2
Atom   5C    basis set group =>   1
Atom   6H    basis set group =>   2
Atom   7C    basis set group =>   1
Atom   8H    basis set group =>   2
Atom   9C    basis set group =>   1
Atom  10H    basis set group =>   2
Atom  11O    basis set group =>   3
Atom  12O    basis set group =>   3
Atom  13O    basis set group =>   3
Atom  14O    basis set group =>   3
Atom  15O    basis set group =>   3
Atom  16O    basis set group =>   3
Atom  17H    basis set group =>   2
Atom  18H    basis set group =>   2
Atom  19H    basis set group =>   2
Atom  20H    basis set group =>   2
Atom  21H    basis set group =>   2
Atom  22H    basis set group =>   2
Atom  23H    basis set group =>   2
------------------------------------------------------------------------------
                             ORCA STARTUP CALCULATIONS
                           -- RI-GTO INTEGRALS CHOSEN --
------------------------------------------------------------------------------
------------------------------------------------------------------------------
                   ___                                                        
                  /   \      - P O W E R E D   B Y -                         
                 /     \                                                     
                 |  |  |   _    _      __       _____    __    __             
                 |  |  |  | |  | |    /  \     |  _  \  |  |  /  |          
                  \  \/   | |  | |   /    \    | | | |  |  | /  /          
                 / \  \   | |__| |  /  /\  \   | |_| |  |  |/  /          
                |  |  |   |  __  | /  /__\  \  |    /   |      \           
                |  |  |   | |  | | |   __   |  |    \   |  |\   \          
                \     /   | |  | | |  |  |  |  | |\  \  |  | \   \       
                 \___/    |_|  |_| |__|  |__|  |_| \__\ |__|  \__/        
                                                                              
                      - O R C A' S   B I G   F R I E N D -                    
                                      &                                       
                       - I N T E G R A L  F E E D E R -                       
                                                                              
 v1 FN, 2020, v2 2021, v3 2022-2024                                           
------------------------------------------------------------------------------


----------------------
SHARK INTEGRAL PACKAGE
----------------------

Number of atoms                             ...     24
Number of basis functions                   ...    192
Number of shells                            ...     96
Maximum angular momentum                    ...      2
Integral batch strategy                     ... SHARK/LIBINT Hybrid
RI-J (if used) integral strategy            ... SPLIT-RIJ (Revised 2003 algorithm where possible)
Printlevel                                  ...      1
Contraction scheme used                     ... SEGMENTED contraction
Prescreening option                         ... SCHWARTZ
   Thresh                                   ... 1.000e-09
   Tcut                                     ... 1.000e-10
   Tpresel                                  ... 1.000e-10 
Coulomb Range Separation                    ... NOT USED
Exchange Range Separation                   ... NOT USED
Multipole approximations                    ... NOT USED
Finite Nucleus Model                        ... NOT USED
CABS basis                                  ... NOT available
Auxiliary Coulomb fitting basis             ... AVAILABLE
   # of basis functions in Aux-J            ...    720
   # of shells in Aux-J                     ...    240
   Maximum angular momentum in Aux-J        ...      4
Auxiliary J/K fitting basis                 ... NOT available
Auxiliary Correlation fitting basis         ... NOT available
Auxiliary 'external' fitting basis          ... NOT available

Checking pre-screening integrals            ... done (  0.0 sec) Dimension = 96
Check shell pair data                       ... done (  0.0 sec)
Shell pair information
Shell pair cut-off parameter TPreSel        ...   1.0e-10
Total number of shell pairs                 ...      4656
Shell pairs after pre-screening             ...      4214
Total number of primitive shell pairs       ...     18720
Primitive shell pairs kept                  ...     11366
          la=0 lb=0:   1640 shell pairs
          la=1 lb=0:   1341 shell pairs
          la=1 lb=1:    287 shell pairs
          la=2 lb=0:    619 shell pairs
          la=2 lb=1:    262 shell pairs
          la=2 lb=2:     65 shell pairs

Calculating one electron integrals          ... done (  0.0 sec)
Calculating RI/J V-Matrix + Cholesky decomp.... done (  0.1 sec)
Calculating Nuclear repulsion               ... done (  0.0 sec) ENN=    842.568346393637 Eh

Diagonalization of the overlap matrix:
Smallest eigenvalue                        ... 4.684e-04
Time for diagonalization                   ...    0.003 sec
Threshold for overlap eigenvalues          ... 1.000e-07
Number of eigenvalues below threshold      ... 0
Time for construction of square roots      ...    0.012 sec
Total time needed                          ...    0.023 sec

-------------------
DFT GRID GENERATION
-------------------

General Integration Accuracy     IntAcc      ... 4.159
Radial Grid Type                 RadialGrid  ... OptM3 with GC (2021)
Angular Grid (max. ang.)         AngularGrid ... 3 (Lebedev-194)
Angular grid pruning method      GridPruning ... 4 (adaptive)
Weight generation scheme         WeightScheme... mBecke (2022)
Basis function cutoff            BFCut       ... 1.0000e-10
Integration weight cutoff        WCut        ... 1.0000e-14
Partially contracted basis set               ... off
Rotationally invariant grid construction     ... off
Angular grids for H and He will be reduced by one unit

Total number of grid points                  ...    55674
Total number of batches                      ...      883
Average number of points per batch           ...       63
Average number of grid points per atom       ...     2320
Initializing property integral containers    ... done (  0.0 sec)

SHARK setup successfully completed in   0.9 seconds

Maximum memory used throughout the entire STARTUP-calculation: 28.1 MB
-------------------------------------------------------------------------------
                                 ORCA GUESS
                   Start orbitals & Density for SCF / CASSCF
-------------------------------------------------------------------------------

------------
SCF SETTINGS
------------
Hamiltonian:
 Density Functional     Method          .... DFT(GTOs)
 Exchange Functional    Exchange        .... PBE
   PBE kappa parameter   XKappa         ....  0.804000
   PBE mue parameter    XMuePBE         ....  0.219520
 Correlation Functional Correlation     .... PBE
   PBE beta parameter  CBetaPBE         ....  0.066725
 LDA part of GGA corr.  LDAOpt          .... PW91-LDA
 Gradients option       PostSCFGGA      .... off
   NL short-range parameter             ....  6.400000
 RI-approximation to the Coulomb term is turned on
   Number of AuxJ basis functions       .... 720


General Settings:
 Integral files         IntName         .... sp
 Hartree-Fock type      HFTyp           .... RHF
 Total Charge           Charge          ....    0
 Multiplicity           Mult            ....    1
 Number of Electrons    NEL             ....   96
 Basis Dimension        Dim             ....  192
 Nuclear Repulsion      ENuc            ....    842.5683463936 Eh

Convergence Acceleration:
 AO-DIIS                CNVDIIS         .... on
   Start iteration      DIISMaxIt       ....    12
   Startup error        DIISStart       ....  0.200000
   # of expansion vecs  DIISMaxEq       ....     5
   Bias factor          DIISBfac        ....   1.050
   Max. coefficient     DIISMaxC        ....  10.000
 MO-DIIS                CNVKDIIS        .... off
 Trust-Rad. Augm. Hess. CNVTRAH         .... auto
   Auto Start mean grad. ratio tolernc. ....  1.125000
   Auto Start start iteration           ....    50
   Auto Start num. interpolation iter.  ....    10
   Max. Number of Micro iterations      ....    24
   Max. Number of Macro iterations      .... Maxiter - #DIIS iter
   Number of Davidson start vectors     ....     2
   Converg. threshold    (grad. norm)   ....   1.000e-04
   Grad. Scal. Fac. for Micro threshold ....   0.100
   Minimum threshold for Micro iter.    ....   1.000e-02
   NR start threshold (gradient norm)   ....   1.000e-04
   Initial trust radius                 ....   0.400
   Minimum AH scaling param. (alpha)    ....   1.000
   Maximum AH scaling param. (alpha)    .... 1000.000
   Quad. conv. algorithm                .... NR
   White noise on init. David. guess    .... on
   Maximum white noise                  ....   0.010
   Pseudo random numbers                .... off
   Inactive MOs                         .... canonical
   Orbital update algorithm             .... Taylor
   Preconditioner                       .... Diag
   Full preconditioner red. dimension   ....   250
 SOSCF                  CNVSOSCF        .... on
   Start iteration      SOSCFMaxIt      ....   150
   Startup grad/error   SOSCFStart      ....  0.003300
   Hessian update       SOSCFHessUp     .... L-BFGS
 Level Shifting         CNVShift        .... on
   Level shift para.    LevelShift      ....    0.2500
   Turn off err/grad.   ShiftErr        ....    0.0010
 Zerner damping         CNVZerner       .... off
 Static damping         CNVDamp         .... on
   Fraction old density DampFac         ....    0.7000
   Max. Damping (<1)    DampMax         ....    0.9800
   Min. Damping (>=0)   DampMin         ....    0.0000
   Turn off err/grad.   DampErr         ....    0.1000

SCF Procedure:
 Maximum # iterations   MaxIter         ....   125
 SCF integral mode      SCFMode         .... Direct
   Integral package                     .... SHARK and LIBINT hybrid scheme
 Reset frequency        DirectResetFreq ....    20
 Integral Threshold     Thresh          ....  1.000e-09 Eh
 Primitive CutOff       TCut            ....  1.000e-10 Eh

Convergence Tolerance:
 Convergence Check Mode ConvCheckMode   .... Total+1el-Energy
 Convergence forced     ConvForced      .... 0
 Energy Change          TolE            ....  1.000e-05 Eh
 1-El. energy change                    ....  1.000e-02 Eh
 Orbital Gradient       TolG            ....  1.000e-04
 Orbital Rotation angle TolX            ....  1.000e-04
 DIIS Error             TolErr          ....  5.000e-04

------------------------------
INITIAL GUESS: MODEL POTENTIAL
------------------------------
Loading Hartree-Fock densities                     ... done
Calculating cut-offs                               ... done
Initializing the effective Hamiltonian             ... done
Setting up the integral package (SHARK)            ... done
Starting the Coulomb interaction                   ... done (   0.2 sec)
Making the grid                                    ... done (   0.3 sec)
Mapping shells                                     ... done
Starting the XC term evaluation                    ... done (   0.3 sec)
  promolecular density results
     # of electrons  =     95.989513467
     EX              =    -83.232748415
     EC              =     -3.269878945
     EX+EC           =    -86.502627360
Transforming the Hamiltonian                       ... done (   0.0 sec)
Diagonalizing the Hamiltonian                      ... done (   0.0 sec)
Back transforming the eigenvectors                 ... done (   0.0 sec)
Now organizing SCF variables                       ... done
                      ------------------
                      INITIAL GUESS DONE (   0.8 sec)
                      ------------------
             **** ENERGY FILE WAS UPDATED (sp.en.tmp) ****
Finished Guess after   1.0 sec
Maximum memory used throughout the entire GUESS-calculation: 21.8 MB

-------------------------------------------------------------------------------------------
                                      ORCA LEAN-SCF
                              memory conserving SCF solver
-------------------------------------------------------------------------------------------

----------------------------------------D-I-I-S--------------------------------------------
Iteration    Energy (Eh)           Delta-E    RMSDP     MaxDP     DIISErr   Damp  Time(sec)
-------------------------------------------------------------------------------------------
               ***  Starting incremental Fock matrix formation  ***
    1    -685.5152700665599923     0.00e+00  5.17e-03  2.08e-01  2.40e-01  0.700   1.2
    2    -685.6655762507742793    -1.50e-01  3.37e-03  1.44e-01  9.51e-02  0.700   1.1
                               ***Turning on AO-DIIS***
    3    -685.7128632465743294    -4.73e-02  1.15e-03  3.62e-02  1.80e-02  0.700   1.1
    4    -685.7444544740843639    -3.16e-02  1.45e-03  2.25e-02  1.09e-02  0.000   1.0
    5    -685.8175950542641885    -7.31e-02  4.83e-04  2.19e-02  5.40e-03  0.000   1.1
                              *** Initializing SOSCF ***
---------------------------------------S-O-S-C-F--------------------------------------
Iteration    Energy (Eh)           Delta-E    RMSDP     MaxDP     MaxGrad    Time(sec)
--------------------------------------------------------------------------------------
    6    -685.8179156444745104    -3.21e-04  1.44e-04  4.51e-03  9.96e-04     1.1
               *** Restarting incremental Fock matrix formation ***
    7    -685.8179431056329349    -2.75e-05  9.39e-05  2.70e-03  2.16e-04     1.2
    8    -685.8179444731214289    -1.37e-06  3.41e-05  1.05e-03  1.31e-04     1.0
                 **** Energy Check signals convergence ****

               *****************************************************
               *                     SUCCESS                       *
               *           SCF CONVERGED AFTER   8 CYCLES          *
               *****************************************************

             **** ENERGY FILE WAS UPDATED (sp.en.tmp) ****

----------------
TOTAL SCF ENERGY
----------------

Total Energy       :       -685.81794447312143 Eh          -18662.05503 eV

Components:
Nuclear Repulsion  :        842.56834639363740 Eh           22927.45031 eV
Electronic Energy  :      -1528.38629086675883 Eh          -41589.50534 eV
One Electron Energy:      -2614.24524386297344 Eh          -71137.22963 eV
Two Electron Energy:       1085.85895299621461 Eh           29547.72429 eV

Virial components:
Potential Energy   :      -1366.91020983073304 Eh          -37195.51779 eV
Kinetic Energy     :        681.09226535761150 Eh           18533.46276 eV
Virial Ratio       :          2.00693838317637

DFT components:
N(Alpha)           :       47.999869793916 electrons
N(Beta)            :       47.999869793916 electrons
N(Total)           :       95.999739587833 electrons
E(X)               :      -84.602183117471 Eh       
E(C)               :       -3.282049742919 Eh       
E(XC)              :      -87.884232860390 Eh       

---------------
SCF CONVERGENCE
---------------

  Last Energy change         ...    1.3675e-06  Tolerance :   1.0000e-05
  Last MAX-Density change    ...    1.0474e-03  Tolerance :   1.0000e-03
  Last RMS-Density change    ...    3.4118e-05  Tolerance :   1.0000e-04
  Last DIIS Error            ...    9.9560e-04  Tolerance :   5.0000e-04
  Last Orbital Gradient      ...    1.3122e-04  Tolerance :   1.0000e-04
  Last Orbital Rotation      ...    1.3709e-04  Tolerance :   1.0000e-04


----------------
ORBITAL ENERGIES
----------------

  NO   OCC          E(Eh)            E(eV) 
   0   2.0000     -18.770495      -510.7711 
   1   2.0000     -18.764294      -510.6024 
   2   2.0000     -18.764043      -510.5956 
   3   2.0000     -18.763342      -510.5765 
   4   2.0000     -18.751396      -510.2514 
   5   2.0000     -18.749129      -510.1897 
   6   2.0000      -9.981451      -271.6091 
   7   2.0000      -9.954184      -270.8671 
   8   2.0000      -9.947105      -270.6745 
   9   2.0000      -9.945560      -270.6324 
  10   2.0000      -9.935531      -270.3595 
  11   2.0000      -9.929758      -270.2025 
  12   2.0000      -0.984544       -26.7908 
  13   2.0000      -0.947772       -25.7902 
  14   2.0000      -0.938567       -25.5397 
  15   2.0000      -0.927551       -25.2400 
  16   2.0000      -0.922494       -25.1023 
  17   2.0000      -0.910187       -24.7675 
  18   2.0000      -0.709219       -19.2988 
  19   2.0000      -0.687033       -18.6951 
  20   2.0000      -0.619405       -16.8549 
  21   2.0000      -0.588368       -16.0103 
  22   2.0000      -0.568739       -15.4762 
  23   2.0000      -0.523358       -14.2413 
  24   2.0000      -0.517801       -14.0901 
  25   2.0000      -0.488956       -13.3052 
  26   2.0000      -0.475587       -12.9414 
  27   2.0000      -0.464380       -12.6364 
  28   2.0000      -0.440381       -11.9834 
  29   2.0000      -0.432861       -11.7787 
  30   2.0000      -0.419917       -11.4265 
  31   2.0000      -0.396286       -10.7835 
  32   2.0000      -0.387749       -10.5512 
  33   2.0000      -0.378413       -10.2971 
  34   2.0000      -0.363287        -9.8855 
  35   2.0000      -0.361522        -9.8375 
  36   2.0000      -0.325572        -8.8593 
  37   2.0000      -0.318348        -8.6627 
  38   2.0000      -0.307821        -8.3762 
  39   2.0000      -0.290288        -7.8991 
  40   2.0000      -0.286962        -7.8086 
  41   2.0000      -0.274926        -7.4811 
  42   2.0000      -0.263020        -7.1571 
  43   2.0000      -0.243178        -6.6172 
  44   2.0000      -0.233463        -6.3529 
  45   2.0000      -0.226097        -6.1524 
  46   2.0000      -0.215246        -5.8572 
  47   2.0000      -0.197155        -5.3648 
  48   0.0000       0.012479         0.3396 
  49   0.0000       0.019067         0.5188 
  50   0.0000       0.030812         0.8384 
  51   0.0000       0.039921         1.0863 
  52   0.0000       0.062217         1.6930 
  53   0.0000       0.065798         1.7905 
  54   0.0000       0.076125         2.0715 
  55   0.0000       0.085779         2.3342 
  56   0.0000       0.098562         2.6820 
  57   0.0000       0.113489         3.0882 
  58   0.0000       0.116133         3.1601 
*Only the first 10 virtual orbitals were printed.

                    ********************************
                    * MULLIKEN POPULATION ANALYSIS *
                    ********************************

-----------------------
MULLIKEN ATOMIC CHARGES
-----------------------
   0 C :    0.017432
   1 C :    0.051810
   2 H :    0.059044
   3 C :   -0.010843
   4 H :    0.058770
   5 C :    0.114516
   6 H :    0.079723
   7 C :    0.013158
   8 H :    0.032284
   9 C :    0.201729
  10 H :    0.068169
  11 O :   -0.320304
  12 O :   -0.393590
  13 O :   -0.424303
  14 O :   -0.419152
  15 O :   -0.409191
  16 O :   -0.435341
  17 H :    0.087682
  18 H :    0.099533
  19 H :    0.300701
  20 H :    0.302507
  21 H :    0.313509
  22 H :    0.306953
  23 H :    0.305204
Sum of atomic charges:   -0.0000000

--------------------------------
MULLIKEN REDUCED ORBITAL CHARGES
--------------------------------
  0 C s       :     3.047097  s :     3.047097
      pz      :     1.035536  p :     2.873241
      px      :     0.787094
      py      :     1.050611
      dz2     :     0.009486  d :     0.062229
      dxz     :     0.018093
      dyz     :     0.006384
      dx2y2   :     0.016536
      dxy     :     0.011730

  1 C s       :     3.056579  s :     3.056579
      pz      :     1.053225  p :     2.826474
      px      :     0.869874
      py      :     0.903374
      dz2     :     0.009969  d :     0.065137
      dxz     :     0.015842
      dyz     :     0.009790
      dx2y2   :     0.012189
      dxy     :     0.017348

  2 H s       :     0.940956  s :     0.940956

  3 C s       :     3.068133  s :     3.068133
      pz      :     0.772635  p :     2.874865
      px      :     1.085073
      py      :     1.017157
      dz2     :     0.019528  d :     0.067845
      dxz     :     0.014928
      dyz     :     0.016023
      dx2y2   :     0.005706
      dxy     :     0.011661

  4 H s       :     0.941230  s :     0.941230

  5 C s       :     3.005533  s :     3.005533
      pz      :     0.803831  p :     2.813580
      px      :     1.002698
      py      :     1.007051
      dz2     :     0.013971  d :     0.066370
      dxz     :     0.015067
      dyz     :     0.016753
      dx2y2   :     0.007225
      dxy     :     0.013355

  6 H s       :     0.920277  s :     0.920277

  7 C s       :     3.039104  s :     3.039104
      pz      :     1.095114  p :     2.880954
      px      :     0.800160
      py      :     0.985680
      dz2     :     0.011408  d :     0.066783
      dxz     :     0.014691
      dyz     :     0.009665
      dx2y2   :     0.015073
      dxy     :     0.015946

  8 H s       :     0.967716  s :     0.967716

  9 C s       :     3.012565  s :     3.012565
      pz      :     1.109487  p :     2.685208
      px      :     0.741285
      py      :     0.834436
      dz2     :     0.017043  d :     0.100498
      dxz     :     0.016540
      dyz     :     0.017241
      dx2y2   :     0.023731
      dxy     :     0.025942

 10 H s       :     0.931831  s :     0.931831

 11 O s       :     3.751611  s :     3.751611
      pz      :     1.821251  p :     4.554083
      px      :     1.179867
      py      :     1.552965
      dz2     :     0.002130  d :     0.014610
      dxz     :     0.002226
      dyz     :     0.001712
      dx2y2   :     0.003040
      dxy     :     0.005502

 12 O s       :     3.769707  s :     3.769707
      pz      :     1.635310  p :     4.608634
      px      :     1.597898
      py      :     1.375425
      dz2     :     0.001883  d :     0.015249
      dxz     :     0.003267
      dyz     :     0.003670
      dx2y2   :     0.001660
      dxy     :     0.004769

 13 O s       :     3.773738  s :     3.773738
      pz      :     1.893549  p :     4.635362
      px      :     1.225344
      py      :     1.516469
      dz2     :     0.002651  d :     0.015202
      dxz     :     0.001379
      dyz     :     0.001275
      dx2y2   :     0.002876
      dxy     :     0.007021

 14 O s       :     3.782906  s :     3.782906
      pz      :     1.424005  p :     4.621099
      px      :     1.516471
      py      :     1.680622
      dz2     :     0.002225  d :     0.015147
      dxz     :     0.004929
      dyz     :     0.001900
      dx2y2   :     0.002359
      dxy     :     0.003734

 15 O s       :     3.789422  s :     3.789422
      pz      :     1.222248  p :     4.604566
      px      :     1.497074
      py      :     1.885245
      dz2     :     0.002470  d :     0.015202
      dxz     :     0.006288
      dyz     :     0.001664
      dx2y2   :     0.003270
      dxy     :     0.001511

 16 O s       :     3.788080  s :     3.788080
      pz      :     1.894023  p :     4.631643
      px      :     1.453896
      py      :     1.283724
      dz2     :     0.002792  d :     0.015617
      dxz     :     0.002040
      dyz     :     0.000507
      dx2y2   :     0.008289
      dxy     :     0.001989

 17 H s       :     0.912318  s :     0.912318

 18 H s       :     0.900467  s :     0.900467

 19 H s       :     0.699299  s :     0.699299

 20 H s       :     0.697493  s :     0.697493

 21 H s       :     0.686491  s :     0.686491

 22 H s       :     0.693047  s :     0.693047

 23 H s       :     0.694796  s :     0.694796


------------------------
MULLIKEN OVERLAP CHARGES
------------------------
B(  0-C ,  1-C ) :   0.4641 B(  0-C ,  2-H ) :  -0.0710 B(  0-C ,  3-C ) :  -0.1037 
B(  0-C , 11-O ) :  -0.0732 B(  0-C , 16-O ) :   0.6335 B(  0-C , 17-H ) :   0.6360 
B(  0-C , 18-H ) :   0.7109 B(  0-C , 23-H ) :  -0.0795 B(  1-C ,  2-H ) :   0.6037 
B(  1-C ,  3-C ) :   0.4649 B(  1-C ,  4-H ) :  -0.1258 B(  1-C ,  5-C ) :   0.0516 
B(  1-C ,  7-C ) :  -0.0810 B(  1-C ,  9-C ) :  -0.1285 B(  1-C , 11-O ) :   0.4887 
B(  1-C , 15-O ) :  -0.0631 B(  1-C , 16-O ) :  -0.1188 B(  1-C , 18-H ) :  -0.0542 
B(  2-H ,  3-C ) :  -0.0544 B(  3-C ,  4-H ) :   0.6187 B(  3-C ,  5-C ) :  -0.0968 
B(  3-C ,  7-C ) :   0.1688 B(  3-C , 14-O ) :  -0.0761 B(  3-C , 15-O ) :   0.4624 
B(  3-C , 18-H ) :  -0.0650 B(  3-C , 22-H ) :  -0.0658 B(  4-H ,  5-C ) :  -0.0560 
B(  5-C ,  6-H ) :   0.5030 B(  5-C , 10-H ) :  -0.0534 B(  5-C , 13-O ) :  -0.1307 
B(  5-C , 14-O ) :   0.5179 B(  5-C , 15-O ) :  -0.0768 B(  5-C , 21-H ) :  -0.0818 
B(  7-C ,  8-H ) :   0.4644 B(  7-C ,  9-C ) :   0.3939 B(  7-C , 10-H ) :  -0.1174 
B(  7-C , 11-O ) :  -0.0892 B(  7-C , 12-O ) :  -0.1202 B(  7-C , 13-O ) :   0.6107 
B(  7-C , 14-O ) :  -0.0600 B(  7-C , 20-H ) :  -0.1080 B(  8-H , 13-O ) :  -0.0707 
B(  9-C , 10-H ) :   0.6829 B(  9-C , 11-O ) :   0.5921 B(  9-C , 12-O ) :   0.6476 
B(  9-C , 19-H ) :  -0.0618 B( 10-H , 11-O ) :  -0.0556 B( 10-H , 12-O ) :  -0.0860 
B( 11-O , 12-O ) :  -0.1144 B( 12-O , 19-H ) :   0.5112 B( 12-O , 20-H ) :   0.0617 
B( 13-O , 20-H ) :   0.5270 B( 14-O , 18-H ) :   0.0537 B( 14-O , 21-H ) :   0.5273 
B( 15-O , 22-H ) :   0.5186 B( 16-O , 17-H ) :  -0.0508 B( 16-O , 23-H ) :   0.5362 
B( 17-H , 18-H ) :  -0.0622 


                     *******************************
                     * LOEWDIN POPULATION ANALYSIS *
                     *******************************

----------------------
LOEWDIN ATOMIC CHARGES
----------------------
   0 C :   -0.139908
   1 C :   -0.069267
   2 H :    0.108195
   3 C :   -0.070864
   4 H :    0.103707
   5 C :   -0.058066
   6 H :    0.120075
   7 C :   -0.102665
   8 H :    0.095941
   9 C :   -0.006337
  10 H :    0.102909
  11 O :   -0.152020
  12 O :   -0.301049
  13 O :   -0.326282
  14 O :   -0.318877
  15 O :   -0.310729
  16 O :   -0.333305
  17 H :    0.114738
  18 H :    0.105154
  19 H :    0.286016
  20 H :    0.282299
  21 H :    0.295299
  22 H :    0.290364
  23 H :    0.284674

-------------------------------
LOEWDIN REDUCED ORBITAL CHARGES
-------------------------------
  0 C s       :     2.925732  s :     2.925732
      pz      :     1.079920  p :     3.071723
      px      :     0.899528
      py      :     1.092274
      dz2     :     0.024112  d :     0.142453
      dxz     :     0.043555
      dyz     :     0.013851
      dx2y2   :     0.037006
      dxy     :     0.023930

  1 C s       :     2.907775  s :     2.907775
      pz      :     1.090871  p :     3.010175
      px      :     0.939073
      py      :     0.980231
      dz2     :     0.025932  d :     0.151318
      dxz     :     0.037469
      dyz     :     0.020119
      dx2y2   :     0.027989
      dxy     :     0.039809

  2 H s       :     0.891805  s :     0.891805

  3 C s       :     2.891193  s :     2.891193
      pz      :     0.870294  p :     3.022411
      px      :     1.074287
      py      :     1.077830
      dz2     :     0.044258  d :     0.157261
      dxz     :     0.034264
      dyz     :     0.034925
      dx2y2   :     0.016136
      dxy     :     0.027677

  4 H s       :     0.896293  s :     0.896293

  5 C s       :     2.893457  s :     2.893457
      pz      :     0.932150  p :     3.010247
      px      :     1.055076
      py      :     1.023021
      dz2     :     0.030692  d :     0.154362
      dxz     :     0.036869
      dyz     :     0.037199
      dx2y2   :     0.015274
      dxy     :     0.034327

  6 H s       :     0.879925  s :     0.879925

  7 C s       :     2.907093  s :     2.907093
      pz      :     1.086303  p :     3.038138
      px      :     0.891277
      py      :     1.060558
      dz2     :     0.027379  d :     0.157434
      dxz     :     0.031395
      dyz     :     0.025999
      dx2y2   :     0.034026
      dxy     :     0.038634

  8 H s       :     0.904059  s :     0.904059

  9 C s       :     2.887398  s :     2.887398
      pz      :     1.114281  p :     2.893234
      px      :     0.832896
      py      :     0.946057
      dz2     :     0.037826  d :     0.225705
      dxz     :     0.033664
      dyz     :     0.043360
      dx2y2   :     0.051854
      dxy     :     0.059002

 10 H s       :     0.897091  s :     0.897091

 11 O s       :     3.468023  s :     3.468023
      pz      :     1.818776  p :     4.655285
      px      :     1.256246
      py      :     1.580263
      dz2     :     0.003871  d :     0.028712
      dxz     :     0.004226
      dyz     :     0.002220
      dx2y2   :     0.006658
      dxy     :     0.011737

 12 O s       :     3.528254  s :     3.528254
      pz      :     1.669703  p :     4.745933
      px      :     1.648293
      py      :     1.427937
      dz2     :     0.003283  d :     0.026863
      dxz     :     0.004798
      dyz     :     0.006674
      dx2y2   :     0.002676
      dxy     :     0.009432

 13 O s       :     3.532421  s :     3.532421
      pz      :     1.894148  p :     4.767132
      px      :     1.297265
      py      :     1.575719
      dz2     :     0.004228  d :     0.026729
      dxz     :     0.002490
      dyz     :     0.001387
      dx2y2   :     0.005736
      dxy     :     0.012888

 14 O s       :     3.534979  s :     3.534979
      pz      :     1.483032  p :     4.757186
      px      :     1.578652
      py      :     1.695501
      dz2     :     0.004335  d :     0.026712
      dxz     :     0.008692
      dyz     :     0.004258
      dx2y2   :     0.003357
      dxy     :     0.006070

 15 O s       :     3.536883  s :     3.536883
      pz      :     1.302293  p :     4.747006
      px      :     1.565056
      py      :     1.879657
      dz2     :     0.006045  d :     0.026840
      dxz     :     0.011337
      dyz     :     0.003070
      dx2y2   :     0.004573
      dxy     :     0.001814

 16 O s       :     3.539271  s :     3.539271
      pz      :     1.891252  p :     4.766978
      px      :     1.516959
      py      :     1.358767
      dz2     :     0.004390  d :     0.027056
      dxz     :     0.002893
      dyz     :     0.000846
      dx2y2   :     0.014975
      dxy     :     0.003952

 17 H s       :     0.885262  s :     0.885262

 18 H s       :     0.894846  s :     0.894846

 19 H s       :     0.713984  s :     0.713984

 20 H s       :     0.717701  s :     0.717701

 21 H s       :     0.704701  s :     0.704701

 22 H s       :     0.709636  s :     0.709636

 23 H s       :     0.715326  s :     0.715326


---------------------------------
LOEWDIN BOND ORDERS (THRESH 0.050000)
---------------------------------
B(  0-C ,  1-C ) :   1.0438 B(  0-C ,  3-C ) :   0.0572 B(  0-C , 11-O ) :   0.0752 
B(  0-C , 16-O ) :   1.2419 B(  0-C , 17-H ) :   0.9067 B(  0-C , 18-H ) :   0.9017 
B(  1-C ,  2-H ) :   0.8719 B(  1-C ,  3-C ) :   1.0362 B(  1-C ,  5-C ) :   0.0509 
B(  1-C ,  9-C ) :   0.0600 B(  1-C , 11-O ) :   1.1166 B(  1-C , 15-O ) :   0.0781 
B(  1-C , 16-O ) :   0.0890 B(  3-C ,  4-H ) :   0.8624 B(  3-C ,  5-C ) :   1.0139 
B(  3-C ,  7-C ) :   0.0520 B(  3-C , 11-O ) :   0.0507 B(  3-C , 14-O ) :   0.0617 
B(  3-C , 15-O ) :   1.2093 B(  5-C ,  6-H ) :   0.8641 B(  5-C ,  7-C ) :   1.0210 
B(  5-C ,  9-C ) :   0.0559 B(  5-C , 13-O ) :   0.0625 B(  5-C , 14-O ) :   1.2150 
B(  5-C , 15-O ) :   0.0613 B(  7-C ,  8-H ) :   0.8606 B(  7-C ,  9-C ) :   1.0141 
B(  7-C , 11-O ) :   0.0724 B(  7-C , 12-O ) :   0.0822 B(  7-C , 13-O ) :   1.2280 
B(  7-C , 14-O ) :   0.0761 B(  9-C , 10-H ) :   0.8678 B(  9-C , 11-O ) :   1.1709 
B(  9-C , 12-O ) :   1.2692 B(  9-C , 13-O ) :   0.0818 B( 11-O , 12-O ) :   0.0724 
B( 12-O , 19-H ) :   0.8672 B( 13-O , 20-H ) :   0.8656 B( 14-O , 21-H ) :   0.8795 
B( 15-O , 22-H ) :   0.8793 B( 16-O , 23-H ) :   0.8878 

------------------------------------------
LOEWDIN REDUCED ORBITAL POPULATIONS PER MO
-------------------------------------------
THRESHOLD FOR PRINTING IS 0.1%%
                      0         1         2         3         4         5   
                 -18.77050 -18.76429 -18.76404 -18.76334 -18.75140 -18.74913
                   2.00000   2.00000   2.00000   2.00000   2.00000   2.00000
                  --------  --------  --------  --------  --------  --------
11 O  s              99.9       0.0       0.0       0.0       0.0       0.0
12 O  s               0.0       0.1      99.8       0.0       0.0       0.0
13 O  s               0.0       0.0       0.0       0.0       0.0      99.9
14 O  s               0.0       0.1       0.0      99.8       0.0       0.0
15 O  s               0.0      99.7       0.1       0.1       0.0       0.0
16 O  s               0.0       0.0       0.0       0.0      99.9       0.0

                      6         7         8         9        10        11   
                  -9.98145  -9.95418  -9.94710  -9.94556  -9.93553  -9.92976
                   2.00000   2.00000   2.00000   2.00000   2.00000   2.00000
                  --------  --------  --------  --------  --------  --------
 0 C  s               0.0       0.0       0.0       0.0       0.0      99.6
 1 C  s               0.0       0.0       0.0      99.6       0.0       0.0
 3 C  s               0.0      99.6       0.0       0.0       0.0       0.0
 5 C  s               0.0       0.0      99.6       0.0       0.0       0.0
 7 C  s               0.0       0.0       0.0       0.0      99.6       0.0
 9 C  s              99.6       0.0       0.0       0.0       0.0       0.0
13 O  px              0.0       0.0       0.0       0.0       0.1       0.0
15 O  pz              0.0       0.1       0.0       0.0       0.0       0.0
16 O  px              0.0       0.0       0.0       0.0       0.0       0.1

                     12        13        14        15        16        17   
                  -0.98454  -0.94777  -0.93857  -0.92755  -0.92249  -0.91019
                   2.00000   2.00000   2.00000   2.00000   2.00000   2.00000
                  --------  --------  --------  --------  --------  --------
 0 C  s               0.4       0.2       0.3       8.6       1.4       0.0
 0 C  pz              0.3       0.0       0.1       0.0       0.0       0.3
 0 C  px              0.1       0.0       0.0       4.9       1.7       0.8
 0 C  py              0.0       0.1       0.0       1.2       0.4       0.2
 0 C  dz2             0.0       0.0       0.0       0.1       0.1       0.0
 0 C  dx2y2           0.0       0.0       0.0       0.2       0.0       0.0
 0 C  dxy             0.0       0.0       0.0       0.3       0.1       0.0
 1 C  s               4.1       0.4       1.3       1.3       0.2       2.7
 1 C  pz              0.0       0.1       0.1       0.9       0.1       0.0
 1 C  px              2.5       0.0       0.2       0.1       0.8       2.0
 1 C  py              0.8       0.8       0.0       0.2       0.5       1.6
 1 C  dxy             0.2       0.0       0.0       0.0       0.1       0.2
 2 H  s               0.5       0.1       0.2       0.2       0.0       0.3
 3 C  s               1.4       7.1       2.6       0.3       0.1       0.1
 3 C  pz              0.1       1.9       4.9       1.6       0.7       0.6
 3 C  px              0.1       0.6       0.0       0.1       0.0       0.0
 3 C  py              0.4       0.1       0.3       0.1       0.0       0.5
 3 C  dz2             0.0       0.3       0.3       0.1       0.0       0.1
 4 H  s               0.2       1.1       0.2       0.0       0.0       0.0
 5 C  s               0.8       7.2       3.1       0.0       0.4       0.0
 5 C  pz              0.0       1.2       4.7       0.4       1.0       0.0
 5 C  px              0.0       0.9       0.2       0.1       0.8       0.2
 5 C  py              0.2       0.5       0.7       0.2       1.0       0.3
 5 C  dz2             0.0       0.1       0.1       0.0       0.1       0.0
 5 C  dyz             0.0       0.2       0.1       0.0       0.1       0.0
 6 H  s               0.1       1.1       0.3       0.0       0.0       0.0
 7 C  s               2.6       0.5       3.0       0.5       4.1       1.3
 7 C  pz              0.6       0.0       0.0       0.0       0.0       0.0
 7 C  px              0.0       0.1       1.1       0.9       6.7       0.7
 7 C  py              0.6       1.3       0.6       0.0       0.2       0.2
 7 C  dz2             0.0       0.0       0.1       0.0       0.1       0.0
 7 C  dx2y2           0.0       0.0       0.1       0.0       0.3       0.1
 7 C  dxy             0.0       0.0       0.0       0.0       0.1       0.0
 8 H  s               0.5       0.1       0.5       0.0       0.4       0.1
 9 C  s              15.3       0.9       0.1       0.0       0.0       0.1
 9 C  pz              0.6       0.0       0.2       0.0       0.2       0.0
 9 C  px              0.5       0.3       1.5       1.0       1.9       8.7
 9 C  py              2.9       1.4       0.0       0.0       0.6       2.5
 9 C  dz2             0.3       0.0       0.0       0.0       0.0       0.0
 9 C  dx2y2           0.1       0.0       0.0       0.0       0.1       0.3
 9 C  dxy             0.0       0.0       0.0       0.0       0.0       0.8
10 H  s               1.8       0.0       0.0       0.0       0.0       0.0
11 O  s              26.0       0.3       2.3       2.1       5.1      18.6
11 O  px              0.7       0.2       0.1       0.1       0.0       0.3
11 O  py              1.2       0.0       0.2       0.1       0.2       1.2
12 O  s              21.3       5.9       1.6       1.4       0.1      29.3
12 O  pz              0.1       0.1       0.0       0.0       0.0       0.4
12 O  px              1.7       0.3       0.0       0.0       0.0       0.8
12 O  py              0.4       0.0       0.0       0.0       0.0       0.0
13 O  s               1.8       0.6      10.4       3.5      33.3       8.7
13 O  px              0.1       0.0       0.2       0.0       0.3       0.1
13 O  py              0.1       0.0       0.5       0.2       1.6       0.3
14 O  s               0.6      24.4      21.8       1.6       9.1       1.1
14 O  pz              0.0       0.3       0.2       0.0       0.0       0.0
14 O  px              0.0       1.1       1.1       0.1       0.4       0.0
15 O  s               1.6      24.5      20.9       6.0       2.4       3.0
15 O  pz              0.1       0.5       0.2       0.0       0.0       0.0
15 O  px              0.1       1.0       1.0       0.3       0.1       0.1
16 O  s               0.1       0.4       0.8      44.5      10.9       2.5
16 O  px              0.0       0.0       0.0       2.1       0.5       0.1
16 O  py              0.0       0.0       0.0       0.6       0.2       0.0
17 H  s               0.1       0.0       0.1       1.0       0.1       0.0
18 H  s               0.1       0.1       0.0       1.1       0.1       0.0
19 H  s               4.5       1.2       0.3       0.2       0.0       5.5
20 H  s               0.6       0.1       2.1       0.8       6.7       1.4
21 H  s               0.1       4.8       4.5       0.3       1.8       0.2
22 H  s               0.3       4.9       4.2       1.2       0.5       0.6
23 H  s               0.0       0.1       0.2       9.1       2.2       0.5

                     18        19        20        21        22        23   
                  -0.70922  -0.68703  -0.61940  -0.58837  -0.56874  -0.52336
                   2.00000   2.00000   2.00000   2.00000   2.00000   2.00000
                  --------  --------  --------  --------  --------  --------
 0 C  s               2.1       6.0      13.3       0.2       9.3       0.5
 0 C  pz              0.9       1.9       0.0       0.0       3.1       1.1
 0 C  px              0.8       1.3       0.6       0.0       0.1       0.0
 0 C  py              0.0       0.2       0.8       0.2       0.6       0.1
 1 C  s               6.7      13.8       0.7       0.2       6.0       1.3
 1 C  pz              0.2       0.3       3.8       0.0       5.1       0.2
 1 C  px              0.1       0.9       1.7       0.5       0.0       0.3
 1 C  py              4.2       0.1       0.8       4.9       0.1       3.5
 1 C  dz2             0.0       0.0       0.2       0.0       0.1       0.0
 1 C  dxy             0.1       0.0       0.0       0.1       0.0       0.0
 2 H  s               1.0       3.4       0.2       0.0       3.2       1.6
 3 C  s              13.7       0.5       6.4       4.1       0.0       2.7
 3 C  pz              4.6       0.0       0.2       0.0       0.2       1.1
 3 C  px              0.4       2.9       0.2       1.8       2.2       0.3
 3 C  py              0.3       1.8       1.1       0.2       5.9       0.0
 3 C  dz2             0.1       0.0       0.0       0.0       0.0       0.0
 4 H  s               2.7       0.2       2.1       1.9       0.0       0.8
 5 C  s              11.3       3.6       1.2       4.5       2.9       3.9
 5 C  pz              1.8       0.1       1.7       0.3       0.6       0.3
 5 C  px              0.6       1.3       3.4       4.0       1.1       0.0
 5 C  py              2.9       1.3       1.0       0.1       1.7       2.3
 5 C  dxz             0.1       0.0       0.0       0.0       0.0       0.2
 6 H  s               1.8       0.8       0.4       1.7       1.4       1.8
 7 C  s               4.2       8.6       6.6       2.6       3.5       1.4
 7 C  pz              0.3       0.9       0.0       1.8       0.1       1.8
 7 C  px              2.5       2.3       0.2       0.4       0.0       0.0
 7 C  py              0.5       0.2       1.2       5.8       0.7       0.8
 7 C  dyz             0.0       0.0       0.0       0.2       0.0       0.0
 7 C  dxy             0.1       0.0       0.0       0.0       0.0       0.1
 8 H  s               0.7       1.5       2.3       1.1       1.2       2.1
 9 C  s               0.0       8.9       2.9      10.0       0.1       0.6
 9 C  pz              0.3       0.1       0.5       2.1       0.4       4.2
 9 C  px              0.8       0.5       1.1       0.6       1.9       6.4
 9 C  py              1.9       2.1       2.0       0.1       2.5       0.1
 9 C  dxy             0.1       0.1       0.0       0.0       0.1       0.3
10 H  s               0.0       1.9       0.7       4.3       0.0       2.1
11 O  s               4.0       0.0       1.5       1.5       0.9       0.0
11 O  pz              0.0       0.1       0.3       0.4       0.0       0.3
11 O  px              1.0       9.7       0.0       5.6       5.8       6.3
11 O  py              0.5       0.1       0.1       0.2       1.6       0.0
11 O  dxy             0.0       0.2       0.0       0.0       0.1       0.1
12 O  s               0.2       2.5       0.4       1.3       0.1       0.2
12 O  pz              0.0       0.5       0.3       4.1       0.0       5.9
12 O  px              0.0       0.4       0.0       0.5       0.3       0.1
12 O  py              0.0       2.0       2.2      10.8       0.2       9.0
12 O  dxy             0.0       0.0       0.0       0.1       0.0       0.1
13 O  s               1.2       2.4       1.7       0.1       0.8       0.0
13 O  pz              0.0       0.0       0.0       0.2       0.0       0.4
13 O  px              1.0       2.3       3.2       3.8       3.1       0.8
13 O  py              0.1       0.2       0.1       1.1       0.0       0.0
14 O  s               3.5       0.7       0.1       1.0       0.2       0.2
14 O  pz              2.2       0.4       1.3       1.6       4.4       9.9
14 O  px              0.4       0.0       0.3       0.1       0.6       0.4
14 O  py              1.4       0.3       0.1       1.2       1.2       3.0
15 O  s               3.8       0.1       1.0       0.7       0.2       0.1
15 O  pz              3.7       0.0       4.9       2.7       0.0       8.0
15 O  px              0.6       0.1       0.5       0.1       0.3       0.3
15 O  py              0.0       0.0       0.1       0.0       0.5       0.0
16 O  s               1.0       1.6       1.7       0.1       0.7       0.1
16 O  px              0.2       0.7       2.9       0.1       3.8       0.5
16 O  py              0.3       1.0       4.6       0.1       6.7       0.5
16 O  dx2y2           0.0       0.0       0.1       0.0       0.1       0.0
17 H  s               0.3       1.4       4.3       0.0       4.4       0.1
18 H  s               0.6       1.1       3.4       0.1       3.3       0.6
19 H  s               0.0       1.3       0.8       4.9       0.0       4.0
20 H  s               0.6       1.4       1.3       1.5       0.9       0.3
21 H  s               2.2       0.4       0.5       0.8       1.8       3.5
22 H  s               2.3       0.0       1.9       0.9       0.0       2.2
23 H  s               0.4       0.9       2.7       0.1       3.0       0.2

                     24        25        26        27        28        29   
                  -0.51780  -0.48896  -0.47559  -0.46438  -0.44038  -0.43286
                   2.00000   2.00000   2.00000   2.00000   2.00000   2.00000
                  --------  --------  --------  --------  --------  --------
 0 C  s               0.1       0.1       0.0       1.6       0.1       0.0
 0 C  pz              0.1       1.0       0.3       0.9       5.7       1.5
 0 C  px              1.4       2.1       0.6      18.3       0.0       0.7
 0 C  py              1.7       0.1       0.5       1.9       0.5       0.1
 0 C  dx2y2           0.0       0.0       0.0       0.2       0.0       0.0
 1 C  s               0.0       0.2       0.6       0.0       0.2       1.1
 1 C  pz              0.7       1.7       0.6       6.0       1.8       0.0
 1 C  px              0.0       5.4       0.1       0.9       4.4       3.6
 1 C  py              3.7       1.6       4.0       0.7       0.4       0.4
 1 C  dz2             0.0       0.0       0.0       0.1       0.0       0.1
 1 C  dxy             0.0       0.0       0.2       0.0       0.0       0.2
 2 H  s               0.1       1.9       0.4       2.1       0.7       2.3
 3 C  s               0.0       0.6       0.6       0.0       0.1       0.7
 3 C  pz              6.0       0.0       1.3       0.6       0.8       3.0
 3 C  px              6.0       7.9       0.7       0.0       0.8       1.6
 3 C  py              0.0       0.1       8.9       0.0       4.8       5.0
 3 C  dz2             0.0       0.1       0.1       0.0       0.1       0.1
 3 C  dxz             0.1       0.0       0.0       0.0       0.0       0.1
 3 C  dxy             0.0       0.0       0.0       0.0       0.0       0.2
 4 H  s               2.0       2.7       2.6       0.0       2.0       6.0
 5 C  s               0.2       0.0       0.8       0.0       1.4       0.5
 5 C  pz              6.5       0.2       0.3       1.2       7.5       1.7
 5 C  px              4.7       1.9       1.9       1.2       2.0       2.3
 5 C  py              0.5       1.2       1.0       0.0       2.5       0.2
 5 C  dyz             0.0       0.0       0.0       0.0       0.1       0.0
 6 H  s               3.2       0.4       0.6       0.8       7.2       0.1
 7 C  s               0.2       0.0       0.9       0.6       0.0       0.1
 7 C  pz              2.8       0.5       5.8       0.7       1.2       9.1
 7 C  px              0.7       4.1       2.8       0.5       0.6       3.7
 7 C  py              1.9       7.5       1.8       3.7       1.8       0.7
 7 C  dx2y2           0.0       0.0       0.0       0.0       0.1       0.0
 7 C  dxy             0.0       0.2       0.0       0.0       0.0       0.1
 8 H  s               1.8       0.3       3.1       1.4       0.0       3.2
 9 C  s               0.0       0.0       0.4       0.0       0.1       0.2
 9 C  pz              2.7       2.2       3.4       1.9       8.8       0.4
 9 C  px              1.3       0.8       4.7       0.0       0.0       0.6
 9 C  py              0.3       5.6       2.4       0.6       0.0       9.0
 9 C  dxy             0.0       0.1       0.1       0.0       0.0       0.0
10 H  s               1.1       0.0       2.0       0.2       2.4       1.4
11 O  s               0.0       0.4       1.8       0.0       0.1       0.2
11 O  pz              0.4       2.0       1.8       0.2       3.9       0.0
11 O  px              3.8       5.1       4.7       0.3       0.5       4.0
11 O  py              0.0       2.9       2.5       0.0       1.4       1.3
12 O  s               0.3       0.1       0.0       0.1       0.7       0.2
12 O  pz              0.7       1.2       1.1       1.1       1.7       1.2
12 O  px              0.3       1.8       0.0       0.1       0.8       2.9
12 O  py              0.2       0.0       9.2       0.0       0.7       2.0
13 O  s               0.0       0.4       0.3       0.4       0.3       0.1
13 O  pz              0.2       0.4       0.9       0.0       0.5       1.4
13 O  px              1.0      14.3       5.3       1.5       3.0       6.5
13 O  py              0.6       5.7       0.1       2.4       1.0       0.0
14 O  s               0.1       0.2       0.1       0.2       1.0       0.6
14 O  pz              3.6       0.2       0.5       2.2       0.9       0.1
14 O  px              2.8       0.3       1.0       0.5       3.1       2.9
14 O  py              4.9       0.0       0.2       1.2       7.3       1.7
15 O  s               0.0       0.7       0.0       0.1       0.1       0.5
15 O  pz             12.1       0.2       6.1       0.6       2.4       4.0
15 O  px              5.5       2.3       0.1       0.0       1.0       2.6
15 O  py              0.1       0.0       2.1       0.0       2.1       0.5
16 O  s               0.1       0.0       0.0       1.5       0.0       0.1
16 O  pz              0.0       0.4       0.1       0.5       1.3       0.3
16 O  px              0.1       0.6       0.4       1.1       0.4       0.2
16 O  py              2.2       1.9       0.8      22.5       0.2       1.6
17 H  s               0.6       0.1       0.4       0.0       0.0       0.1
18 H  s               0.4       1.0       0.2       7.8       2.1       0.0
19 H  s               0.1       0.1       2.7       0.1       0.0       0.9
20 H  s               0.4       5.8       1.1       0.9       1.1       1.2
21 H  s               3.2       0.0       0.4       1.0       2.4       0.0
22 H  s               5.1       0.4       1.5       0.1       0.9       1.7
23 H  s               0.6       0.8       0.4       6.6       0.1       0.4

                     30        31        32        33        34        35   
                  -0.41992  -0.39629  -0.38775  -0.37841  -0.36329  -0.36152
                   2.00000   2.00000   2.00000   2.00000   2.00000   2.00000
                  --------  --------  --------  --------  --------  --------
 0 C  s               0.3       0.3       0.1       0.1       0.1       0.0
 0 C  pz              3.0       7.8       8.2       0.9       4.2       2.3
 0 C  px              1.7       0.5       0.1       0.5       0.1       0.1
 0 C  py              0.5       2.1       4.8      27.8       1.5       1.3
 0 C  dz2             0.1       0.0       0.0       0.0       0.0       0.0
 0 C  dx2y2           0.1       0.2       0.0       0.2       0.1       0.0
 1 C  s               0.5       0.5       0.1       0.0       0.2       0.2
 1 C  pz              0.2       5.2       5.1       0.1       6.6       4.3
 1 C  px              8.8       1.0       1.7       1.1       0.5       3.0
 1 C  py              1.5       1.5       1.7       0.4       0.1       1.2
 1 C  dz2             0.2       0.0       0.0       0.0       0.0       0.0
 1 C  dxz             0.0       0.0       0.0       0.0       0.0       0.1
 1 C  dyz             0.0       0.0       0.0       0.3       0.1       0.0
 1 C  dxy             0.0       0.0       0.0       0.1       0.2       0.0
 2 H  s               3.6       1.9       0.0       0.2       3.9       3.9
 3 C  s               1.4       0.1       0.1       0.5       0.1       0.0
 3 C  pz              2.7       2.2       1.8       0.1       5.0       0.1
 3 C  px              0.0       7.2       0.6       0.0       5.5       0.3
 3 C  py              0.4       2.6       4.7       2.5       0.2       0.0
 3 C  dz2             0.1       0.0       0.0       0.0       0.3       0.0
 3 C  dxz             0.1       0.0       0.0       0.1       0.1       0.1
 3 C  dyz             0.0       0.0       0.0       0.0       0.1       0.0
 3 C  dx2y2           0.0       0.0       0.1       0.0       0.0       0.1
 3 C  dxy             0.0       0.1       0.1       0.0       0.2       0.0
 4 H  s               0.4       4.3       1.1       0.2       0.8       0.1
 5 C  s               0.6       0.2       0.1       0.0       0.2       0.2
 5 C  pz              0.5       0.8       0.2       0.4       9.0       0.0
 5 C  px              0.3       3.2       1.9       0.0       4.5       0.1
 5 C  py              4.1       0.1      11.8       0.2       0.3      10.1
 5 C  dxz             0.2       0.0       0.2       0.0       0.0       0.0
 5 C  dyz             0.1       0.1       0.0       0.1       0.0       0.0
 5 C  dxy             0.1       0.0       0.0       0.0       0.1       0.1
 6 H  s               0.0       0.3       4.2       0.4       1.1       1.5
 7 C  s               0.0       0.6       0.2       0.3       0.0       0.1
 7 C  pz              2.4       0.7       0.7       1.8       4.7      10.1
 7 C  px              2.3       3.0       2.2       0.0       1.3       1.2
 7 C  py              2.3       0.0       2.1       0.4       1.8       1.6
 7 C  dz2             0.0       0.1       0.0       0.1       0.1       0.1
 7 C  dyz             0.1       0.0       0.0       0.0       0.1       0.0
 7 C  dxy             0.1       0.1       0.0       0.0       0.0       0.1
 8 H  s               0.5       2.0       0.5       2.1       3.1       4.1
 9 C  s               1.7       0.3       0.1       0.1       0.1       0.1
 9 C  pz              0.1       4.0       7.2       2.0       0.2       3.6
 9 C  px              1.1       0.1       0.1       0.1       0.2       0.9
 9 C  py              3.6       1.4       0.0       0.4       1.0       0.2
 9 C  dz2             0.2       0.1       0.0       0.0       0.0       0.1
 9 C  dx2y2           0.0       0.0       0.1       0.0       0.0       0.3
 9 C  dxy             0.4       0.0       0.0       0.0       0.0       0.0
10 H  s               2.1       2.6       3.0       1.3       0.0       2.2
11 O  s               0.5       0.1       0.1       0.8       0.1       1.1
11 O  pz              0.0       4.4       0.0       2.2       5.8       0.0
11 O  px              1.9       0.5       0.0       0.9       0.1       0.5
11 O  py              0.1       0.6       2.5       0.9       0.6      12.2
12 O  s               1.3       0.1       0.2       0.1       0.3       0.6
12 O  pz              4.9       0.1       3.0       0.2       0.0       0.9
12 O  px              0.6       1.3       0.1       1.8       1.5       3.3
12 O  py              5.4       2.1       2.3       0.7       0.0       1.0
13 O  s               0.0       0.5       0.2       0.5       0.1       0.1
13 O  pz              0.4       0.0       0.3       0.4       3.3       6.0
13 O  px              2.0       5.1       0.7       0.1       0.8       0.2
13 O  py              0.2       1.1       0.6       1.8       1.7       0.3
14 O  s               1.1       0.9       0.2       0.0       0.3       1.5
14 O  pz              5.6       0.0       6.6       0.3       1.1       5.3
14 O  px              3.2       3.2       0.9       0.0       4.1       5.6
14 O  py              0.6       0.1       0.5       0.1       4.5       1.9
15 O  s               0.6       1.9       0.6       0.6       0.1       0.1
15 O  pz              2.7       1.2       0.7       0.2       7.1       0.1
15 O  px              2.9       6.4       1.5       2.6       3.0       0.3
15 O  py              0.1       0.1       2.4       1.9       0.6       0.0
16 O  s               0.4       0.2       0.3       1.8       0.0       0.4
16 O  pz              0.8       2.1       2.9       0.9       2.1       0.8
16 O  px              0.9       0.5       3.3      19.1       1.2       1.6
16 O  py              4.8       1.3       0.0       0.4       0.1       0.4
16 O  dx2y2           0.0       0.0       0.0       0.1       0.0       0.0
17 H  s               0.2       3.2       0.8      14.0       1.8       0.2
18 H  s               0.0       2.2       3.5       1.3       0.8       1.6
19 H  s               3.2       0.3       0.0       0.0       0.0       0.0
20 H  s               0.5       1.9       0.0       0.3       0.1       0.0
21 H  s               2.5       0.1       0.2       0.1       0.2       0.1
22 H  s               1.6       0.1       0.0       0.2       0.6       0.0
23 H  s               1.5       0.7       0.1       0.3       0.1       0.0

                     36        37        38        39        40        41   
                  -0.32557  -0.31835  -0.30782  -0.29029  -0.28696  -0.27493
                   2.00000   2.00000   2.00000   2.00000   2.00000   2.00000
                  --------  --------  --------  --------  --------  --------
 0 C  s               0.1       0.0       0.0       0.4       0.0       0.0
 0 C  pz              0.5       0.1       1.8       0.4       0.0       0.1
 0 C  px              0.1       0.0       0.1       2.6       0.8       3.1
 0 C  py              0.3       0.2       0.3       1.9       0.6       3.8
 0 C  dz2             0.0       0.0       0.0       0.0       0.0       0.1
 0 C  dyz             0.0       0.0       0.0       0.0       0.0       0.1
 0 C  dx2y2           0.0       0.0       0.0       0.3       0.1       0.2
 0 C  dxy             0.0       0.0       0.0       0.2       0.0       0.1
 1 C  s               0.2       0.0       0.1       0.2       0.5       0.1
 1 C  pz              0.8       0.1       2.2       0.1       0.1       0.0
 1 C  px              0.1       1.5       0.6       0.1       0.2       2.1
 1 C  py              2.9       0.0       0.1       2.2       1.2       0.6
 1 C  dxz             0.0       0.0       0.1       0.1       0.0       0.1
 1 C  dx2y2           0.2       0.2       0.0       0.1       0.3       0.0
 2 H  s               1.1       1.1       1.8       0.1       0.3       2.9
 3 C  s               0.4       0.5       0.1       0.2       0.3       0.1
 3 C  pz              0.2       1.0       2.2       0.1       0.4       0.0
 3 C  px              0.2       0.1       1.0       5.9       0.3       6.1
 3 C  py              3.0       0.0       0.7       0.9       1.6       0.9
 3 C  dz2             0.0       0.0       0.2       0.0       0.0       0.1
 3 C  dxz             0.0       0.0       0.2       0.3       0.0       0.3
 3 C  dyz             0.0       0.0       0.0       0.0       0.2       0.0
 3 C  dxy             0.0       0.0       0.0       0.0       0.0       0.1
 4 H  s               0.8       0.4       2.0       0.6       0.1       3.1
 5 C  s               0.3       0.1       0.2       0.4       0.2       0.1
 5 C  pz              0.1       1.5       2.5       0.0       0.0       0.1
 5 C  px              0.0       0.4       0.0       5.4       0.2       7.9
 5 C  py              0.2       0.0       0.3       1.2       0.5       0.1
 5 C  dxz             0.0       0.1       0.0       0.3       0.0       0.2
 5 C  dyz             0.1       0.1       0.0       0.2       0.1       0.1
[...]
 3 C  pz              0.6       0.8       0.3       0.1       2.1       0.1
 3 C  px              0.1       0.1       0.0       0.0       0.2       0.0
 3 C  py              0.0       0.0       0.1       0.0       0.3       0.0
 3 C  dz2             2.9       3.0       0.5       0.1       4.4       0.2
 3 C  dxz             0.2       0.1       0.4       0.3       1.6       0.1
 3 C  dyz             0.0       0.0       0.1       0.1       0.1       0.0
 3 C  dx2y2           0.0       0.0       0.3       0.0       0.0       0.0
 4 H  s               0.1       0.0       0.0       0.0       0.1       0.0
 5 C  s               1.0       0.4       0.0       0.3       0.6       0.2
 5 C  pz              0.8       0.3       0.1       0.3       1.3       0.2
 5 C  px              0.3       0.1       0.2       0.0       0.1       0.0
 5 C  py              0.4       0.1       0.2       0.0       0.3       0.0
 5 C  dz2             1.9       0.7       0.5       0.4       0.5       0.0
 5 C  dxz             0.6       0.0       0.3       0.1       2.0       0.2
 5 C  dyz             2.6       0.7       0.3       0.1       1.2       0.4
 5 C  dx2y2           0.2       0.0       0.0       0.0       0.1       0.0
 5 C  dxy             0.1       0.1       0.0       0.5       0.5       0.2
 7 C  s               0.1       0.1       0.7       1.0       0.0       0.2
 7 C  px              0.3       0.1       1.3       1.6       0.0       0.5
 7 C  py              0.0       0.0       0.1       0.4       0.0       0.0
 7 C  dz2             0.0       0.2       0.3       1.8       0.0       0.4
 7 C  dxz             0.0       0.0       0.1       0.1       0.0       0.4
 7 C  dyz             0.0       0.0       0.0       0.1       0.1       0.0
 7 C  dx2y2           0.6       0.2       1.9       3.3       0.1       0.3
 7 C  dxy             0.5       0.1       1.6       2.5       0.0       0.1
 8 H  s               0.0       0.0       0.0       0.1       0.0       0.0
 9 C  s               0.0       0.0       1.1       0.1       0.3       0.1
 9 C  px              0.0       0.0       0.2       0.7       0.1       3.4
 9 C  py              0.0       0.0       0.4       0.3       0.1       0.2
 9 C  dz2             0.0       0.0       0.4       0.1       0.2       0.0
 9 C  dxz             0.1       0.0       0.6       0.1       0.0       0.4
 9 C  dx2y2           0.1       0.0       1.2       0.0       0.5       4.7
 9 C  dxy             0.1       0.0       2.4       6.1       0.7       5.5
11 O  s               0.0       0.0       0.9       0.6       0.6       0.1
11 O  px              0.1       0.0       0.9       0.1       0.8       4.5
11 O  py              0.0       0.0       0.1       0.0       0.1       0.1
11 O  dz2             0.1       0.0       2.8       1.1       1.3       0.4
11 O  dxz             0.0       0.1       0.1       1.0       0.6       0.0
11 O  dyz             0.0       0.6       0.4       0.0       0.3       0.3
11 O  dx2y2           0.0       0.1       0.8       7.3       0.0       7.8
11 O  dxy             1.4       0.2      17.1       1.0      10.8      29.6
12 O  s               0.0       0.0       1.4       0.8       0.1       2.0
12 O  pz              0.0       0.0       0.1       0.1       0.0       0.1
12 O  px              0.0       0.0       0.2       0.2       0.0       0.6
12 O  py              0.0       0.0       0.9       0.8       0.1       0.7
12 O  dz2             0.0       0.0       2.7       2.1       0.3       4.3
12 O  dxz             0.1       0.0       0.1       0.6       0.0       0.8
12 O  dyz             0.1       0.0       0.1       1.5       0.0       0.2
12 O  dx2y2           0.1       0.0       4.0       1.0       0.8       0.4
12 O  dxy             0.1       0.0       9.1       9.2       1.1      12.0
13 O  s               0.2       0.1       1.7       2.6       0.0       0.8
13 O  px              0.3       0.2       1.6       2.4       0.0       0.4
13 O  dz2             0.4       0.7       4.2       6.3       0.0       1.3
13 O  dxz             0.0       0.0       0.0       0.3       0.0       0.2
13 O  dyz             0.1       0.0       0.0       0.1       0.1       0.2
13 O  dx2y2           2.7       1.4      10.3      17.1       0.0       1.2
13 O  dxy             1.9       0.8       6.9       7.8       0.0       1.6
14 O  s               1.4       0.6       0.2       0.6       2.4       0.3
14 O  pz              1.2       0.4       0.2       0.2       1.2       0.2
14 O  py              0.5       0.3       0.1       0.1       0.6       0.0
14 O  dz2             6.1       1.4       0.8       0.7       4.9       0.9
14 O  dxz             8.5       3.2       0.8       0.8       2.5       0.4
14 O  dyz            10.0       3.1       1.6       2.4       9.2       0.9
14 O  dx2y2           0.5       0.2       0.3       0.0       0.8       0.0
14 O  dxy             3.3       1.7       0.3       0.7       1.0       0.1
15 O  s               0.7       1.1       0.3       0.1       3.7       0.2
15 O  pz              1.0       1.1       0.3       0.1       2.5       0.2
15 O  dz2            10.3      12.2       3.9       1.3      22.5       1.1
15 O  dxz             4.7       4.7       0.2       0.0       3.1       0.0
15 O  dyz             0.3       0.6       0.0       0.1       1.2       0.0
15 O  dxy             0.0       0.0       0.0       0.0       0.0       0.1
16 O  s               1.1       2.3       0.1       0.4       0.2       0.2
16 O  px              0.9       1.6       0.1       0.2       0.2       0.0
16 O  py              0.5       0.9       0.0       0.1       0.1       0.0
16 O  dz2             3.8       7.7       0.3       0.9       0.5       0.1
16 O  dxz             0.0       0.0       0.3       0.0       0.2       0.3
16 O  dx2y2           9.7      19.1       0.7       2.0       1.1       0.3
16 O  dxy             6.9      13.1       0.6       1.1       1.0       0.2
19 H  s               0.0       0.0       0.1       0.0       0.0       0.2
20 H  s               0.1       0.0       0.2       0.3       0.0       0.0
21 H  s               0.3       0.2       0.0       0.0       0.2       0.0
22 H  s               0.2       0.2       0.0       0.0       0.2       0.0
23 H  s               0.2       0.4       0.0       0.0       0.0       0.0



                      *****************************
                      * MAYER POPULATION ANALYSIS *
                      *****************************

  NA   - Mulliken gross atomic population
  ZA   - Total nuclear charge
  QA   - Mulliken gross atomic charge
  VA   - Mayer's total valence
  BVA  - Mayer's bonded valence
  FA   - Mayer's free valence

  ATOM       NA         ZA         QA         VA         BVA        FA
  0 C      5.9826     6.0000     0.0174     3.9528     3.9528     0.0000
  1 C      5.9482     6.0000     0.0518     4.0051     4.0051    -0.0000
  2 H      0.9410     1.0000     0.0590     0.9782     0.9782    -0.0000
  3 C      6.0108     6.0000    -0.0108     4.0907     4.0907    -0.0000
  4 H      0.9412     1.0000     0.0588     0.9992     0.9992    -0.0000
  5 C      5.8855     6.0000     0.1145     3.9440     3.9440     0.0000
  6 H      0.9203     1.0000     0.0797     0.9986     0.9986    -0.0000
  7 C      5.9868     6.0000     0.0132     4.0872     4.0872    -0.0000
  8 H      0.9677     1.0000     0.0323     0.9981     0.9981    -0.0000
  9 C      5.7983     6.0000     0.2017     4.1693     4.1693    -0.0000
 10 H      0.9318     1.0000     0.0682     0.9954     0.9954    -0.0000
 11 O      8.3203     8.0000    -0.3203     2.1518     2.1518     0.0000
 12 O      8.3936     8.0000    -0.3936     2.0334     2.0334    -0.0000
 13 O      8.4243     8.0000    -0.4243     2.0072     2.0072    -0.0000
 14 O      8.4192     8.0000    -0.4192     2.0194     2.0194    -0.0000
 15 O      8.4092     8.0000    -0.4092     1.9992     1.9992    -0.0000
 16 O      8.4353     8.0000    -0.4353     2.0169     2.0169    -0.0000
 17 H      0.9123     1.0000     0.0877     0.9628     0.9628     0.0000
 18 H      0.9005     1.0000     0.0995     0.9973     0.9973     0.0000
 19 H      0.6993     1.0000     0.3007     0.9052     0.9052    -0.0000
 20 H      0.6975     1.0000     0.3025     0.9081     0.9081    -0.0000
 21 H      0.6865     1.0000     0.3135     0.8755     0.8755     0.0000
 22 H      0.6930     1.0000     0.3070     0.8805     0.8805    -0.0000
 23 H      0.6948     1.0000     0.3052     0.8851     0.8851    -0.0000

  Mayer bond orders larger than 0.100000
B(  0-C ,  1-C ) :   1.0154 B(  0-C , 16-O ) :   1.0713 B(  0-C , 17-H ) :   0.9164 
B(  0-C , 18-H ) :   0.9068 B(  1-C ,  2-H ) :   0.8821 B(  1-C ,  3-C ) :   1.0292 
B(  1-C , 11-O ) :   0.9751 B(  3-C ,  4-H ) :   0.8836 B(  3-C ,  5-C ) :   1.0162 
B(  3-C , 15-O ) :   1.0282 B(  5-C ,  6-H ) :   0.8593 B(  5-C ,  7-C ) :   1.0085 
B(  5-C , 14-O ) :   1.0606 B(  7-C ,  8-H ) :   0.8343 B(  7-C ,  9-C ) :   1.0471 
B(  7-C , 13-O ) :   1.0807 B(  9-C , 10-H ) :   0.8668 B(  9-C , 11-O ) :   1.0316 
B(  9-C , 12-O ) :   1.1011 B( 12-O , 19-H ) :   0.8389 B( 13-O , 20-H ) :   0.8276 
B( 14-O , 21-H ) :   0.8450 B( 15-O , 22-H ) :   0.8443 B( 16-O , 23-H ) :   0.8471 


-------
TIMINGS
-------

Total SCF time: 0 days 0 hours 0 min 9 sec 

Total time                  ....       9.208 sec
Sum of individual times     ....       8.821 sec  ( 95.8%)

SCF preparation             ....       0.167 sec  (  1.8%)
Fock matrix formation       ....       7.927 sec  ( 86.1%)
  Startup                   ....       0.049 sec  (  0.6% of F)
  Split-RI-J                ....       3.542 sec  ( 44.7% of F)
  XC integration            ....       3.941 sec  ( 49.7% of F)
    Basis function eval.    ....       1.334 sec  ( 33.8% of XC)
    Density eval.           ....       0.735 sec  ( 18.6% of XC)
    XC-Functional eval.     ....       0.278 sec  (  7.0% of XC)
    XC-Potential eval.      ....       0.978 sec  ( 24.8% of XC)
Diagonalization             ....       0.000 sec  (  0.0%)
Density matrix formation    ....       0.166 sec  (  1.8%)
Total Energy calculation    ....       0.024 sec  (  0.3%)
Population analysis         ....       0.100 sec  (  1.1%)
Orbital Transformation      ....       0.060 sec  (  0.6%)
Orbital Orthonormalization  ....       0.000 sec  (  0.0%)
DIIS solution               ....       0.290 sec  (  3.2%)
  MO trafo                  ....       0.000 sec  (  0.0 % of DIIS)
  Orb grad                  ....       0.000 sec  (  0.0 % of DIIS)
  Energy W gradient         ....       0.000 sec  (  0.0 % of DIIS)
  DIIS error                ....       0.006 sec  (  2.0 % of DIIS)
  DIIS work                 ....       0.242 sec  ( 83.3 % of DIIS)
  Form Q                    ....       0.000 sec  (  0.0 % of DIIS)
  Form QpQm                 ....       0.000 sec  (  0.0 % of DIIS)
  Exp/Cayley                ....       0.000 sec  (  0.0 % of DIIS)
  Orb update                ....       0.000 sec  (  0.0 % of DIIS)
  Wake-sleep                ....       0.015 sec  (  5.1 % of DIIS)
SOSCF solution              ....       0.088 sec  (  1.0%)
  MO trafo                  ....       0.049 sec  ( 55.7 % of SOSCF)
  Orb grad                  ....       0.001 sec  (  1.2 % of SOSCF)
  Rot update                ....       0.018 sec  ( 20.6 % of SOSCF)
  Step                      ....       0.020 sec  ( 22.4 % of SOSCF)
Finished LeanSCF after   9.3 sec

Maximum memory used throughout the entire LEANSCF-calculation: 18.3 MB


-------------------------------------------------------------------------------
                          DFT DISPERSION CORRECTION                            
                                                                               
                                DFTD4 V3.4.0                                   
-------------------------------------------------------------------------------
The PBE functional is recognized
Active option DFTDOPT                   ...         5   

-------------------------   ----------------
Dispersion correction           -0.024811937
-------------------------   ----------------

------------------   -----------------
gCP correction             0.154906437
------------------   -----------------

-------------------------   --------------------
FINAL SINGLE POINT ENERGY      -685.687849973179
-------------------------   --------------------


------------------------------------------------------------------------------
                              ORCA PROPERTY CALCULATIONS
------------------------------------------------------------------------------

GBWName                                 ... sp.gbw
Number of atoms                         ...     24
Number of basis functions               ...    192
Max core memory                         ...   1024 MB

Electric properties:
Dipole moment                           ... YES
Quadrupole moment                       ...  NO
Static polarizability (Dipole/Dipole)   ...  NO
Static polarizability (Dipole/Quad.)    ...  NO
Static polarizability (Quad./Quad.)     ...  NO
Static polarizability (Velocity)        ...  NO

Atomic electric properties:
Dipole moment                           ...  NO
Quadrupole moment                       ...  NO
Static polarizability                   ...  NO

Choice of electric origin               ... Center of mass
Position of electric origin             ...    -0.000006     0.000002    -0.000002

General magnetic properties:
Magnetizability                         ...  NO

EPR properties:
g-Tensor (aka g-matrix)                 ...  NO
Zero-Field splitting spin-orbit         ...  NO
Zero-field splitting spin-spin          ...  NO
Hyperfine couplings                     ...  NO (   0 nuclei)
Quadrupole couplings                    ...  NO (   0 nuclei)
Contact density                         ...  NO (   0 nuclei)

NMR properties:
Chemical shifts                         ...  NO (   0 nuclei)
Spin-rotation constants                 ...  NO (   0 nuclei)
Spin-spin couplings                     ...  NO (   0 nuclei,    0 pairs)

Choice of magnetic origin               ... GIAO
Position of magnetic origin             ...     0.000000     0.000000     0.000000

Properties with geometric perturbations:
SCF Hessian                             ...  NO
IR spectrum                             ...  NO
VCD spectrum                            ...  NO
X-ray spectroscopy properties:
SCF XES/XAS/RIXS spectra                ...  NO


-------------
DIPOLE MOMENT
-------------

Method             : SCF
Type of density    : Electron Density
Multiplicity       :   1
Irrep              :   0
Energy             :  -685.8179444731214289 Eh
Relativity type    : 
Basis              : AO
                                X                 Y                 Z
Electronic contribution:      1.851425106      -0.814455448       1.436778998
Nuclear contribution   :     -1.948912062       1.131642663      -1.693050160
                        -----------------------------------------
Total Dipole Moment    :     -0.097486956       0.317187215      -0.256271162
                        -----------------------------------------
Magnitude (a.u.)       :      0.419268822
Magnitude (Debye)      :      1.065696652



--------------------
Rotational spectrum 
--------------------
 
Rotational constants in cm-1:             0.039939             0.025387             0.022048 
Rotational constants in MHz :          1197.352639           761.071746           660.993538 

Dipole components along the rotational axes: 
x,y,z [a.u.] :     0.184783     0.336756    -0.168038 
x,y,z [Debye]:     0.469680     0.855967    -0.427119 

 

Dipole moment calculation done in   0.0 sec 

Maximum memory used throughout the entire PROP-calculation: 11.9 MB

--------------------------------
SUGGESTED CITATIONS FOR THIS RUN
--------------------------------

Below you find a list of papers that are relevant to this ORCA run
We neither can nor want to force you to cite these papers, but we appreciate if you do
You receive ORCA, which is the product of decades of hard work by many enthusiastic individuals, for free
The only thing we kindly ask in return is that you cite our papers,
We deeply appreciate it, if you show your appreciation for ORCA by not just citing the generic ORCA reference.

Please note that relegating all ORCA citations to the supporting information does *not* help us.
SI sections are not indexed - citations you put there will not count into any citation statistics
But we need these citations in order to attract the funding resources that allow us to do what we are doing

Therefore, if you are a happy ORCA user, please consider citing a few of the papers listed below in the main body of your paper

In addition to the list printed below, the program has created the file sp.bibtex that contains the list in bibtex format
You can import this file easily into all common literature databanks and citation aid programs


List of essential papers. We consider these as the minimum necessary citations

  1. Neese,F.
     Software update: the ORCA program system, version 5.0
     WIRES Comput. Molec. Sci., 2022 12(1)e1606
     doi.org/10.1002/wcms.1606

List of papers to cite with high priority. The work reported in these papers was absolutely
necessary for this run to complete.
Our perspective: the developers of density functionals and basis sets usually get cited in chemistry papers
Good! But without the algorithms to do something with them, the functionals or basis sets would not do anything.
Hence, in our opinion, the algorithm design and method developments papers are equally worthy of getting cited

  1. Neese,F.
     An improvement of the resolution of the identity approximation for the formation of the Coulomb matrix
     J. Comp. Chem., 2003 24(14)1740-1747
     doi.org/10.1002/jcc.10318
  2. Neese,F.
     The SHARK Integral Generation and Digestion System
     J. Comp. Chem., 2022  1-16
     doi.org/10.1002/jcc.26942
  3. Caldeweyher,E.; Bannwarth,C.; Grimme,S.
     Extension of the D3 dispersion coefficient model
     J. Chem. Phys., 2017 147 034112-XXXX
     doi.org/10.1063/1.4993215
  4. Caldeweyher,E.; Ehlert,S.; Hansen,A.; Neugebauer,H.; Spicher,S.; Bannwarth,C.; Grimme,S.
     A generally applicable atomic-charge dependent London dispersion correction
     J. Chem. Phys., 2019 150 154122-XXXX
     doi.org/10.1063/1.5090222
  5. Caldeweyher,E.; Mewes,J.; Ehlert,S.; Grimme,S.
     Extension and evaluation of the D4 London-dispersion model for periodic systems
     Phys. Chem. Chem. Phys., 2020 22(16)8499-8512
     doi.org/10.1039/D0CP00502A

List of suggested additional citations. These are papers that are important in the 'surrounding' of 
of this run, or papers that preceded the highly important papers. If you like your results we are grateful for a citation.

  1. Neese,F.
     The ORCA program system
     WIRES Comput. Molec. Sci., 2012 2(1)73-78
     doi.org/10.1002/wcms.81
  2. Neese,F.
     Software update: the ORCA program system, version 4.0
     WIRES Comput. Molec. Sci., 2018 8(1)1-6
     doi.org/10.1002/wcms.1327
  3. Neese,F.; Wennmohs,F.; Becker,U.; Riplinger,C.
     The ORCA quantum chemistry program package
     J. Chem. Phys., 2020 152 Art. No. L224108
     doi.org/10.1063/5.0004608

List of optional additional citations

  1. Neese,F.
     Approximate second-order SCF convergence for spin unrestricted wavefunctions
     Chem. Phys. Lett., 2000 325(1-3)93-98
     doi.org/10.1016/s0009-2614(00)00662-x

Timings for individual modules:

Sum of individual times          ...       11.305 sec (=   0.188 min)
Startup calculation              ...        0.898 sec (=   0.015 min)   7.9 %
SCF iterations                   ...       10.311 sec (=   0.172 min)  91.2 %
Property calculations            ...        0.096 sec (=   0.002 min)   0.8 %
                             ****ORCA TERMINATED NORMALLY****
TOTAL RUN TIME: 0 days 0 hours 0 minutes 11 seconds 962 msec
