      -----------------------------------------------------------      
     |                   =====================                   |     
     |                           x T B                           |     
     |                   =====================                   |     
     |                         S. Grimme                         |     
     |          Mulliken Center for Theoretical Chemistry        |     
     |                    University of Bonn                     |     
      -----------------------------------------------------------      

   * xtb version 6.7.1 (edcfbbe) compiled by 'albert@albert-system' on 2024-07-22

   xtb is free software: you can redistribute it and/or modify it under
   the terms of the GNU Lesser General Public License as published by
   the Free Software Foundation, either version 3 of the License, or
   (at your option) any later version.
   
   xtb is distributed in the hope that it will be useful,
   but WITHOUT ANY WARRANTY; without even the implied warranty of
   MERCHANTABILITY or FITNESS FOR A PARTICULAR PURPOSE.  See the
   GNU Lesser General Public License for more details.
   
   Cite this work as:
   * C. Bannwarth, E. Caldeweyher, S. Ehlert, A. Hansen, P. Pracht,
     J. Seibert, S. Spicher, S. Grimme, WIREs Comput. Mol. Sci., 2020, 11,
     e01493. DOI: 10.1002/wcms.1493
   
   for GFN2-xTB:
   * C. Bannwarth, S. Ehlert and S. Grimme., J. Chem. Theory Comput., 2019,
     15, 1652-1671. DOI: 10.1021/acs.jctc.8b01176
   for GFN1-xTB:
   * S. Grimme, C. Bannwarth, P. Shushkov, J. Chem. Theory Comput., 2017,
     13, 1989-2009. DOI: 10.1021/acs.jctc.7b00118
   for GFN0-xTB:
   * P. Pracht, E. Caldeweyher, S. Ehlert, S. Grimme, ChemRxiv, 2019, preprint.
     DOI: 10.26434/chemrxiv.8326202.v1
   for GFN-FF:
   * S. Spicher and S. Grimme, Angew. Chem. Int. Ed., 2020, 59, 15665-15673.
     DOI: 10.1002/anie.202004239
   
   for ALPB and GBSA implicit solvation:
   * S. Ehlert, M. Stahn, S. Spicher, S. Grimme, J. Chem. Theory Comput.,
     2021, 17, 4250-4261. DOI: 10.1021/acs.jctc.1c00471
   
   for ddCOSMO and CPCM-X implicit solvation:
   * M. Stahn, S. Ehlert, S. Grimme, J. Phys. Chem. A,
     2023, XX, XXXX-XXXX. DOI: 10.1021/acs.jpca.3c04382
   
   for DFT-D4:
   * E. Caldeweyher, C. Bannwarth and S. Grimme, J. Chem. Phys., 2017,
     147, 034112. DOI: 10.1063/1.4993215
   * E. Caldeweyher, S. Ehlert, A. Hansen, H. Neugebauer, S. Spicher,
     C. Bannwarth and S. Grimme, J. Chem. Phys., 2019, 150, 154122.
     DOI: 10.1063/1.5090222
   * E. Caldeweyher, J.-M. Mewes, S. Ehlert and S. Grimme, Phys. Chem. Chem. Phys.
     2020, 22, 8499-8512. DOI: 10.1039/D0CP00502A
   
   for sTDA-xTB:
   * S. Grimme and C. Bannwarth, J. Chem. Phys., 2016, 145, 054103.
     DOI: 10.1063/1.4959605
   
   in the mass-spec context:
   * V. Asgeirsson, C. Bauer and S. Grimme, Chem. Sci., 2017, 8, 4879.
     DOI: 10.1039/c7sc00601b
   * J. Koopman and S. Grimme, ACS Omega 2019, 4, 12, 15120-15133.
     DOI: 10.1021/acsomega.9b02011
   
   for metadynamics refer to:
   * S. Grimme, J. Chem. Theory Comput., 2019, 155, 2847-2862
     DOI: 10.1021/acs.jctc.9b00143
   
   for SPH calculations refer to:
   * S. Spicher and S. Grimme, J. Chem. Theory Comput., 2021, 17, 1701-1714
     DOI: 10.1021/acs.jctc.0c01306
   
   for ONIOM refer to:
   * C. Plett, A. Katbashev, S. Ehlert, S. Grimme, M. Bursch,
     Phys. Chem. Chem. Phys., 2023, 25, 17860-17868. DOI: 10.1039/D3CP02178E
   
   for DIPRO refer to:
   * J. Kohn, N. Gildemeister, S. Grimme, D. Fazzi, A. Hansen,
     J. Chem. Phys., 2023, just accepted.
   
   for PTB refer to:
   * S. Grimme, M. Mueller, A. Hansen, J. Chem. Phys., 2023, 158, 124111.
     DOI: 10.1063/5.0137838
   
   with help from (in alphabetical order)
   P. Atkinson, C. Bannwarth, F. Bohle, G. Brandenburg, E. Caldeweyher
   M. Checinski, S. Dohm, S. Ehlert, S. Ehrlich, I. Gerasimov, C. Hölzer
   A. Katbashev, J. Kohn, J. Koopman, C. Lavigne, S. Lehtola, F. März, M. Müller,
   F. Musil, H. Neugebauer, J. Pisarek, C. Plett, P. Pracht, F. Pultar,
   J. Seibert, P. Shushkov, S. Spicher, M. Stahn, M. Steiner, T. Strunk,
   J. Stückrath, T. Rose, and J. Unsleber
   
 * started run on 2025/04/03 at 21:00:21.287     
   ID    Z sym.   atoms
    1    6 C      1-12
    2    1 H      13-24

           -------------------------------------------------
          |                Calculation Setup                |
           -------------------------------------------------

          program call               : /srv/scratch/z5358697/.xtb/bin/xtb solv.coord --gfn2 --sp --chrg 0 --norestart --parallel 1 --alpb water reference -I xtb_sp-xcontrol-inp
          hostname                   : k146
          coordinate file            : solv.coord
          omp threads                :                     1


           -------------------------------------------------
          |                 G F N 2 - x T B                 |
           -------------------------------------------------

        Reference                      10.1021/acs.jctc.8b01176
      * Hamiltonian:
        H0-scaling (s, p, d)           1.850000    2.230000    2.230000
        zeta-weighting                 0.500000
      * Dispersion:
        s8                             2.700000
        a1                             0.520000
        a2                             5.000000
        s9                             5.000000
      * Repulsion:
        kExp                           1.500000    1.000000
        rExp                           1.000000
      * Coulomb:
        alpha                          2.000000
        third order                    shell-resolved
        anisotropic                    true
        a3                             3.000000
        a5                             4.000000
        cn-shift                       1.200000
        cn-exp                         4.000000
        max-rad                        5.000000

      * Solvation model:               ALPB
        Solvent                        water
        Parameter file                 internal GFN2-xTB/ALPB
        Dielectric constant                8.0200E+01
        Reference state                gsolv=reference [X=1]
        Free energy shift                  2.8945E-03 Eh       1.8164E+00 kcal/mol
        Temperature                        2.9815E+02 K
        Density                            1.0000E+00 kg/L
        Solvent mass                       1.8000E+01 g/mol
        Interaction kernel             P16
        Born radius scaling (c1)           1.4744E+00
        Born radii integrator          GBOBC
        Born offset                        0.0000E+00 a0       0.0000E+00 AA
        H-bond correction              true
        Ion screening                  false
        Surface tension                    1.0000E-05 Eh       1.5569E+01 dyn/cm
        Grid points                               974 per atom

          ...................................................
          :                      SETUP                      :
          :.................................................:
          :  # basis functions                  60          :
          :  # atomic orbitals                  60          :
          :  # shells                           36          :
          :  # electrons                        60          :
          :  max. iterations                   250          :
          :  Hamiltonian                  GFN2-xTB          :
          :  restarted?                      false          :
          :  GBSA solvation                   true          :
          :  PC potential                    false          :
          :  electronic temp.          300.0000000     K    :
          :  accuracy                    1.0000000          :
          :  -> integral cutoff          0.2500000E+02      :
          :  -> integral neglect         0.1000000E-07      :
          :  -> SCF convergence          0.1000000E-05 Eh   :
          :  -> wf. convergence          0.1000000E-03 e    :
          :  Broyden damping             0.4000000          :
          :  net charge                          0          :
          :  unpaired electrons                  0          :
          ...................................................

 iter      E             dE          RMSdq      gap      omega  full diag
   1    -32.4031633 -0.324032E+02  0.410E+00    3.22       0.0  T
   2    -32.4146218 -0.114585E-01  0.244E+00    3.19       1.0  T
   3    -32.4075035  0.711828E-02  0.723E-01    3.21       1.0  T
   4    -32.4169689 -0.946535E-02  0.176E-01    3.18       1.0  T
   5    -32.4172724 -0.303550E-03  0.558E-02    3.18       1.0  T
   6    -32.4172897 -0.173151E-04  0.248E-02    3.18       1.0  T
   7    -32.4172928 -0.311034E-05  0.110E-02    3.18       1.8  T
   8    -32.4172930 -0.149192E-06  0.271E-03    3.18       7.5  T
   9    -32.4172931 -0.101318E-06  0.789E-04    3.18      25.9  T
  10    -32.4172931 -0.446855E-08  0.431E-04    3.18      47.4  T

   *** convergence criteria satisfied after 10 iterations ***

         #    Occupation            Energy/Eh            Energy/eV
      -------------------------------------------------------------
         1        2.0000           -0.6433058             -17.5052
       ...           ...                  ...                  ...
        24        2.0000           -0.4319271             -11.7533
        25        2.0000           -0.4311384             -11.7319
        26        2.0000           -0.4164965             -11.3334
        27        2.0000           -0.4097581             -11.1501
        28        2.0000           -0.4075782             -11.0908
        29        2.0000           -0.3839029             -10.4465
        30        2.0000           -0.3683539             -10.0234 (HOMO)
        31                         -0.2514422              -6.8421 (LUMO)
        32                         -0.2194693              -5.9721
        33                         -0.1808640              -4.9216
        34                         -0.1387647              -3.7760
        35                         -0.0496256              -1.3504
       ...                                ...                  ...
        60                          0.7054041              19.1950
      -------------------------------------------------------------
                  HL-Gap            0.1169117 Eh            3.1813 eV
             Fermi-level           -0.3098980 Eh           -8.4328 eV

 SCC (total)                   0 d,  0 h,  0 min,  0.029 sec
 SCC setup                      ...        0 min,  0.001 sec (  4.550%)
 Dispersion                     ...        0 min,  0.000 sec (  0.489%)
 classical contributions        ...        0 min,  0.000 sec (  0.086%)
 integral evaluation            ...        0 min,  0.002 sec (  7.815%)
 iterations                     ...        0 min,  0.019 sec ( 64.650%)
 molecular gradient             ...        0 min,  0.006 sec ( 21.984%)
 printout                       ...        0 min,  0.000 sec (  0.382%)

         :::::::::::::::::::::::::::::::::::::::::::::::::::::
         ::                     SUMMARY                     ::
         :::::::::::::::::::::::::::::::::::::::::::::::::::::
         :: total energy             -31.814272422267 Eh    ::
         :: total w/o Gsasa/hb       -31.814383473086 Eh    ::
         :: gradient norm              0.000155746480 Eh/a0 ::
         :: HOMO-LUMO gap              3.181329636154 eV    ::
         ::.................................................::
         :: SCC energy               -32.417269205524 Eh    ::
         :: -> isotropic ES            0.004538533740 Eh    ::
         :: -> anisotropic ES          0.005513726723 Eh    ::
         :: -> anisotropic XC          0.019695893821 Eh    ::
         :: -> dispersion             -0.022390885165 Eh    ::
         :: -> Gsolv                  -0.000750079019 Eh    ::
         ::    -> Gelec               -0.000861129838 Eh    ::
         ::    -> Gsasa               -0.002090928874 Eh    ::
         ::    -> Ghb                 -0.000692569466 Eh    ::
         ::    -> Gshift               0.002894549160 Eh    ::
         :: repulsion energy           0.602996783257 Eh    ::
         :: add. restraining           0.000000000000 Eh    ::
         :: total charge               0.000000000000 e     ::
         :::::::::::::::::::::::::::::::::::::::::::::::::::::

           -------------------------------------------------
          |                Property Printout                |
           -------------------------------------------------

    * Orbital Energies and Occupations

         #    Occupation            Energy/Eh            Energy/eV
      -------------------------------------------------------------
         1        2.0000           -0.6433058             -17.5052
       ...           ...                  ...                  ...
        18        2.0000           -0.4725528             -12.8588
        19        2.0000           -0.4697288             -12.7820
        20        2.0000           -0.4685225             -12.7491
        21        2.0000           -0.4563679             -12.4184
        22        2.0000           -0.4519382             -12.2979
        23        2.0000           -0.4492059             -12.2235
        24        2.0000           -0.4319271             -11.7533
        25        2.0000           -0.4311384             -11.7319
        26        2.0000           -0.4164965             -11.3334
        27        2.0000           -0.4097581             -11.1501
        28        2.0000           -0.4075782             -11.0908
        29        2.0000           -0.3839029             -10.4465
        30        2.0000           -0.3683539             -10.0234 (HOMO)
        31                         -0.2514422              -6.8421 (LUMO)
        32                         -0.2194693              -5.9721
        33                         -0.1808640              -4.9216
        34                         -0.1387647              -3.7760
        35                         -0.0496256              -1.3504
        36                          0.1014205               2.7598
        37                          0.1045541               2.8451
        38                          0.1315062               3.5785
        39                          0.1416347               3.8541
        40                          0.1447762               3.9396
        41                          0.1555601               4.2330
       ...                                ...                  ...
        60                          0.7054041              19.1950
      -------------------------------------------------------------
                  HL-Gap            0.1169117 Eh            3.1813 eV
             Fermi-level           -0.3098980 Eh           -8.4328 eV

     #   Z          covCN         q      C6AA      α(0)
     1   6 C        3.759    -0.123    22.901     6.822
     2   6 C        2.965     0.007    27.856     8.657
     3   6 C        2.925    -0.055    29.378     8.889
     4   6 C        2.986     0.003    27.940     8.671
     5   6 C        2.918    -0.042    29.044     8.838
     6   6 C        2.916    -0.039    28.959     8.825
     7   6 C        2.916    -0.039    28.961     8.825
     8   6 C        2.918    -0.042    29.039     8.837
     9   6 C        2.986     0.003    27.945     8.671
    10   6 C        2.924    -0.054    29.353     8.885
    11   6 C        2.964     0.007    27.864     8.658
    12   6 C        3.758    -0.118    22.818     6.810
    13   1 H        0.925     0.052     2.293     2.368
    14   1 H        0.925     0.054     2.269     2.356
    15   1 H        0.925     0.052     2.299     2.371
    16   1 H        0.925     0.031     2.565     2.505
    17   1 H        0.926     0.030     2.582     2.513
    18   1 H        0.926     0.029     2.600     2.522
    19   1 H        0.926     0.029     2.601     2.522
    20   1 H        0.926     0.030     2.588     2.516
    21   1 H        0.925     0.030     2.590     2.517
    22   1 H        0.925     0.055     2.263     2.352
    23   1 H        0.925     0.055     2.260     2.351
    24   1 H        0.925     0.044     2.391     2.418

 Mol. C6AA /au·bohr⁶  :       6682.993654
 Mol. C8AA /au·bohr⁸  :     163249.735676
 Mol. α(0) /au        :        130.697207


Wiberg/Mayer (AO) data.
largest (>0.10) Wiberg bond orders for each atom

 ---------------------------------------------------------------------------
     #   Z sym  total        # sym  WBO       # sym  WBO       # sym  WBO
 ---------------------------------------------------------------------------
     1   6 C    3.994 --     2 C    1.025    14 H    0.982    15 H    0.972
                            13 H    0.971
     2   6 C    3.988 --     3 C    1.529    11 C    1.269     1 C    1.025
     3   6 C    3.991 --     2 C    1.529     4 C    1.285    16 H    0.967
                            10 C    0.111
     4   6 C    3.991 --     3 C    1.285     5 C    1.278     9 C    1.247
     5   6 C    3.991 --     6 C    1.557     4 C    1.278    17 H    0.969
                             8 C    0.117
     6   6 C    3.990 --     5 C    1.557     7 C    1.320    18 H    0.971
     7   6 C    3.989 --     8 C    1.556     6 C    1.320    19 H    0.971
     8   6 C    3.989 --     7 C    1.556     9 C    1.280    20 H    0.969
                             5 C    0.117
     9   6 C    3.991 --    10 C    1.283     8 C    1.280     4 C    1.247
    10   6 C    3.990 --    11 C    1.528     9 C    1.283    21 H    0.966
                             3 C    0.111
    11   6 C    3.988 --    10 C    1.528     2 C    1.269    12 C    1.027
    12   6 C    3.995 --    11 C    1.027    24 H    0.984    23 H    0.970
                            22 H    0.970
    13   1 H    0.996 --     1 C    0.971
    14   1 H    0.997 --     1 C    0.982
    15   1 H    0.996 --     1 C    0.972
    16   1 H    0.998 --     3 C    0.967
    17   1 H    0.999 --     5 C    0.969
    18   1 H    0.999 --     6 C    0.971
    19   1 H    0.999 --     7 C    0.971
    20   1 H    0.999 --     8 C    0.969
    21   1 H    0.998 --    10 C    0.966
    22   1 H    0.995 --    12 C    0.970
    23   1 H    0.995 --    12 C    0.970
    24   1 H    0.998 --    12 C    0.984
 ---------------------------------------------------------------------------

Topologies differ in total number of bonds
Writing topology from bond orders to xtbtopo.mol

molecular dipole:
                 x           y           z       tot (Debye)
 q only:       -0.689      -0.029       0.002
   full:       -0.637      -0.040       0.003       1.623
molecular quadrupole (traceless):
                xx          xy          yy          xz          yz          zz
 q only:        3.600       0.128       0.084      -0.016      -0.005      -3.683
  q+dip:        5.676       0.209       3.473      -0.013      -0.006      -9.149
   full:        3.844       0.206       1.389      -0.016      -0.007      -5.233


           -------------------------------------------------
          | TOTAL ENERGY              -31.814272422267 Eh   |
          | GRADIENT NORM               0.000155746480 Eh/α |
          | HOMO-LUMO GAP               3.181329636154 eV   |
           -------------------------------------------------

------------------------------------------------------------------------
 * finished run on 2025/04/03 at 21:00:21.347     
------------------------------------------------------------------------
 total:
 * wall-time:     0 d,  0 h,  0 min,  0.060 sec
 *  cpu-time:     0 d,  0 h,  0 min,  0.024 sec
 * ratio c/w:     0.404 speedup
 SCF:
 * wall-time:     0 d,  0 h,  0 min,  0.029 sec
 *  cpu-time:     0 d,  0 h,  0 min,  0.017 sec
 * ratio c/w:     0.591 speedup

