      -----------------------------------------------------------      
     |                   =====================                   |     
     |                           x T B                           |     
     |                   =====================                   |     
     |                         S. Grimme                         |     
     |          Mulliken Center for Theoretical Chemistry        |     
     |                    University of Bonn                     |     
      -----------------------------------------------------------      

   * xtb version 6.7.1 (edcfbbe) compiled by 'albert@albert-system' on 2024-07-22

   xtb is free software: you can redistribute it and/or modify it under
   the terms of the GNU Lesser General Public License as published by
   the Free Software Foundation, either version 3 of the License, or
   (at your option) any later version.
   
   xtb is distributed in the hope that it will be useful,
   but WITHOUT ANY WARRANTY; without even the implied warranty of
   MERCHANTABILITY or FITNESS FOR A PARTICULAR PURPOSE.  See the
   GNU Lesser General Public License for more details.
   
   Cite this work as:
   * C. Bannwarth, E. Caldeweyher, S. Ehlert, A. Hansen, P. Pracht,
     J. Seibert, S. Spicher, S. Grimme, WIREs Comput. Mol. Sci., 2020, 11,
     e01493. DOI: 10.1002/wcms.1493
   
   for GFN2-xTB:
   * C. Bannwarth, S. Ehlert and S. Grimme., J. Chem. Theory Comput., 2019,
     15, 1652-1671. DOI: 10.1021/acs.jctc.8b01176
   for GFN1-xTB:
   * S. Grimme, C. Bannwarth, P. Shushkov, J. Chem. Theory Comput., 2017,
     13, 1989-2009. DOI: 10.1021/acs.jctc.7b00118
   for GFN0-xTB:
   * P. Pracht, E. Caldeweyher, S. Ehlert, S. Grimme, ChemRxiv, 2019, preprint.
     DOI: 10.26434/chemrxiv.8326202.v1
   for GFN-FF:
   * S. Spicher and S. Grimme, Angew. Chem. Int. Ed., 2020, 59, 15665-15673.
     DOI: 10.1002/anie.202004239
   
   for ALPB and GBSA implicit solvation:
   * S. Ehlert, M. Stahn, S. Spicher, S. Grimme, J. Chem. Theory Comput.,
     2021, 17, 4250-4261. DOI: 10.1021/acs.jctc.1c00471
   
   for ddCOSMO and CPCM-X implicit solvation:
   * M. Stahn, S. Ehlert, S. Grimme, J. Phys. Chem. A,
     2023, XX, XXXX-XXXX. DOI: 10.1021/acs.jpca.3c04382
   
   for DFT-D4:
   * E. Caldeweyher, C. Bannwarth and S. Grimme, J. Chem. Phys., 2017,
     147, 034112. DOI: 10.1063/1.4993215
   * E. Caldeweyher, S. Ehlert, A. Hansen, H. Neugebauer, S. Spicher,
     C. Bannwarth and S. Grimme, J. Chem. Phys., 2019, 150, 154122.
     DOI: 10.1063/1.5090222
   * E. Caldeweyher, J.-M. Mewes, S. Ehlert and S. Grimme, Phys. Chem. Chem. Phys.
     2020, 22, 8499-8512. DOI: 10.1039/D0CP00502A
   
   for sTDA-xTB:
   * S. Grimme and C. Bannwarth, J. Chem. Phys., 2016, 145, 054103.
     DOI: 10.1063/1.4959605
   
   in the mass-spec context:
   * V. Asgeirsson, C. Bauer and S. Grimme, Chem. Sci., 2017, 8, 4879.
     DOI: 10.1039/c7sc00601b
   * J. Koopman and S. Grimme, ACS Omega 2019, 4, 12, 15120-15133.
     DOI: 10.1021/acsomega.9b02011
   
   for metadynamics refer to:
   * S. Grimme, J. Chem. Theory Comput., 2019, 155, 2847-2862
     DOI: 10.1021/acs.jctc.9b00143
   
   for SPH calculations refer to:
   * S. Spicher and S. Grimme, J. Chem. Theory Comput., 2021, 17, 1701-1714
     DOI: 10.1021/acs.jctc.0c01306
   
   for ONIOM refer to:
   * C. Plett, A. Katbashev, S. Ehlert, S. Grimme, M. Bursch,
     Phys. Chem. Chem. Phys., 2023, 25, 17860-17868. DOI: 10.1039/D3CP02178E
   
   for DIPRO refer to:
   * J. Kohn, N. Gildemeister, S. Grimme, D. Fazzi, A. Hansen,
     J. Chem. Phys., 2023, just accepted.
   
   for PTB refer to:
   * S. Grimme, M. Mueller, A. Hansen, J. Chem. Phys., 2023, 158, 124111.
     DOI: 10.1063/5.0137838
   
   with help from (in alphabetical order)
   P. Atkinson, C. Bannwarth, F. Bohle, G. Brandenburg, E. Caldeweyher
   M. Checinski, S. Dohm, S. Ehlert, S. Ehrlich, I. Gerasimov, C. Hölzer
   A. Katbashev, J. Kohn, J. Koopman, C. Lavigne, S. Lehtola, F. März, M. Müller,
   F. Musil, H. Neugebauer, J. Pisarek, C. Plett, P. Pracht, F. Pultar,
   J. Seibert, P. Shushkov, S. Spicher, M. Stahn, M. Steiner, T. Strunk,
   J. Stückrath, T. Rose, and J. Unsleber
   
 * started run on 2025/04/06 at 18:00:43.568     
   ID    Z sym.   atoms
    1    6 C      1, 2, 4, 6, 8, 10
    2    1 H      3, 5, 7, 9, 11, 18-24
    3    8 O      12-17

           -------------------------------------------------
          |                Calculation Setup                |
           -------------------------------------------------

          program call               : /srv/scratch/z5358697/.xtb/bin/xtb gas.coord --gfn2 --sp --chrg 0 --norestart --parallel 1
          hostname                   : k155
          coordinate file            : gas.coord
          omp threads                :                     1


           -------------------------------------------------
          |                 G F N 2 - x T B                 |
           -------------------------------------------------

        Reference                      10.1021/acs.jctc.8b01176
      * Hamiltonian:
        H0-scaling (s, p, d)           1.850000    2.230000    2.230000
        zeta-weighting                 0.500000
      * Dispersion:
        s8                             2.700000
        a1                             0.520000
        a2                             5.000000
        s9                             5.000000
      * Repulsion:
        kExp                           1.500000    1.000000
        rExp                           1.000000
      * Coulomb:
        alpha                          2.000000
        third order                    shell-resolved
        anisotropic                    true
        a3                             3.000000
        a5                             4.000000
        cn-shift                       1.200000
        cn-exp                         4.000000
        max-rad                        5.000000


          ...................................................
          :                      SETUP                      :
          :.................................................:
          :  # basis functions                  60          :
          :  # atomic orbitals                  60          :
          :  # shells                           36          :
          :  # electrons                        72          :
          :  max. iterations                   250          :
          :  Hamiltonian                  GFN2-xTB          :
          :  restarted?                      false          :
          :  GBSA solvation                  false          :
          :  PC potential                    false          :
          :  electronic temp.          300.0000000     K    :
          :  accuracy                    1.0000000          :
          :  -> integral cutoff          0.2500000E+02      :
          :  -> integral neglect         0.1000000E-07      :
          :  -> SCF convergence          0.1000000E-05 Eh   :
          :  -> wf. convergence          0.1000000E-03 e    :
          :  Broyden damping             0.4000000          :
          :  net charge                          0          :
          :  unpaired electrons                  0          :
          ...................................................

 iter      E             dE          RMSdq      gap      omega  full diag
   1    -43.6232530 -0.436233E+02  0.464E+00   10.04       0.0  T
   2    -43.6564589 -0.332060E-01  0.255E+00    9.86       1.0  T
   3    -43.6575430 -0.108412E-02  0.690E-01    9.90       1.0  T
   4    -43.6584375 -0.894439E-03  0.148E-01    9.88       1.0  T
   5    -43.6585152 -0.777566E-04  0.662E-02    9.90       1.0  T
   6    -43.6585253 -0.100589E-04  0.187E-02    9.91       1.1  T
   7    -43.6585260 -0.717425E-06  0.556E-03    9.91       3.7  T
   8    -43.6585263 -0.267801E-06  0.167E-03    9.91      12.3  T
   9    -43.6585263 -0.284729E-08  0.711E-04    9.91      28.7  T
  10    -43.6585263 -0.288981E-08  0.249E-04    9.91      81.8  T

   *** convergence criteria satisfied after 10 iterations ***

         #    Occupation            Energy/Eh            Energy/eV
      -------------------------------------------------------------
         1        2.0000           -0.7370686             -20.0567
       ...           ...                  ...                  ...
        30        2.0000           -0.4701653             -12.7939
        31        2.0000           -0.4665899             -12.6966
        32        2.0000           -0.4475366             -12.1781
        33        2.0000           -0.4445971             -12.0981
        34        2.0000           -0.4308634             -11.7244
        35        2.0000           -0.4180333             -11.3753
        36        2.0000           -0.4057873             -11.0420 (HOMO)
        37                         -0.0417014              -1.1348 (LUMO)
        38                         -0.0144883              -0.3942
        39                          0.0140786               0.3831
        40                          0.0199466               0.5428
        41                          0.0438236               1.1925
       ...                                ...                  ...
        60                          0.2898812               7.8881
      -------------------------------------------------------------
                  HL-Gap            0.3640859 Eh            9.9073 eV
             Fermi-level           -0.2237444 Eh           -6.0884 eV

 SCC (total)                   0 d,  0 h,  0 min,  0.025 sec
 SCC setup                      ...        0 min,  0.000 sec (  0.718%)
 Dispersion                     ...        0 min,  0.000 sec (  0.556%)
 classical contributions        ...        0 min,  0.000 sec (  0.110%)
 integral evaluation            ...        0 min,  0.003 sec ( 11.284%)
 iterations                     ...        0 min,  0.014 sec ( 56.639%)
 molecular gradient             ...        0 min,  0.007 sec ( 30.089%)
 printout                       ...        0 min,  0.000 sec (  0.560%)

         :::::::::::::::::::::::::::::::::::::::::::::::::::::
         ::                     SUMMARY                     ::
         :::::::::::::::::::::::::::::::::::::::::::::::::::::
         :: total energy             -43.357099523076 Eh    ::
         :: gradient norm              0.014383059706 Eh/a0 ::
         :: HOMO-LUMO gap              9.907282126481 eV    ::
         ::.................................................::
         :: SCC energy               -43.658338692275 Eh    ::
         :: -> isotropic ES            0.135338228768 Eh    ::
         :: -> anisotropic ES         -0.003680839822 Eh    ::
         :: -> anisotropic XC         -0.010050905880 Eh    ::
         :: -> dispersion             -0.019621548843 Eh    ::
         :: repulsion energy           0.301239169199 Eh    ::
         :: add. restraining           0.000000000000 Eh    ::
         :: total charge              -0.000000000000 e     ::
         :::::::::::::::::::::::::::::::::::::::::::::::::::::

           -------------------------------------------------
          |                Property Printout                |
           -------------------------------------------------

    * Orbital Energies and Occupations

         #    Occupation            Energy/Eh            Energy/eV
      -------------------------------------------------------------
         1        2.0000           -0.7370686             -20.0567
       ...           ...                  ...                  ...
        24        2.0000           -0.5257367             -14.3060
        25        2.0000           -0.5108161             -13.9000
        26        2.0000           -0.5028534             -13.6833
        27        2.0000           -0.4980308             -13.5521
        28        2.0000           -0.4850348             -13.1985
        29        2.0000           -0.4747168             -12.9177
        30        2.0000           -0.4701653             -12.7939
        31        2.0000           -0.4665899             -12.6966
        32        2.0000           -0.4475366             -12.1781
        33        2.0000           -0.4445971             -12.0981
        34        2.0000           -0.4308634             -11.7244
        35        2.0000           -0.4180333             -11.3753
        36        2.0000           -0.4057873             -11.0420 (HOMO)
        37                         -0.0417014              -1.1348 (LUMO)
        38                         -0.0144883              -0.3942
        39                          0.0140786               0.3831
        40                          0.0199466               0.5428
        41                          0.0438236               1.1925
        42                          0.0525730               1.4306
        43                          0.0590088               1.6057
        44                          0.0807910               2.1984
        45                          0.0891751               2.4266
        46                          0.0954672               2.5978
        47                          0.1131433               3.0788
       ...                                ...                  ...
        60                          0.2898812               7.8881
      -------------------------------------------------------------
                  HL-Gap            0.3640859 Eh            9.9073 eV
             Fermi-level           -0.2237444 Eh           -6.0884 eV

     #   Z          covCN         q      C6AA      α(0)
     1   6 C        3.675     0.071    19.619     6.346
     2   6 C        3.748     0.089    19.170     6.245
     3   1 H        0.923     0.038     2.482     2.464
     4   6 C        3.724     0.086    19.261     6.267
     5   1 H        0.924     0.031     2.572     2.508
     6   6 C        3.728     0.099    19.040     6.230
     7   1 H        0.924     0.068     2.110     2.271
     8   6 C        3.725     0.083    19.301     6.273
     9   1 H        0.924     0.080     1.978     2.200
    10   6 C        3.626     0.242    17.216     5.978
    11   1 H        0.922     0.009     2.905     2.665
    12   8 O        1.699    -0.359    20.047     6.045
    13   8 O        1.657    -0.422    21.285     6.228
    14   8 O        1.655    -0.439    21.614     6.276
    15   8 O        1.655    -0.440    21.648     6.281
    16   8 O        1.656    -0.450    21.854     6.311
    17   8 O        1.655    -0.427    21.381     6.242
    18   1 H        0.924     0.041     2.431     2.438
    19   1 H        0.924     0.055     2.256     2.349
    20   1 H        0.804     0.312     0.687     1.301
    21   1 H        0.804     0.315     0.677     1.292
    22   1 H        0.804     0.311     0.688     1.303
    23   1 H        0.805     0.304     0.709     1.323
    24   1 H        0.805     0.303     0.711     1.325

 Mol. C6AA /au·bohr⁶  :       4703.819772
 Mol. C8AA /au·bohr⁸  :      99934.959447
 Mol. α(0) /au        :         98.161625


Wiberg/Mayer (AO) data.
largest (>0.10) Wiberg bond orders for each atom

 ---------------------------------------------------------------------------
     #   Z sym  total        # sym  WBO       # sym  WBO       # sym  WBO
 ---------------------------------------------------------------------------
     1   6 C    3.964 --    17 O    1.015     2 C    0.978    19 H    0.970
                            18 H    0.966
     2   6 C    3.945 --     1 C    0.978    12 O    0.963     4 C    0.960
                             3 H    0.956
     3   1 H    0.999 --     2 C    0.956
     4   6 C    3.952 --    16 O    0.990     5 H    0.963     6 C    0.961
                             2 C    0.960
     5   1 H    0.999 --     4 C    0.963
     6   6 C    3.960 --    15 O    1.011     8 C    0.964     4 C    0.961
                             7 H    0.958
     7   1 H    0.995 --     6 C    0.958
     8   6 C    3.961 --    14 O    1.015     6 C    0.964     9 H    0.955
                            10 C    0.947
     9   1 H    0.994 --     8 C    0.955
    10   6 C    3.923 --    13 O    1.024     8 C    0.947    11 H    0.947
                            12 O    0.944
    11   1 H    1.000 --    10 C    0.947
    12   8 O    2.069 --     2 C    0.963    10 C    0.944
    13   8 O    1.995 --    10 C    1.024    20 H    0.883
    14   8 O    1.971 --     8 C    1.015    21 H    0.870
    15   8 O    1.970 --     6 C    1.011    22 H    0.877
    16   8 O    1.968 --     4 C    0.990    23 H    0.890
    17   8 O    1.970 --     1 C    1.015    24 H    0.893
    18   1 H    0.998 --     1 C    0.966
    19   1 H    0.996 --     1 C    0.970
    20   1 H    0.903 --    13 O    0.883
    21   1 H    0.901 --    14 O    0.870
    22   1 H    0.903 --    15 O    0.877
    23   1 H    0.908 --    16 O    0.890
    24   1 H    0.908 --    17 O    0.893
 ---------------------------------------------------------------------------

Topologies differ in total number of bonds
Writing topology from bond orders to xtbtopo.mol

molecular dipole:
                 x           y           z       tot (Debye)
 q only:       -0.825      -0.070       0.403
   full:       -1.233      -0.225       0.660       3.599
molecular quadrupole (traceless):
                xx          xy          yy          xz          yz          zz
 q only:       -9.425      -6.127       7.024      -2.147       4.765       2.400
  q+dip:      -14.467      -8.872      10.430      -4.131       4.329       4.037
   full:      -14.433      -8.907      10.475      -3.762       5.504       3.958


           -------------------------------------------------
          | TOTAL ENERGY              -43.357099523076 Eh   |
          | GRADIENT NORM               0.014383059706 Eh/α |
          | HOMO-LUMO GAP               9.907282126481 eV   |
           -------------------------------------------------

------------------------------------------------------------------------
 * finished run on 2025/04/06 at 18:00:43.636     
------------------------------------------------------------------------
 total:
 * wall-time:     0 d,  0 h,  0 min,  0.068 sec
 *  cpu-time:     0 d,  0 h,  0 min,  0.027 sec
 * ratio c/w:     0.401 speedup
 SCF:
 * wall-time:     0 d,  0 h,  0 min,  0.025 sec
 *  cpu-time:     0 d,  0 h,  0 min,  0.019 sec
 * ratio c/w:     0.768 speedup

