12
 energy: -194.312148570152 gnorm: 0.030733060906 xtb: 6.7.1 (edcfbbe)
C           -1.25680758015692       -0.73674733242647       -0.12818973775680
C           -0.00241905440107       -0.01916277220849        0.36830316836320
C            1.26315731865974       -0.70813887201379       -0.13230321885863
O            0.04417753321958        1.32566418498744       -0.08749787473877
H           -1.28907516647122       -0.71082608691499       -1.21489162073835
H           -1.24348825505102       -1.77170281798509        0.20000357568863
H           -2.15408970255453       -0.26112270351571        0.26154590861590
H            0.00281092580125       -0.02035381180902        1.47162010525211
H            1.26292817985964       -0.72746025202236       -1.21892557864014
H            1.31255501728163       -1.72360531886378        0.24770911130977
H            2.13713879734702       -0.15578491586903        0.20196011108949
H           -0.77686409714425        1.77388606308606        0.15518485556877
12
 energy: -194.312842879102 gnorm: 0.013889915340 xtb: 6.7.1 (edcfbbe)
C           -1.25771549948390       -0.73359674388848       -0.12558694020756
C           -0.00210324892700       -0.02450267939697        0.37002246513414
C            1.26570120754381       -0.69976687732339       -0.13135170840475
O            0.04201221895264        1.33056668503114       -0.09591732061285
H           -1.29067019502424       -0.71433312470882       -1.21895762692804
H           -1.25564045471232       -1.77480635393054        0.20582138477523
H           -2.15958845950408       -0.25119926356161        0.26210768555387
H            0.00178011967973       -0.03055660876222        1.47219549730125
H            1.26834051774729       -0.72795045715274       -1.22483488018786
H            1.31714226731291       -1.72198987755583        0.24717027380324
H            2.15135807259459       -0.15579059867873        0.20624839611166
H           -0.78059264421835        1.76857118132876        0.15760170066580
12
 energy: -194.313037203849 gnorm: 0.004342639060 xtb: 6.7.1 (edcfbbe)
C           -1.25551477119433       -0.73177038466385       -0.12529276220004
C           -0.00025179528942       -0.02919386590369        0.36946084818226
C            1.26622584222717       -0.69709951489382       -0.13166776995389
O            0.03716198759760        1.33759121110946       -0.10024409429923
H           -1.29006345846586       -0.72248398143432       -1.22169659185590
H           -1.26804341780452       -1.77431720430989        0.21310337113240
H           -2.15736271666896       -0.23968140540738        0.25801868144645
H            0.00307805013477       -0.03060736539906        1.47047450765376
H            1.27403029179915       -0.72896567914930       -1.22816994048384
H            1.32297725475029       -1.72386913640464        0.24331864097608
H            2.15613883518957       -0.15749790472512        0.21023937013116
H           -0.78835226774466        1.76254042350850        0.16697467351942
12
 energy: -194.313068238813 gnorm: 0.001973524280 xtb: 6.7.1 (edcfbbe)
C           -1.25565311508800       -0.73177348177904       -0.12539222934714
C            0.00016783878307       -0.03255116614936        0.36859726776831
C            1.26694805365545       -0.69654833278374       -0.13266265916654
O            0.03582490085050        1.33874612925197       -0.10112728664442
H           -1.28808192439270       -0.72853820696920       -1.22149994415946
H           -1.27440412492497       -1.77210220907323        0.21866785063309
H           -2.15606646220174       -0.23387409606034        0.25311643562621
H            0.00405827083134       -0.02903580066350        1.46914293036943
H            1.27666954123004       -0.72688305784258       -1.22877828166365
H            1.32484737475775       -1.72396582266659        0.24018992533463
H            2.15588335293920       -0.15743981161831        0.21138764920460
H           -0.79016991945117        1.75861099203774        0.17287725257454
12
 energy: -194.313081451538 gnorm: 0.001647565093 xtb: 6.7.1 (edcfbbe)
C           -1.25557228486501       -0.73294133048048       -0.12561410476270
C            0.00028050479272       -0.03537130044554        0.36786548014523
C            1.26715625000521       -0.69683848065652       -0.13453003791028
O            0.03431913801796        1.33974317399900       -0.10137746892512
H           -1.28271095329960       -0.73961598658994       -1.22075314934490
H           -1.28158360208044       -1.76856835341986        0.22862340284234
H           -2.15374894047313       -0.22636498723585        0.24403627240464
H            0.00540131065900       -0.02735769318945        1.46800544402675
H            1.27835729854994       -0.72148073587457       -1.22958672739253
H            1.32561007647604       -1.72492760130434        0.23405150776645
H            2.15325708149650       -0.15733317565218        0.21297606755661
H           -0.79074217193545        1.75570152781437        0.18082213459207
12
 energy: -194.313087366890 gnorm: 0.001039155580 xtb: 6.7.1 (edcfbbe)
C           -1.25582621628328       -0.73347321629125       -0.12536356223872
C            0.00003511932186       -0.03498658572882        0.36803697478347
C            1.26726060262372       -0.69644368004637       -0.13513234308907
O            0.03399671922281        1.33909657928129       -0.10117383439051
H           -1.28022050336988       -0.74472686380422       -1.22051390711456
H           -1.28312812593297       -1.76741819541215        0.23332427993860
H           -2.15435952844582       -0.22459658395223        0.23997569479614
H            0.00540041958038       -0.02816316766382        1.46823392527280
H            1.27821967125536       -0.71818124451404       -1.23026279178303
H            1.32475942394832       -1.72528021151491        0.23111173555066
H            2.15346305754044       -0.15782105286255        0.21357884567359
H           -0.78957695921686        1.75663924910851        0.18270375862054
12
 energy: -194.313094448564 gnorm: 0.000479536782 xtb: 6.7.1 (edcfbbe)
C           -1.25546445820536       -0.73525752039718       -0.12483469231694
C           -0.00033394061406       -0.03380021581822        0.36782241785008
C            1.26696579722490       -0.69499140078054       -0.13703236216963
O            0.03225926732468        1.33890191903268       -0.10093285206891
H           -1.27344005806025       -0.76063207684004       -1.22026981144204
H           -1.28851576482030       -1.76472481706722        0.24734927042654
H           -2.15462379621922       -0.21843205039111        0.22860815764558
H            0.00554853168393       -0.02950869670239        1.46820060912383
H            1.27914272129531       -0.70922196051235       -1.23268697995504
H            1.32199793122064       -1.72673531460885        0.22206940837879
H            2.15400649431302       -0.16024805562629        0.21647465032899
H           -0.78751912854490        1.75929512458108        0.18975082932799
12
 energy: -194.313095380217 gnorm: 0.000253108387 xtb: 6.7.1 (edcfbbe)
C           -1.25572419428121       -0.73563716586388       -0.12461547769169
C           -0.00038361628793       -0.03415470018855        0.36743590243757
C            1.26722045374181       -0.69418552009397       -0.13766682526881
O            0.03140607934027        1.33837878153281       -0.10143908045855
H           -1.27196218451320       -0.76603101664350       -1.21979589426327
H           -1.29053273850075       -1.76317998727249        0.25205976034851
H           -2.15500455109411       -0.21655653307656        0.22479626726986
H            0.00582000487214       -0.02938761094425        1.46780145363860
H            1.28050968647521       -0.70581997397570       -1.23329049340153
H            1.32086962582985       -1.72691193606045        0.21868161835475
H            2.15455815377565       -0.16145858395658        0.21797354449044
H           -0.78675314327177        1.75958914679343        0.19257784648348
12
 energy: -194.313095380217 gnorm: 0.000253108387 xtb: 6.7.1 (edcfbbe)
C           -1.25572419428121       -0.73563716586388       -0.12461547769169
C           -0.00038361628793       -0.03415470018855        0.36743590243757
C            1.26722045374181       -0.69418552009397       -0.13766682526881
O            0.03140607934027        1.33837878153281       -0.10143908045855
H           -1.27196218451320       -0.76603101664350       -1.21979589426327
H           -1.29053273850075       -1.76317998727249        0.25205976034851
H           -2.15500455109411       -0.21655653307656        0.22479626726986
H            0.00582000487214       -0.02938761094425        1.46780145363860
H            1.28050968647521       -0.70581997397570       -1.23329049340153
H            1.32086962582985       -1.72691193606045        0.21868161835475
H            2.15455815377565       -0.16145858395658        0.21797354449044
H           -0.78675314327177        1.75958914679343        0.19257784648348
