
                                 *****************
                                 * O   R   C   A *
                                 *****************

                                            #,                                       
                                            ###                                      
                                            ####                                     
                                            #####                                    
                                            ######                                   
                                           ########,                                 
                                     ,,################,,,,,                         
                               ,,#################################,,                 
                          ,,##########################################,,             
                       ,#########################################, ''#####,          
                    ,#############################################,,   '####,        
                  ,##################################################,,,,####,       
                ,###########''''           ''''###############################       
              ,#####''   ,,,,##########,,,,          '''####'''          '####       
            ,##' ,,,,###########################,,,                        '##       
           ' ,,###''''                  '''############,,,                           
         ,,##''                                '''############,,,,        ,,,,,,###''
      ,#''                                            '''#######################'''  
     '                                                          ''''####''''         
             ,#######,   #######,   ,#######,      ##                                
            ,#'     '#,  ##    ##  ,#'     '#,    #''#        ,####,   ,####,        
            ##       ##  ##   ,#'  ##            #'  '#       #'       #'  '#        
            ##       ##  #######   ##           ,######,      #####,   #    #        
            '#,     ,#'  ##    ##  '#,     ,#' ,#      #,     #,   #   #,  ,#        
             '#######'   ##     ##  '#######'  #'      '#     '####' # '####'        



                #########################################################
                #                        -***-                          #
                #          Department of theory and spectroscopy        #
                #                                                       #
                #                      Frank Neese                      #
                #                                                       #
                #     Directorship, Architecture, Infrastructure        #
                #                    SHARK, DRIVERS                     #
                #        Core code/Algorithms in most modules           #
                #                                                       #
                #        Max Planck Institute fuer Kohlenforschung      #
                #                Kaiser Wilhelm Platz 1                 #
                #                 D-45470 Muelheim/Ruhr                 #
                #                      Germany                          #
                #                                                       #
                #                  All rights reserved                  #
                #                        -***-                          #
                #########################################################


                         Program Version 6.0.0  -   RELEASE  -


 With contributions from (in alphabetic order):
   Daniel Aravena         : Magnetic Suceptibility
   Michael Atanasov       : Ab Initio Ligand Field Theory (pilot matlab implementation)
   Alexander A. Auer      : GIAO ZORA, VPT2 properties, NMR spectrum
   Ute Becker             : All parallelization in ORCA, NUMFREQ, NUMCALC
   Giovanni Bistoni       : ED, misc. LED, open-shell LED, HFLD
   Martin Brehm           : Molecular dynamics
   Dmytro Bykov           : pre 5.0 version of the SCF Hessian
   Marcos Casanova-Páez   : Triplet and SCS-CIS(D). UHF-(DLPNO)-IP/EA/STEOM-CCSD. UHF-CVS-IP/STEOM-CCSD
   Vijay G. Chilkuri      : MRCI spin determinant printing, contributions to CSF-ICE
   Pauline Colinet        : FMM embedding
   Dipayan Datta          : RHF DLPNO-CCSD density
   Achintya Kumar Dutta   : EOM-CC, STEOM-CC
   Nicolas Foglia         : Exact transition moments, OPA infrastructure, MCD improvements
   Dmitry Ganyushin       : Spin-Orbit,Spin-Spin,Magnetic field MRCI
   Miquel Garcia          : C-PCM and meta-GGA Hessian, CCSD/C-PCM, Gaussian charge scheme
   Tiago L. C. Gouveia    : GS-ROHF, GS-ROCIS
   Yang Guo               : DLPNO-NEVPT2, F12-NEVPT2, CIM, IAO-localization
   Andreas Hansen         : Spin unrestricted coupled pair/coupled cluster methods
   Ingolf Harden          : AUTO-CI MPn and infrastructure 
   Benjamin Helmich-Paris : MC-RPA, TRAH-(SCF,CASSCF), AVAS, COSX integrals, SCF dyn. polar.
   Lee Huntington         : MR-EOM, pCC
   Robert Izsak           : Overlap fitted RIJCOSX, COSX-SCS-MP3, EOM
   Riya Kayal             : Wick's Theorem for AUTO-CI, AUTO-CI UHF-CCSDT
   Emily Kempfer          : AUTO-CI, RHF CISDT and CCSDT
   Christian Kollmar      : KDIIS, OOCD, Brueckner-CCSD(T), CCSD density, CASPT2, CASPT2-K, improved NEVPT2
   Axel Koslowski         : Symmetry handling
   Simone Kossmann        : Meta GGA functionals, TD-DFT gradient, OOMP2, (MP2 Hessian; deprecated post 5.0)
   Lucas Lang             : DCDCAS
   Marvin Lechner         : AUTO-CI (C++ implementation), FIC-MRCC
   Spencer Leger          : CASSCF response
   Dagmar Lenk            : GEPOL surface, SMD, ORCA-2-JSON
   Dimitrios Liakos       : Extrapolation schemes; Compound Job, initial MDCI parallelization
   Dimitrios Manganas     : Further ROCIS development; embedding schemes. LFT, Crystal Embedding
   Dimitrios Pantazis     : SARC Basis sets
   Anastasios Papadopoulos: AUTO-CI, single reference methods and gradients
   Taras Petrenko         : pre 6.0 DFT Hessian and TD-DFT gradient, (ASA, deprecated), ECA, 1-Electron XAS/XES, NRVS
   Peter Pinski           : DLPNO-MP2, DLPNO-MP2 Gradient
   Christoph Reimann      : Effective Core Potentials
   Marius Retegan         : Local ZFS, SOC
   Christoph Riplinger    : Optimizer, TS searches, QM/MM, DLPNO-CCSD(T), (RO)-DLPNO pert. Triples
   Michael Roemelt        : Original ROCIS implementation
   Masaaki Saitow         : Open-shell DLPNO-CCSD energy and density
   Barbara Sandhoefer     : DKH picture change effects
   Kantharuban Sivalingam : CASSCF convergence/infrastructure, NEVPT2 and variants, FIC-MRCI
   Bernardo de Souza      : ESD, SOC TD-DFT
   Georgi Stoychev        : AutoAux, RI-MP2 NMR, DLPNO-MP2 response, X2C
   Van Anh Tran           : RI-MP2 g-tensors
   Willem Van den Heuvel  : Paramagnetic NMR
   Zikuan Wang            : NOTCH, Electric field optimization 
   Frank Wennmohs         : Technical directorship and infrastructure
   Hang Xu                : AUTO-CI-Response properties 


 We gratefully acknowledge several colleagues who have allowed us to
 interface, adapt or use parts of their codes:
   Stefan Grimme, W. Hujo, H. Kruse, P. Pracht,  : VdW corrections, initial TS optimization,
                  C. Bannwarth, S. Ehlert,         DFT functionals, gCP, sTDA/sTD-DF
                  L. Wittmann, M. Mueller
   Ed Valeev, F. Pavosevic, A. Kumar             : LibInt (2-el integral package), F12 methods
   Garnet Chan, S. Sharma, J. Yang, R. Olivares  : DMRG
   Ulf Ekstrom                                   : XCFun DFT Library
   Mihaly Kallay                                 : mrcc  (arbitrary order and MRCC methods)
   Frank Weinhold                                : gennbo (NPA and NBO analysis)
   Simon Mueller                                 : openCOSMO-RS
   Christopher J. Cramer and Donald G. Truhlar   : smd solvation model
   Lars Goerigk                                  : TD-DFT with DH, B97 family of functionals
   V. Asgeirsson, H. Jonsson                     : NEB implementation
   FAccTs GmbH                                   : IRC, NEB, NEB-TS, DLPNO-Multilevel, CI-OPT
                                                   MM, QMMM, 2- and 3-layer-ONIOM, Crystal-QMMM,
                                                   LR-CPCM, SF, NACMEs, symmetry and pop. for TD-DFT,
                                                   nearIR, NL-DFT gradient (VV10), updates on ESD,
                                                   ML-optimized integration grids, MBIS, APM,
                                                   GOAT, DOCKER, SOLVATOR, interface openCOSMO-RS
   S Lehtola, MJT Oliveira, MAL Marques          : LibXC Library
   Liviu Ungur et al                             : ANISO software


 Your calculation uses the libint2 library for the computation of 2-el integrals
 For citations please refer to: http://libint.valeyev.net

 Your ORCA version has been built with support for libXC version: 6.2.2
 For citations please refer to: https://libxc.gitlab.io

 This ORCA versions uses:
   CBLAS   interface :  Fast vector & matrix operations
   LAPACKE interface :  Fast linear algebra routines
   SCALAPACK package :  Parallel linear algebra routines
   Shared memory     :  Shared parallel matrices
   BLAS/LAPACK       :  OpenBLAS 0.3.27  USE64BITINT DYNAMIC_ARCH NO_AFFINITY SkylakeX SINGLE_THREADED
        Core in use  :  SkylakeX
   Copyright (c) 2011-2014, The OpenBLAS Project


Your calculation utilizes the geometrical counterpoise correction gCP
Please cite in your paper:
H.Kruse, S. Grimme J.Chem.Phys., 136, (2012), 154101 
   

Your calculation utilizes the DFT-NL dispersion correction.
Cite in your paper:
Vydrov, O. A.; Van Voorhis, T. J. Chem. Phys. 2010, 133, 244103
Hujo, W.; Grimme, S. J. Chem. Theory Comput. 2011, 7, 3866 
   

================================================================================

----- Orbital basis set information -----
Your calculation utilizes the basis: def2-TZVP
   F. Weigend and R. Ahlrichs, Phys. Chem. Chem. Phys. 7, 3297 (2005).

----- AuxJ basis set information -----
Your calculation utilizes the auxiliary basis: def2/J
   F. Weigend, Phys. Chem. Chem. Phys. 8, 1057 (2006).

================================================================================
                                        WARNINGS
                       Please study these warnings very carefully!
================================================================================


================================================================================
                                       INPUT FILE
================================================================================
NAME = sp_gas.inp
|  1> ! wb97x-v def2-tzvp def2/J RIJCOSX DEFGRID2 scfconv7 GCP(DFT/TZ) printgap
|  2> %output
|  3>     printlevel normal
|  4> end
|  5> * xyz 0 1
|  6> C -2.3515999807068186 0.13759985756393822 -1.2626023324326086
|  7> C -1.6990290856767334 -0.4296810146615028 0.003526209458243904
|  8> C -2.354088634106115 0.15959729626399796 1.2582378198181832
|  9> C -0.2013451008401805 -0.200356916986249 0.0022699402944914874
| 10> C 0.6874191360064678 -1.2787566735870994 0.006906661398808749
| 11> C 2.066668582838278 -1.0742340917152085 0.0049822466648118055
| 12> C 2.5813801934677554 0.219116850017376 -0.0016206131048000607
| 13> C 1.7058335802729465 1.3043608625963758 -0.006293319096347224
| 14> C 0.32980811587427494 1.095635237032111 -0.004403765754835946
| 15> H -1.9011588079482395 -0.2871295005104584 -2.1655175567725693
| 16> H -2.239243515239898 1.2265265171037107 -1.3052998372605855
| 17> H -3.4227858581823605 -0.0904726802661095 -1.2743516829814456
| 18> H -1.8598376883835661 -1.51475723218984 0.012846384866314193
| 19> H -1.9042309807343112 -0.24788323309482324 2.1693598224188206
| 20> H -3.42489276581251 -0.07008070890579188 1.2726759422830825
| 21> H -2.2439306124343417 1.249319081467044 1.2813338891739878
| 22> H 0.29328133688733204 -2.2918249475700705 0.012083876464864802
| 23> H 2.738391029311836 -1.9275454978458508 0.008661702172109426
| 24> H 3.654633630101349 0.3819678701946846 -0.0030905469716332895
| 25> H 2.096905320830365 2.3174910648154254 -0.011431391700067853
| 26> H -0.33866714801875253 1.952115072157473 -0.008167709834582825
| 27> *
| 28> 
| 29>                          ****END OF INPUT****
================================================================================

                       ****************************
                       * Single Point Calculation *
                       ****************************

---------------------------------
CARTESIAN COORDINATES (ANGSTROEM)
---------------------------------
  C     -2.351600    0.137600   -1.262602
  C     -1.699029   -0.429681    0.003526
  C     -2.354089    0.159597    1.258238
  C     -0.201345   -0.200357    0.002270
  C      0.687419   -1.278757    0.006907
  C      2.066669   -1.074234    0.004982
  C      2.581380    0.219117   -0.001621
  C      1.705834    1.304361   -0.006293
  C      0.329808    1.095635   -0.004404
  H     -1.901159   -0.287130   -2.165518
  H     -2.239244    1.226527   -1.305300
  H     -3.422786   -0.090473   -1.274352
  H     -1.859838   -1.514757    0.012846
  H     -1.904231   -0.247883    2.169360
  H     -3.424893   -0.070081    1.272676
  H     -2.243931    1.249319    1.281334
  H      0.293281   -2.291825    0.012084
  H      2.738391   -1.927545    0.008662
  H      3.654634    0.381968   -0.003091
  H      2.096905    2.317491   -0.011431
  H     -0.338667    1.952115   -0.008168

----------------------------
CARTESIAN COORDINATES (A.U.)
----------------------------
  NO LB      ZA    FRAG     MASS         X           Y           Z
   0 C     6.0000    0    12.011   -4.443880    0.260026   -2.385973
   1 C     6.0000    0    12.011   -3.210700   -0.811979    0.006664
   2 C     6.0000    0    12.011   -4.448583    0.301595    2.377725
   3 C     6.0000    0    12.011   -0.380487   -0.378620    0.004290
   4 C     6.0000    0    12.011    1.299034   -2.416500    0.013052
   5 C     6.0000    0    12.011    3.905438   -2.030008    0.009415
   6 C     6.0000    0    12.011    4.878102    0.414071   -0.003063
   7 C     6.0000    0    12.011    3.223558    2.464885   -0.011893
   8 C     6.0000    0    12.011    0.623247    2.070451   -0.008322
   9 H     1.0000    0     1.008   -3.592669   -0.542596   -4.092235
  10 H     1.0000    0     1.008   -4.231557    2.317799   -2.466659
  11 H     1.0000    0     1.008   -6.468128   -0.170969   -2.408176
  12 H     1.0000    0     1.008   -3.514584   -2.862476    0.024276
  13 H     1.0000    0     1.008   -3.598475   -0.468431    4.099496
  14 H     1.0000    0     1.008   -6.472109   -0.132433    2.405009
  15 H     1.0000    0     1.008   -4.240414    2.360871    2.421370
  16 H     1.0000    0     1.008    0.554221   -4.330921    0.022835
  17 H     1.0000    0     1.008    5.174809   -3.642533    0.016368
  18 H     1.0000    0     1.008    6.906257    0.721815   -0.005840
  19 H     1.0000    0     1.008    3.962577    4.379423   -0.021602
  20 H     1.0000    0     1.008   -0.639988    3.688963   -0.015435

--------------------------------
INTERNAL COORDINATES (ANGSTROEM)
--------------------------------
 C      0   0   0     0.000000000000     0.00000000     0.00000000
 C      1   0   0     1.533211611495     0.00000000     0.00000000
 C      2   1   0     1.533183995771   110.59464885     0.00000000
 C      2   1   3     1.515139742210   111.34818150   235.57496314
 C      4   2   1     1.397451037753   120.78782534   242.24436701
 C      5   4   2     1.394332179380   121.05848103   179.96176768
 C      6   5   4     1.392023095482   120.13563977     0.00000000
 C      7   6   5     1.394402478805   119.40386820     0.00000000
 C      8   7   6     1.391767234796   120.26987380     0.00000000
 H      1   2   3     1.094782252355   111.24842292   180.80783142
 H      1   2   3     1.095540196482   110.87284463    60.42916024
 H      1   2   3     1.095259929813   110.36996358   300.96300404
 H      2   1   3     1.096967032422   108.09581505   118.15490587
 H      3   2   1     1.094785638254   111.25136556   179.29676963
 H      3   2   1     1.095254278201   110.35925254    59.15074509
 H      3   2   1     1.095518957985   110.89195417   299.69735123
 H      5   4   2     1.087050475370   119.24812249   359.96227733
 H      6   5   4     1.085985699409   119.77445022   180.00065405
 H      7   6   5     1.085539292114   120.32897444   179.99722125
 H      8   7   6     1.086000143969   119.99804756   179.99840698
 H      9   8   7     1.086476439546   119.34591300   180.00373757

---------------------------
INTERNAL COORDINATES (A.U.)
---------------------------
 C      0   0   0     0.000000000000     0.00000000     0.00000000
 C      1   0   0     2.897350051074     0.00000000     0.00000000
 C      2   1   0     2.897297864918   110.59464885     0.00000000
 C      2   1   3     2.863199167396   111.34818150   235.57496314
 C      4   2   1     2.640799746917   120.78782534   242.24436701
 C      5   4   2     2.634905958741   121.05848103   179.96176768
 C      6   5   4     2.630542422554   120.13563977     0.00000000
 C      7   6   5     2.635038805402   119.40386820     0.00000000
 C      8   7   6     2.630058915930   120.26987380     0.00000000
 H      1   2   3     2.068838633228   111.24842292   180.80783142
 H      1   2   3     2.070270940053   110.87284463    60.42916024
 H      1   2   3     2.069741312804   110.36996358   300.96300404
 H      2   1   3     2.072967269217   108.09581505   118.15490587
 H      3   2   1     2.068845031650   111.25136556   179.29676963
 H      3   2   1     2.069730632806   110.35925254    59.15074509
 H      3   2   1     2.070230805110   110.89195417   299.69735123
 H      5   4   2     2.054227692197   119.24812249   359.96227733
 H      6   5   4     2.052215557239   119.77445022   180.00065405
 H      7   6   5     2.051371969707   120.32897444   179.99722125
 H      8   7   6     2.052242853501   119.99804756   179.99840698
 H      9   8   7     2.053142921700   119.34591300   180.00373757

---------------------
BASIS SET INFORMATION
---------------------
There are 2 groups of distinct atoms

 Group   1 Type C   : 11s6p2d1f contracted to 5s3p2d1f pattern {62111/411/11/1}
 Group   2 Type H   : 5s1p contracted to 3s1p pattern {311/1}

Atom   0C    basis set group =>   1
Atom   1C    basis set group =>   1
Atom   2C    basis set group =>   1
Atom   3C    basis set group =>   1
Atom   4C    basis set group =>   1
Atom   5C    basis set group =>   1
Atom   6C    basis set group =>   1
Atom   7C    basis set group =>   1
Atom   8C    basis set group =>   1
Atom   9H    basis set group =>   2
Atom  10H    basis set group =>   2
Atom  11H    basis set group =>   2
Atom  12H    basis set group =>   2
Atom  13H    basis set group =>   2
Atom  14H    basis set group =>   2
Atom  15H    basis set group =>   2
Atom  16H    basis set group =>   2
Atom  17H    basis set group =>   2
Atom  18H    basis set group =>   2
Atom  19H    basis set group =>   2
Atom  20H    basis set group =>   2
---------------------------------
AUXILIARY/J BASIS SET INFORMATION
---------------------------------
There are 2 groups of distinct atoms

 Group   1 Type C   : 12s5p4d2f1g contracted to 6s4p3d1f1g pattern {711111/2111/211/2/1}
 Group   2 Type H   : 5s2p1d contracted to 3s1p1d pattern {311/2/1}

Atom   0C    basis set group =>   1
Atom   1C    basis set group =>   1
Atom   2C    basis set group =>   1
Atom   3C    basis set group =>   1
Atom   4C    basis set group =>   1
Atom   5C    basis set group =>   1
Atom   6C    basis set group =>   1
Atom   7C    basis set group =>   1
Atom   8C    basis set group =>   1
Atom   9H    basis set group =>   2
Atom  10H    basis set group =>   2
Atom  11H    basis set group =>   2
Atom  12H    basis set group =>   2
Atom  13H    basis set group =>   2
Atom  14H    basis set group =>   2
Atom  15H    basis set group =>   2
Atom  16H    basis set group =>   2
Atom  17H    basis set group =>   2
Atom  18H    basis set group =>   2
Atom  19H    basis set group =>   2
Atom  20H    basis set group =>   2

Checking for AutoStart:
The File: sp_gas.gbw exists
Trying to determine its content:
     ... Fine, the file contains calculation information
     ... Fine, the calculation information was read
     ... Fine, the file contains a basis set
     ... Fine, the basis set was read
     ... Fine, the file contains a geometry
     ... Fine, the geometry was read
     ... Fine, the file contains a set of orbitals
     ... Fine, the orbitals can be read
     => possible old guess file was deleted
     => GBW file was renamed to GES file
     => GES file is set as startup file
     => Guess is set to MORead
     ... now leaving AutoStart

------------------------------------------------------------------------------
                             ORCA STARTUP CALCULATIONS
                           -- RI-GTO INTEGRALS CHOSEN --
------------------------------------------------------------------------------
------------------------------------------------------------------------------
                   ___                                                        
                  /   \      - P O W E R E D   B Y -                         
                 /     \                                                     
                 |  |  |   _    _      __       _____    __    __             
                 |  |  |  | |  | |    /  \     |  _  \  |  |  /  |          
                  \  \/   | |  | |   /    \    | | | |  |  | /  /          
                 / \  \   | |__| |  /  /\  \   | |_| |  |  |/  /          
                |  |  |   |  __  | /  /__\  \  |    /   |      \           
                |  |  |   | |  | | |   __   |  |    \   |  |\   \          
                \     /   | |  | | |  |  |  |  | |\  \  |  | \   \       
                 \___/    |_|  |_| |__|  |__|  |_| \__\ |__|  \__/        
                                                                              
                      - O R C A' S   B I G   F R I E N D -                    
                                      &                                       
                       - I N T E G R A L  F E E D E R -                       
                                                                              
 v1 FN, 2020, v2 2021, v3 2022-2024                                           
------------------------------------------------------------------------------


----------------------
SHARK INTEGRAL PACKAGE
----------------------

Number of atoms                             ...     21
Number of basis functions                   ...    351
Number of shells                            ...    147
Maximum angular momentum                    ...      3
Integral batch strategy                     ... SHARK/LIBINT Hybrid
RI-J (if used) integral strategy            ... SPLIT-RIJ (Revised 2003 algorithm where possible)
Printlevel                                  ...      1
Contraction scheme used                     ... SEGMENTED contraction
Prescreening option                         ... SCHWARTZ
   Thresh                                   ... 3.000e-11
   Tcut                                     ... 1.000e-12
   Tpresel                                  ... 1.000e-12 
Coulomb Range Separation                    ... NOT USED
Exchange Range Separation                   ... Long Range
   Mu parameter                             ... 3.000e-01
   Scaling (regular/separated)              ... 1.670e-01 8.330e-01
Multipole approximations                    ... NOT USED
Finite Nucleus Model                        ... NOT USED
CABS basis                                  ... NOT available
Auxiliary Coulomb fitting basis             ... AVAILABLE
   # of basis functions in Aux-J            ...    573
   # of shells in Aux-J                     ...    195
   Maximum angular momentum in Aux-J        ...      4
Auxiliary J/K fitting basis                 ... NOT available
Auxiliary Correlation fitting basis         ... NOT available
Auxiliary 'external' fitting basis          ... NOT available

Checking pre-screening integrals            ... done (  0.0 sec) Dimension = 147
Check shell pair data                       ... done (  0.0 sec)
Shell pair information
Shell pair cut-off parameter TPreSel        ...   1.0e-12
Total number of shell pairs                 ...     10878
Shell pairs after pre-screening             ...      9864
Total number of primitive shell pairs       ...     32112
Primitive shell pairs kept                  ...     21839
          la=0 lb=0:   2894 shell pairs
          la=1 lb=0:   2858 shell pairs
          la=1 lb=1:    734 shell pairs
          la=2 lb=0:   1358 shell pairs
          la=2 lb=1:    665 shell pairs
          la=2 lb=2:    164 shell pairs
          la=3 lb=0:    664 shell pairs
          la=3 lb=1:    328 shell pairs
          la=3 lb=2:    154 shell pairs
          la=3 lb=3:     45 shell pairs

Calculating one electron integrals          ... done (  0.1 sec)
Calculating RI/J V-Matrix + Cholesky decomp.... done (  0.1 sec)
Calculating Nuclear repulsion               ... done (  0.0 sec) ENN=    423.006026290966 Eh

Diagonalization of the overlap matrix:
Smallest eigenvalue                        ... 8.288e-06
Time for diagonalization                   ...    0.013 sec
Threshold for overlap eigenvalues          ... 1.000e-07
Number of eigenvalues below threshold      ... 0
Time for construction of square roots      ...    0.020 sec
Total time needed                          ...    0.044 sec

-------------------
DFT GRID GENERATION
-------------------

General Integration Accuracy     IntAcc      ... 4.388
Radial Grid Type                 RadialGrid  ... OptM3 with GC (2021)
Angular Grid (max. ang.)         AngularGrid ... 4 (Lebedev-302)
Angular grid pruning method      GridPruning ... 4 (adaptive)
Weight generation scheme         WeightScheme... mBecke (2022)
Basis function cutoff            BFCut       ... 1.0000e-11
Integration weight cutoff        WCut        ... 1.0000e-14
Partially contracted basis set               ... off
Rotationally invariant grid construction     ... off
Angular grids for H and He will be reduced by one unit

Total number of grid points                  ...    92292
Total number of batches                      ...     1454
Average number of points per batch           ...       63
Average number of grid points per atom       ...     4395

--------------------
COSX GRID GENERATION
--------------------

GRIDX 1
-------
General Integration Accuracy     IntAcc      ... 3.816
Radial Grid Type                 RadialGrid  ... OptM3 with GC (2021)
Angular Grid (max. ang.)         AngularGrid ... 1 (Lebedev-50)
Angular grid pruning method      GridPruning ... 4 (adaptive)
Weight generation scheme         WeightScheme... mBecke (2022)
Basis function cutoff            BFCut       ... 1.0000e-11
Integration weight cutoff        WCut        ... 1.0000e-14
Partially contracted basis set               ... on
Rotationally invariant grid construction     ... off
Angular grids for H and He will be reduced by one unit

Total number of grid points                  ...    11816
Total number of batches                      ...      105
Average number of points per batch           ...      112
Average number of grid points per atom       ...      563
UseSFitting                                  ... on

GRIDX 2
-------
General Integration Accuracy     IntAcc      ... 4.020
Radial Grid Type                 RadialGrid  ... OptM3 with GC (2021)
Angular Grid (max. ang.)         AngularGrid ... 2 (Lebedev-110)
Angular grid pruning method      GridPruning ... 4 (adaptive)
Weight generation scheme         WeightScheme... mBecke (2022)
Basis function cutoff            BFCut       ... 1.0000e-11
Integration weight cutoff        WCut        ... 1.0000e-14
Partially contracted basis set               ... on
Rotationally invariant grid construction     ... off
Angular grids for H and He will be reduced by one unit

Total number of grid points                  ...    25018
Total number of batches                      ...      207
Average number of points per batch           ...      120
Average number of grid points per atom       ...     1191
UseSFitting                                  ... on

GRIDX 3
-------
General Integration Accuracy     IntAcc      ... 4.338
Radial Grid Type                 RadialGrid  ... OptM3 with GC (2021)
Angular Grid (max. ang.)         AngularGrid ... 3 (Lebedev-194)
Angular grid pruning method      GridPruning ... 4 (adaptive)
Weight generation scheme         WeightScheme... mBecke (2022)
Basis function cutoff            BFCut       ... 1.0000e-11
Integration weight cutoff        WCut        ... 1.0000e-14
Partially contracted basis set               ... on
Rotationally invariant grid construction     ... off
Angular grids for H and He will be reduced by one unit

Total number of grid points                  ...    54705
Total number of batches                      ...      437
Average number of points per batch           ...      125
Average number of grid points per atom       ...     2605
UseSFitting                                  ... on
Initializing property integral containers    ... done (  0.0 sec)

SHARK setup successfully completed in   3.1 seconds

Maximum memory used throughout the entire STARTUP-calculation: 55.0 MB
-------------------------------------------------------------------------------
                                 ORCA GUESS
                   Start orbitals & Density for SCF / CASSCF
-------------------------------------------------------------------------------

------------
SCF SETTINGS
------------
Hamiltonian:
 Density Functional     Method          .... DFT(GTOs)
 Exchange Functional    Exchange        .... WB97X-V
 Correlation Functional Correlation     .... WB97X-V
 Gradients option       PostSCFGGA      .... off
 Hybrid DFT is turned on
   Fraction HF Exchange ScalHFX         ....  0.167000
   Scaling of DF-GGA-X  ScalDFX         ....  0.000000
   Scaling of DF-GGA-C  ScalDFC         ....  1.000000
   Scaling of DF-LDA-C  ScalLDAC        ....  1.000000
   Perturbative correction              ....  0.000000
 Long-range corrected/Screened/Range-Separated Hybrid DFT is turned on
   Amount of maximum screened exact exchange              ....  0.833000
   Range separation parameter mu (erf(mu*r12)/r12)        ....  0.300000
   NL short-range parameter             ....  6.000000
   NL long-range parameter              ....  0.010000
 RI-approximation to the Coulomb term is turned on
   Number of AuxJ basis functions       .... 573
   RIJ-COSX (HFX calculated with COS-X)).... on


General Settings:
 Integral files         IntName         .... sp_gas
 Hartree-Fock type      HFTyp           .... RHF
 Total Charge           Charge          ....    0
 Multiplicity           Mult            ....    1
 Number of Electrons    NEL             ....   66
 Basis Dimension        Dim             ....  351
 Nuclear Repulsion      ENuc            ....    423.0060262910 Eh

Convergence Acceleration:
 AO-DIIS                CNVDIIS         .... on
   Start iteration      DIISMaxIt       ....    12
   Startup error        DIISStart       ....  0.200000
   # of expansion vecs  DIISMaxEq       ....     5
   Bias factor          DIISBfac        ....   1.050
   Max. coefficient     DIISMaxC        ....  10.000
 MO-DIIS                CNVKDIIS        .... off
 Trust-Rad. Augm. Hess. CNVTRAH         .... auto
   Auto Start mean grad. ratio tolernc. ....  1.125000
   Auto Start start iteration           ....     1
   Auto Start num. interpolation iter.  ....    10
   Max. Number of Micro iterations      ....    24
   Max. Number of Macro iterations      .... Maxiter - #DIIS iter
   Number of Davidson start vectors     ....     2
   Converg. threshold    (grad. norm)   ....   1.000e-04
   Grad. Scal. Fac. for Micro threshold ....   0.100
   Minimum threshold for Micro iter.    ....   1.000e-02
   NR start threshold (gradient norm)   ....   1.000e-04
   Initial trust radius                 ....   0.400
   Minimum AH scaling param. (alpha)    ....   1.000
   Maximum AH scaling param. (alpha)    .... 1000.000
   Quad. conv. algorithm                .... NR
   White noise on init. David. guess    .... on
   Maximum white noise                  ....   0.010
   Pseudo random numbers                .... off
   Inactive MOs                         .... canonical
   Orbital update algorithm             .... Taylor
   Preconditioner                       .... Diag
   Full preconditioner red. dimension   ....   250
 SOSCF                  CNVSOSCF        .... on
   Start iteration      SOSCFMaxIt      ....   150
   Startup grad/error   SOSCFStart      ....  0.003300
   Hessian update       SOSCFHessUp     .... L-BFGS
 Level Shifting         CNVShift        .... on
   Level shift para.    LevelShift      ....    0.2500
   Turn off err/grad.   ShiftErr        ....    0.0010
 Zerner damping         CNVZerner       .... off
 Static damping         CNVDamp         .... on
   Fraction old density DampFac         ....    0.7000
   Max. Damping (<1)    DampMax         ....    0.9800
   Min. Damping (>=0)   DampMin         ....    0.0000
   Turn off err/grad.   DampErr         ....    0.1000

SCF Procedure:
 Maximum # iterations   MaxIter         ....   125
 SCF integral mode      SCFMode         .... Direct
   Integral package                     .... SHARK and LIBINT hybrid scheme
 Reset frequency        DirectResetFreq ....    20
 Integral Threshold     Thresh          ....  3.000e-11 Eh
 Primitive CutOff       TCut            ....  1.000e-12 Eh

Convergence Tolerance:
 Convergence Check Mode ConvCheckMode   .... Total+1el-Energy
 Convergence forced     ConvForced      .... 0
 Energy Change          TolE            ....  1.000e-07 Eh
 1-El. energy change                    ....  1.000e-04 Eh
 Orbital Gradient       TolG            ....  1.000e-04
 Orbital Rotation angle TolX            ....  1.000e-04
 DIIS Error             TolErr          ....  1.000e-07

---------------------
INITIAL GUESS: MOREAD
---------------------
Guess MOs are being read from file: sp_gas.ges
Input Geometry matches current geometry (good)
Atom 0: N(Shells)= 11 and 9 - projection required
Input basis set needs projection
NBasis(read)= 231
NBasis(calc)= 351
Basis set overlap was calculated
Using GuessMode=FMatrix for the initial guess
C*T matrix was formed
Effective Fockian was calculated
Effective Fockian was diagonalized
Initial density was built
                      ------------------
                      INITIAL GUESS DONE (   0.1 sec)
                      ------------------
             **** ENERGY FILE WAS UPDATED (sp_gas.en.tmp) ****
Finished Guess after   0.4 sec
Maximum memory used throughout the entire GUESS-calculation: 35.0 MB

-------------------------------------------------------------------------------------------
                                      ORCA LEAN-SCF
                              memory conserving SCF solver
-------------------------------------------------------------------------------------------

----------------------------------------D-I-I-S--------------------------------------------
Iteration    Energy (Eh)           Delta-E    RMSDP     MaxDP     DIISErr   Damp  Time(sec)
-------------------------------------------------------------------------------------------
               ***  Starting incremental Fock matrix formation  ***
    1    -350.4440906793470845     0.00e+00  1.22e-03  6.83e-02  4.50e-02  0.700  29.0
    2    -350.4492608276567012    -5.17e-03  1.03e-03  5.53e-02  3.37e-02  0.700  14.3
                               ***Turning on AO-DIIS***
    3    -350.4531285521983932    -3.87e-03  8.25e-04  4.29e-02  2.46e-02  0.700  13.8
    4    -350.4559525504211592    -2.82e-03  2.03e-03  1.05e-01  1.74e-02  0.000  13.8
                              *** Initializing SOSCF ***
---------------------------------------S-O-S-C-F--------------------------------------
Iteration    Energy (Eh)           Delta-E    RMSDP     MaxDP     MaxGrad    Time(sec)
--------------------------------------------------------------------------------------
    5    -350.4631079259769990    -7.16e-03  7.64e-05  2.70e-03  9.12e-04    14.3
               *** Restarting incremental Fock matrix formation ***
    6    -350.4631152326851975    -7.31e-06  3.74e-05  1.22e-03  2.08e-04    29.4
    7    -350.4631184534324007    -3.22e-06  1.76e-05  6.02e-04  1.08e-04    22.4
    8    -350.4631189036707042    -4.50e-07  5.82e-06  1.73e-04  4.01e-05    20.5
    9    -350.4631189615951712    -5.79e-08  1.33e-06  4.00e-05  5.01e-06    18.7
                 **** Energy Check signals convergence ****

               *****************************************************
               *                     SUCCESS                       *
               *           SCF CONVERGED AFTER   9 CYCLES          *
               *****************************************************


------------------
NL GRID GENERATION
------------------

General Integration Accuracy     IntAcc      ... 4.004
Radial Grid Type                 RadialGrid  ... OptM3 with GC (2021)
Angular Grid (max. ang.)         AngularGrid ... 2 (Lebedev-110)
Angular grid pruning method      GridPruning ... 4 (adaptive)
Weight generation scheme         WeightScheme... mBecke (2022)
Basis function cutoff            BFCut       ... 1.0000e-10
Integration weight cutoff        WCut        ... 1.0000e-14
Partially contracted basis set               ... off
Rotationally invariant grid construction     ... off
Angular grids for H and He will be reduced by one unit

Total number of grid points                  ...    28205
Total number of batches                      ...      453
Average number of points per batch           ...       62
Average number of grid points per atom       ...     1343
Final grid set up in    0.3 sec

-------------------------------------------------------------------------------
                    post-SCF DFT-NL dispersion correction                      
-------------------------------------------------------------------------------

SCF Energy:     -350.463118962 
NL    Energy:      0.247838842 
SC+NL Energy:   -350.215280120 
NL done in  :              3.6 sec
-------------------------------------------------------------------------------
Recomputing exchange energy using gridx3       ... done (   52.724 sec)
Old exchange energy                            :    -17.063528789 Eh
New exchange energy                            :    -17.063520717 Eh
Exchange energy change after final integration :      0.000008072 Eh
Total energy after final integration           :   -350.215272048 Eh
             **** ENERGY FILE WAS UPDATED (sp_gas.en.tmp) ****

----------------
TOTAL SCF ENERGY
----------------

Total Energy       :       -350.21527204815618 Eh           -9529.84204 eV

Components:
Nuclear Repulsion  :        423.00602629096630 Eh           11510.57916 eV
Electronic Energy  :       -773.46914525256147 Eh          -21047.16546 eV
One Electron Energy:      -1308.73788446334106 Eh          -35612.56834 eV
Two Electron Energy:        535.26873921077959 Eh           14565.40288 eV

Virial components:
Potential Energy   :       -698.91365726720198 Eh          -19018.40749 eV
Kinetic Energy     :        348.69838521904580 Eh            9488.56545 eV
Virial Ratio       :          2.00435014010219

DFT components:
N(Alpha)           :       32.999990320016 electrons
N(Beta)            :       32.999990320016 electrons
N(Total)           :       65.999980640032 electrons
E(X)               :      -33.828508321052 Eh       
E(C)               :       -2.667058262479 Eh       
NL Energy, E(C,NL) :        0.247838841709 Eh       
E(XC)              :      -36.247727741822 Eh       

---------------
SCF CONVERGENCE
---------------

  Last Energy change         ...    5.7924e-08  Tolerance :   1.0000e-07
  Last MAX-Density change    ...    3.9962e-05  Tolerance :   1.0000e-05
  Last RMS-Density change    ...    1.3256e-06  Tolerance :   1.0000e-06
  Last DIIS Error            ...    9.1153e-04  Tolerance :   1.0000e-07
  Last Orbital Gradient      ...    5.0142e-06  Tolerance :   1.0000e-04
  Last Orbital Rotation      ...    1.2393e-05  Tolerance :   1.0000e-04


----------------
ORBITAL ENERGIES
----------------

  NO   OCC          E(Eh)            E(eV) 
   0   2.0000     -12.055688      -328.0519 
   1   2.0000     -12.054426      -328.0176 
   2   2.0000     -12.049991      -327.8969 
   3   2.0000     -12.049656      -327.8878 
   4   2.0000     -12.046673      -327.8067 
   5   2.0000     -12.046308      -327.7967 
   6   2.0000     -12.045515      -327.7751 
   7   2.0000     -12.035772      -327.5100 
   8   2.0000     -12.035446      -327.5011 
   9   2.0000      -1.382798       -37.6278 
  10   2.0000      -1.316296       -35.8182 
  11   2.0000      -1.268823       -34.5264 
  12   2.0000      -1.250896       -34.0386 
  13   2.0000      -1.176940       -32.0262 
  14   2.0000      -1.117773       -30.4161 
  15   2.0000      -1.102661       -30.0049 
  16   2.0000      -1.048495       -28.5310 
  17   2.0000      -0.958352       -26.0781 
  18   2.0000      -0.950280       -25.8584 
  19   2.0000      -0.913282       -24.8517 
  20   2.0000      -0.885380       -24.0924 
  21   2.0000      -0.873034       -23.7565 
  22   2.0000      -0.867524       -23.6065 
  23   2.0000      -0.851008       -23.1571 
  24   2.0000      -0.827974       -22.5303 
  25   2.0000      -0.811167       -22.0730 
  26   2.0000      -0.804279       -21.8855 
  27   2.0000      -0.785289       -21.3688 
  28   2.0000      -0.782667       -21.2974 
  29   2.0000      -0.761405       -20.7189 
  30   2.0000      -0.760486       -20.6939 
  31   2.0000      -0.634896       -17.2764 
  32   2.0000      -0.632907       -17.2223 
  33   0.0000      -0.238981        -6.5030 
  34   0.0000      -0.233341        -6.3495 
  35   0.0000      -0.071336        -1.9411 
  36   0.0000      -0.049409        -1.3445 
  37   0.0000      -0.022993        -0.6257 
  38   0.0000      -0.020416        -0.5555 
  39   0.0000      -0.008144        -0.2216 
  40   0.0000       0.001524         0.0415 
  41   0.0000       0.013546         0.3686 
  42   0.0000       0.016764         0.4562 
  43   0.0000       0.020474         0.5571 
*Only the first 10 virtual orbitals were printed.

                    ********************************
                    * MULLIKEN POPULATION ANALYSIS *
                    ********************************

-----------------------
MULLIKEN ATOMIC CHARGES
-----------------------
   0 C :   -0.341081
   1 C :   -0.036803
   2 C :   -0.341196
   3 C :    0.224189
   4 C :   -0.229145
   5 C :   -0.099863
   6 C :   -0.137604
   7 C :   -0.115815
   8 C :   -0.235150
   9 H :    0.118842
  10 H :    0.102959
  11 H :    0.111100
  12 H :    0.068894
  13 H :    0.118899
  14 H :    0.111175
  15 H :    0.102868
  16 H :    0.111369
  17 H :    0.114697
  18 H :    0.115308
  19 H :    0.115035
  20 H :    0.121324
Sum of atomic charges:    0.0000000

--------------------------------
MULLIKEN REDUCED ORBITAL CHARGES
--------------------------------
  0 C s       :     3.234595  s :     3.234595
      pz      :     0.977807  p :     3.045394
      px      :     1.035627
      py      :     1.031960
      dz2     :     0.017722  d :     0.057799
      dxz     :     0.009380
      dyz     :     0.009305
      dx2y2   :     0.018571
      dxy     :     0.002820
      f0      :     0.000565  f :     0.003294
      f+1     :     0.000746
      f-1     :     0.000638
      f+2     :     0.000463
      f-2     :     0.000234
      f+3     :     0.000241
      f-3     :     0.000407

  1 C s       :     3.125003  s :     3.125003
      pz      :     0.913701  p :     2.767573
      px      :     0.872818
      py      :     0.981054
      dz2     :     0.035998  d :     0.136527
      dxz     :     0.033546
      dyz     :     0.017934
      dx2y2   :     0.033832
      dxy     :     0.015217
      f0      :     0.001663  f :     0.007700
      f+1     :     0.001115
      f-1     :     0.001007
      f+2     :     0.001453
      f-2     :     0.000664
      f+3     :     0.000671
      f-3     :     0.001126

  2 C s       :     3.234667  s :     3.234667
      pz      :     0.979489  p :     3.045441
      px      :     1.035651
      py      :     1.030301
      dz2     :     0.018007  d :     0.057795
      dxz     :     0.009329
      dyz     :     0.008792
      dx2y2   :     0.018799
      dxy     :     0.002868
      f0      :     0.000554  f :     0.003294
      f+1     :     0.000747
      f-1     :     0.000632
      f+2     :     0.000471
      f-2     :     0.000231
      f+3     :     0.000242
      f-3     :     0.000417

  3 C s       :     3.175302  s :     3.175302
      pz      :     0.895335  p :     2.461187
      px      :     0.736308
      py      :     0.829544
      dz2     :     0.006135  d :     0.129406
      dxz     :     0.021130
      dyz     :     0.023225
      dx2y2   :     0.037722
      dxy     :     0.041194
      f0      :     0.001710  f :     0.009917
      f+1     :     0.000837
      f-1     :     0.000579
      f+2     :     0.000916
      f-2     :     0.001083
      f+3     :     0.001808
      f-3     :     0.002984

  4 C s       :     3.203620  s :     3.203620
      pz      :     0.991527  p :     2.927210
      px      :     0.954021
      py      :     0.981662
      dz2     :     0.004732  d :     0.090848
      dxz     :     0.020784
      dyz     :     0.006685
      dx2y2   :     0.029384
      dxy     :     0.029263
      f0      :     0.001562  f :     0.007467
      f+1     :     0.000617
      f-1     :     0.000646
      f+2     :     0.000624
      f-2     :     0.000681
      f+3     :     0.001357
      f-3     :     0.001981

  5 C s       :     3.156757  s :     3.156757
      pz      :     0.960387  p :     2.847809
      px      :     0.938566
      py      :     0.948856
      dz2     :     0.004663  d :     0.087844
      dxz     :     0.017003
      dyz     :     0.012204
      dx2y2   :     0.023371
      dxy     :     0.030604
      f0      :     0.001600  f :     0.007453
      f+1     :     0.000631
      f-1     :     0.000651
      f+2     :     0.001121
      f-2     :     0.000244
      f+3     :     0.001283
      f-3     :     0.001923

  6 C s       :     3.176180  s :     3.176180
      pz      :     0.977207  p :     2.868741
      px      :     0.976174
      py      :     0.915361
      dz2     :     0.004470  d :     0.085295
      dxz     :     0.005226
      dyz     :     0.022218
      dx2y2   :     0.030169
      dxy     :     0.023212
      f0      :     0.001596  f :     0.007388
      f+1     :     0.000688
      f-1     :     0.000597
      f+2     :     0.000258
      f-2     :     0.001043
      f+3     :     0.001266
      f-3     :     0.001939

  7 C s       :     3.164136  s :     3.164136
      pz      :     0.962289  p :     2.856497
      px      :     0.933661
      py      :     0.960547
      dz2     :     0.004679  d :     0.087728
      dxz     :     0.021807
      dyz     :     0.007278
      dx2y2   :     0.026725
      dxy     :     0.027239
      f0      :     0.001597  f :     0.007454
      f+1     :     0.000599
      f-1     :     0.000673
      f+2     :     0.000637
      f-2     :     0.000723
      f+3     :     0.001269
      f-3     :     0.001956

  8 C s       :     3.188146  s :     3.188146
      pz      :     0.986074  p :     2.949419
      px      :     1.012435
      py      :     0.950909
      dz2     :     0.004534  d :     0.090098
      dxz     :     0.016625
      dyz     :     0.011267
      dx2y2   :     0.023878
      dxy     :     0.033795
      f0      :     0.001560  f :     0.007487
      f+1     :     0.000666
      f-1     :     0.000628
      f+2     :     0.001033
      f-2     :     0.000268
      f+3     :     0.001302
      f-3     :     0.002031

  9 H s       :     0.860208  s :     0.860208
      pz      :     0.010292  p :     0.020949
      px      :     0.005398
      py      :     0.005260

 10 H s       :     0.875968  s :     0.875968
      pz      :     0.004237  p :     0.021073
      px      :     0.004264
      py      :     0.012572

 11 H s       :     0.867967  s :     0.867967
      pz      :     0.004169  p :     0.020933
      px      :     0.012338
      py      :     0.004427

 12 H s       :     0.909439  s :     0.909439
      pz      :     0.004128  p :     0.021668
      px      :     0.004238
      py      :     0.013302

 13 H s       :     0.860153  s :     0.860153
      pz      :     0.010394  p :     0.020948
      px      :     0.005393
      py      :     0.005161

 14 H s       :     0.867890  s :     0.867890
      pz      :     0.004172  p :     0.020935
      px      :     0.012334
      py      :     0.004429

 15 H s       :     0.876052  s :     0.876052
      pz      :     0.004217  p :     0.021080
      px      :     0.004264
      py      :     0.012599

 16 H s       :     0.866641  s :     0.866641
      pz      :     0.004630  p :     0.021991
      px      :     0.004888
      py      :     0.012473

 17 H s       :     0.863328  s :     0.863328
      pz      :     0.004514  p :     0.021975
      px      :     0.007538
      py      :     0.009922

 18 H s       :     0.862694  s :     0.862694
      pz      :     0.004619  p :     0.021998
      px      :     0.013643
      py      :     0.003736

 19 H s       :     0.863018  s :     0.863018
      pz      :     0.004508  p :     0.021947
      px      :     0.004887
      py      :     0.012552

 20 H s       :     0.856536  s :     0.856536
      pz      :     0.004640  p :     0.022140
      px      :     0.007512
      py      :     0.009989


------------------------
MULLIKEN OVERLAP CHARGES
------------------------
B(  0-C ,  1-C ) :   0.6522 B(  0-C ,  2-C ) :  -0.1190 B(  0-C ,  9-H ) :   0.8267 
B(  0-C , 10-H ) :   0.8037 B(  0-C , 11-H ) :   0.8259 B(  0-C , 12-H ) :  -0.0888 
B(  1-C ,  2-C ) :   0.6529 B(  1-C ,  3-C ) :   0.5412 B(  1-C ,  4-C ) :  -0.1623 
B(  1-C ,  8-C ) :  -0.1511 B(  1-C ,  9-H ) :  -0.0861 B(  1-C , 11-H ) :  -0.0994 
B(  1-C , 12-H ) :   0.8971 B(  1-C , 13-H ) :  -0.0863 B(  1-C , 14-H ) :  -0.0994 
B(  2-C , 12-H ) :  -0.0886 B(  2-C , 13-H ) :   0.8269 B(  2-C , 14-H ) :   0.8260 
B(  2-C , 15-H ) :   0.8038 B(  3-C ,  4-C ) :   0.9869 B(  3-C ,  6-C ) :  -0.1270 
B(  3-C ,  8-C ) :   0.9184 B(  3-C , 12-H ) :  -0.1770 B(  3-C , 16-H ) :  -0.1070 
B(  3-C , 20-H ) :  -0.1207 B(  4-C ,  5-C ) :   0.9940 B(  4-C ,  7-C ) :  -0.1084 
B(  4-C , 16-H ) :   0.8561 B(  4-C , 17-H ) :  -0.0998 B(  5-C ,  6-C ) :   1.0216 
B(  5-C ,  8-C ) :  -0.1258 B(  5-C , 16-H ) :  -0.0918 B(  5-C , 17-H ) :   0.8605 
B(  5-C , 18-H ) :  -0.0887 B(  6-C ,  7-C ) :   1.0024 B(  6-C , 17-H ) :  -0.0948 
B(  6-C , 18-H ) :   0.8511 B(  6-C , 19-H ) :  -0.0883 B(  7-C ,  8-C ) :   1.0116 
B(  7-C , 18-H ) :  -0.0883 B(  7-C , 19-H ) :   0.8487 B(  7-C , 20-H ) :  -0.0573 
B(  8-C , 19-H ) :  -0.0888 B(  8-C , 20-H ) :   0.8432 B( 10-H , 11-H ) :  -0.0527 
B( 14-H , 15-H ) :  -0.0527 


                     *******************************
                     * LOEWDIN POPULATION ANALYSIS *
                     *******************************

----------------------
LOEWDIN ATOMIC CHARGES
----------------------
   0 C :   -0.270220
   1 C :   -0.264811
   2 C :   -0.270279
   3 C :   -0.119751
   4 C :   -0.114641
   5 C :   -0.139713
   6 C :   -0.146915
   7 C :   -0.139725
   8 C :   -0.108653
   9 H :    0.121385
  10 H :    0.118482
  11 H :    0.118069
  12 H :    0.150930
  13 H :    0.121402
  14 H :    0.118093
  15 H :    0.118418
  16 H :    0.142877
  17 H :    0.140855
  18 H :    0.139978
  19 H :    0.140887
  20 H :    0.143330

-------------------------------
LOEWDIN REDUCED ORBITAL CHARGES
-------------------------------
  0 C s       :     2.825323  s :     2.825323
      pz      :     1.038688  p :     3.157274
      px      :     1.053870
      py      :     1.064717
      dz2     :     0.082545  d :     0.263283
      dxz     :     0.044485
      dyz     :     0.043592
      dx2y2   :     0.077790
      dxy     :     0.014871
      f0      :     0.003573  f :     0.024340
      f+1     :     0.004665
      f-1     :     0.004684
      f+2     :     0.002721
      f-2     :     0.004288
      f+3     :     0.001758
      f-3     :     0.002650

  1 C s       :     2.722833  s :     2.722833
      pz      :     1.009002  p :     2.975274
      px      :     0.976248
      py      :     0.990025
      dz2     :     0.129163  d :     0.513770
      dxz     :     0.121272
      dyz     :     0.071785
      dx2y2   :     0.129899
      dxy     :     0.061650
      f0      :     0.010196  f :     0.052934
      f+1     :     0.007389
      f-1     :     0.007059
      f+2     :     0.008812
      f-2     :     0.007223
      f+3     :     0.004519
      f-3     :     0.007735

  2 C s       :     2.825292  s :     2.825292
      pz      :     1.039161  p :     3.157383
      px      :     1.053874
      py      :     1.064348
      dz2     :     0.083412  d :     0.263264
      dxz     :     0.044180
      dyz     :     0.041905
      dx2y2   :     0.078588
      dxy     :     0.015179
      f0      :     0.003499  f :     0.024340
      f+1     :     0.004665
      f-1     :     0.004648
      f+2     :     0.002796
      f-2     :     0.004254
      f+3     :     0.001776
      f-3     :     0.002701

  3 C s       :     2.708162  s :     2.708162
      pz      :     0.816485  p :     2.842330
      px      :     0.975305
      py      :     1.050540
      dz2     :     0.032518  d :     0.512612
      dxz     :     0.071915
      dyz     :     0.077037
      dx2y2   :     0.171571
      dxy     :     0.159571
      f0      :     0.003998  f :     0.056647
      f+1     :     0.004019
      f-1     :     0.004202
      f+2     :     0.006069
      f-2     :     0.007307
      f+3     :     0.011491
      f-3     :     0.019560

  4 C s       :     2.756873  s :     2.756873
      pz      :     0.896043  p :     2.933466
      px      :     1.048048
      py      :     0.989375
      dz2     :     0.025827  d :     0.382158
      dxz     :     0.067860
      dyz     :     0.018863
      dx2y2   :     0.138462
      dxy     :     0.131145
      f0      :     0.002937  f :     0.042143
      f+1     :     0.004069
      f-1     :     0.003260
      f+2     :     0.004134
      f-2     :     0.004546
      f+3     :     0.009370
      f-3     :     0.013827

  5 C s       :     2.764252  s :     2.764252
      pz      :     0.882327  p :     2.945360
      px      :     1.039911
      py      :     1.023122
      dz2     :     0.025081  d :     0.387220
      dxz     :     0.055459
      dyz     :     0.038377
      dx2y2   :     0.105520
      dxy     :     0.162784
      f0      :     0.003037  f :     0.042881
      f+1     :     0.003837
      f-1     :     0.003583
      f+2     :     0.007498
      f-2     :     0.001650
      f+3     :     0.009181
      f-3     :     0.014096

  6 C s       :     2.763922  s :     2.763922
      pz      :     0.894288  p :     2.955977
      px      :     0.991660
      py      :     1.070028
      dz2     :     0.025196  d :     0.384076
      dxz     :     0.013518
      dyz     :     0.076001
      dx2y2   :     0.161096
      dxy     :     0.108265
      f0      :     0.003035  f :     0.042940
      f+1     :     0.003216
      f-1     :     0.004244
      f+2     :     0.001809
      f-2     :     0.007099
      f+3     :     0.009296
      f-3     :     0.014242

  7 C s       :     2.763956  s :     2.763956
      pz      :     0.882771  p :     2.944436
      px      :     1.061008
      py      :     1.000657
      dz2     :     0.024995  d :     0.388342
      dxz     :     0.073445
      dyz     :     0.020739
      dx2y2   :     0.137736
      dxy     :     0.131427
      f0      :     0.003040  f :     0.042991
      f+1     :     0.004136
      f-1     :     0.003286
      f+2     :     0.004327
      f-2     :     0.004849
      f+3     :     0.009301
      f-3     :     0.014052

  8 C s       :     2.753923  s :     2.753923
      pz      :     0.892922  p :     2.932448
      px      :     1.032385
      py      :     1.007141
      dz2     :     0.025709  d :     0.379996
      dxz     :     0.051084
      dyz     :     0.034953
      dx2y2   :     0.104861
      dxy     :     0.163388
      f0      :     0.002922  f :     0.042286
      f+1     :     0.003831
      f-1     :     0.003535
      f+2     :     0.007102
      f-2     :     0.001608
      f+3     :     0.009175
      f-3     :     0.014113

  9 H s       :     0.818349  s :     0.818349
      pz      :     0.027267  p :     0.060265
      px      :     0.016711
      py      :     0.016287

 10 H s       :     0.821281  s :     0.821281
      pz      :     0.012677  p :     0.060237
      px      :     0.013162
      py      :     0.034398

 11 H s       :     0.821890  s :     0.821890
      pz      :     0.012574  p :     0.060041
      px      :     0.033457
      py      :     0.014010

 12 H s       :     0.793985  s :     0.793985
      pz      :     0.012403  p :     0.055085
      px      :     0.011819
      py      :     0.030863

 13 H s       :     0.818333  s :     0.818333
      pz      :     0.027548  p :     0.060266
      px      :     0.016701
      py      :     0.016017

 14 H s       :     0.821865  s :     0.821865
      pz      :     0.012583  p :     0.060041
      px      :     0.033438
      py      :     0.014020

 15 H s       :     0.821338  s :     0.821338
      pz      :     0.012670  p :     0.060243
      px      :     0.013159
      py      :     0.034414

 16 H s       :     0.799195  s :     0.799195
      pz      :     0.013528  p :     0.057928
      px      :     0.013571
      py      :     0.030829

 17 H s       :     0.801311  s :     0.801311
      pz      :     0.013014  p :     0.057834
      px      :     0.019667
      py      :     0.025153

 18 H s       :     0.801909  s :     0.801909
      pz      :     0.013330  p :     0.058113
      px      :     0.033581
      py      :     0.011202

 19 H s       :     0.801310  s :     0.801310
      pz      :     0.013012  p :     0.057803
      px      :     0.013714
      py      :     0.031077

 20 H s       :     0.798450  s :     0.798450
      pz      :     0.013471  p :     0.058219
      px      :     0.019647
      py      :     0.025101


---------------------------------
LOEWDIN BOND ORDERS (THRESH 0.050000)
---------------------------------
B(  0-C ,  1-C ) :   1.2031 B(  0-C ,  2-C ) :   0.1462 B(  0-C ,  3-C ) :   0.1415 
B(  0-C ,  9-H ) :   0.9037 B(  0-C , 10-H ) :   0.8991 B(  0-C , 11-H ) :   0.9022 
B(  0-C , 12-H ) :   0.0706 B(  1-C ,  2-C ) :   1.2032 B(  1-C ,  3-C ) :   1.0771 
B(  1-C ,  4-C ) :   0.1712 B(  1-C ,  8-C ) :   0.1575 B(  1-C ,  9-H ) :   0.0757 
B(  1-C , 10-H ) :   0.0753 B(  1-C , 11-H ) :   0.0782 B(  1-C , 12-H ) :   0.7873 
B(  1-C , 13-H ) :   0.0757 B(  1-C , 14-H ) :   0.0782 B(  1-C , 15-H ) :   0.0752 
B(  2-C ,  3-C ) :   0.1413 B(  2-C , 12-H ) :   0.0706 B(  2-C , 13-H ) :   0.9037 
B(  2-C , 14-H ) :   0.9021 B(  2-C , 15-H ) :   0.8991 B(  3-C ,  4-C ) :   1.4826 
B(  3-C ,  5-C ) :   0.2345 B(  3-C ,  6-C ) :   0.1019 B(  3-C ,  7-C ) :   0.2349 
B(  3-C ,  8-C ) :   1.4561 B(  3-C , 12-H ) :   0.0761 B(  3-C , 16-H ) :   0.0931 
B(  3-C , 20-H ) :   0.0913 B(  4-C ,  5-C ) :   1.5761 B(  4-C ,  6-C ) :   0.2421 
B(  4-C ,  7-C ) :   0.1102 B(  4-C ,  8-C ) :   0.2320 B(  4-C , 16-H ) :   0.8222 
B(  4-C , 17-H ) :   0.0960 B(  5-C ,  6-C ) :   1.5888 B(  5-C ,  7-C ) :   0.2448 
B(  5-C ,  8-C ) :   0.1107 B(  5-C , 16-H ) :   0.0947 B(  5-C , 17-H ) :   0.8319 
B(  5-C , 18-H ) :   0.0955 B(  6-C ,  7-C ) :   1.5736 B(  6-C ,  8-C ) :   0.2415 
B(  6-C , 17-H ) :   0.0954 B(  6-C , 18-H ) :   0.8337 B(  6-C , 19-H ) :   0.0947 
B(  7-C ,  8-C ) :   1.5909 B(  7-C , 18-H ) :   0.0949 B(  7-C , 19-H ) :   0.8317 
B(  7-C , 20-H ) :   0.0957 B(  8-C , 19-H ) :   0.0967 B(  8-C , 20-H ) :   0.8190 


------------------------------------------
LOEWDIN REDUCED ORBITAL POPULATIONS PER MO
-------------------------------------------
THRESHOLD FOR PRINTING IS 0.1%%
                      0         1         2         3         4         5   
                 -12.05569 -12.05443 -12.04999 -12.04966 -12.04667 -12.04631
                   2.00000   2.00000   2.00000   2.00000   2.00000   2.00000
                  --------  --------  --------  --------  --------  --------
 1 C  s              68.0      30.9       0.0       0.0       0.1       0.0
 3 C  s              30.6      65.3       0.0       0.0       1.4       0.0
 3 C  py              0.0       0.0       0.0       0.0       0.0       0.1
 3 C  dxy             0.0       0.0       0.0       0.0       0.0       0.3
 4 C  s               0.2       1.3       0.0       7.9      12.7      41.6
 4 C  dx2y2           0.0       0.0       0.0       0.2       0.0       0.0
 4 C  dxy             0.1       0.1       0.0       0.0       0.0       0.0
 5 C  s               0.0       0.0       2.3      79.2       3.5       3.7
 5 C  dx2y2           0.0       0.0       0.0       0.0       0.2       0.1
 6 C  s               0.0       0.0      10.8       6.1      53.1       2.7
 6 C  dxy             0.0       0.0       0.1       0.1       0.0       0.0
 7 C  s               0.0       0.0      79.6       4.0       0.9       8.2
 7 C  dxy             0.0       0.0       0.0       0.0       0.2       0.0
 8 C  s               0.2       1.3       6.2       1.8      27.2      42.8
 8 C  dx2y2           0.0       0.1       0.2       0.0       0.0       0.0

                      6         7         8         9        10        11   
                 -12.04552 -12.03577 -12.03545  -1.38280  -1.31630  -1.26882
                   2.00000   2.00000   2.00000   2.00000   2.00000   2.00000
                  --------  --------  --------  --------  --------  --------
 0 C  s               0.0      48.7      50.7       0.6       7.0       0.0
 0 C  pz              0.0       0.0       0.0       0.4       2.3       0.0
 0 C  px              0.0       0.0       0.0       0.3       0.6       0.0
 0 C  py              0.0       0.0       0.0       0.0       0.3       0.0
 0 C  dz2             0.0       0.0       0.0       0.0       0.2       0.0
 0 C  dxz             0.0       0.0       0.0       0.1       0.3       0.0
 0 C  dyz             0.0       0.0       0.0       0.0       0.1       0.0
 1 C  s               0.1       0.0       0.2       3.4      18.1       0.0
 1 C  px              0.0       0.0       0.0       1.5       0.0       0.0
 1 C  py              0.0       0.0       0.0       0.1       0.6       0.2
 1 C  dxz             0.0       0.1       0.0       0.0       0.0       0.0
 1 C  dx2y2           0.0       0.0       0.0       0.2       0.2       0.0
 1 C  f+1             0.0       0.0       0.0       0.0       0.1       0.0
 2 C  s               0.0      50.8      48.7       0.6       7.0       0.0
 2 C  pz              0.0       0.0       0.0       0.4       2.2       0.0
 2 C  px              0.0       0.0       0.0       0.3       0.6       0.0
 2 C  py              0.0       0.0       0.0       0.0       0.3       0.0
 2 C  dz2             0.0       0.0       0.0       0.0       0.2       0.0
 2 C  dxz             0.0       0.0       0.0       0.1       0.2       0.0
 2 C  dyz             0.0       0.0       0.0       0.0       0.1       0.0
 3 C  s               1.5       0.0       0.0      14.0       5.9       0.0
 3 C  px              0.0       0.0       0.0       1.3       5.9       0.2
 3 C  py              0.0       0.0       0.0       0.0       0.0       9.3
 3 C  dz2             0.1       0.0       0.0       0.8       0.2       0.0
 3 C  dx2y2           0.0       0.0       0.0       0.0       0.2       0.2
 3 C  dxy             0.0       0.0       0.0       0.0       0.0       2.1
 3 C  f+3             0.0       0.0       0.0       0.1       0.1       0.0
 4 C  s              35.2       0.0       0.0      10.9       0.0      13.0
 4 C  px              0.0       0.0       0.0       0.1       4.3       2.2
 4 C  py              0.0       0.0       0.0       3.1       0.1       0.3
 4 C  dz2             0.0       0.0       0.0       0.6       0.0       0.2
 4 C  dx2y2           0.0       0.0       0.0       0.0       0.0       0.8
 4 C  dxy             0.0       0.0       0.0       0.1       0.6       0.0
 5 C  s              10.2       0.0       0.0       9.2       4.3      11.7
 5 C  px              0.0       0.0       0.0       1.4       0.3       2.4
 5 C  py              0.0       0.0       0.0       1.7       1.5       0.8
 5 C  dz2             0.1       0.0       0.0       0.5       0.1       0.2
 5 C  dx2y2           0.0       0.0       0.0       0.0       0.3       0.8
 5 C  dxy             0.1       0.0       0.0       0.0       0.1       0.1
 5 C  f+3             0.1       0.0       0.0       0.1       0.0       0.1
 6 C  s              26.3       0.0       0.0       8.8       8.0       0.0
 6 C  px              0.0       0.0       0.0       2.9       0.7       0.2
 6 C  py              0.0       0.0       0.0       0.1       0.0       9.4
 6 C  dz2             0.0       0.0       0.0       0.5       0.2       0.0
 6 C  dx2y2           0.0       0.0       0.0       0.0       0.1       0.2
 6 C  dxy             0.0       0.0       0.0       0.0       0.0       2.1
 7 C  s               6.2       0.0       0.0       9.3       3.9      13.0
 7 C  px              0.0       0.0       0.0       0.6       0.8       2.3
 7 C  py              0.0       0.0       0.0       2.5       1.0       0.3
 7 C  dz2             0.1       0.0       0.0       0.5       0.1       0.2
 7 C  dx2y2           0.0       0.0       0.0       0.0       0.1       0.8
 7 C  dxy             0.0       0.0       0.0       0.0       0.3       0.0
 8 C  s              19.6       0.0       0.0      10.9       0.0      11.8
 8 C  px              0.0       0.0       0.0       0.7       3.8       2.4
 8 C  py              0.0       0.0       0.0       2.5       0.9       0.8
 8 C  dz2             0.0       0.0       0.0       0.6       0.0       0.2
 8 C  dx2y2           0.0       0.0       0.0       0.0       0.4       0.8
 8 C  dxy             0.0       0.0       0.0       0.1       0.3       0.1
 8 C  f+3             0.0       0.0       0.0       0.1       0.0       0.1
 9 H  s               0.0       0.0       0.0       0.1       1.2       0.0
10 H  s               0.0       0.0       0.0       0.1       1.2       0.0
10 H  py              0.0       0.0       0.0       0.0       0.1       0.0
11 H  s               0.0       0.0       0.0       0.1       1.2       0.0
11 H  px              0.0       0.0       0.0       0.0       0.1       0.0
12 H  s               0.0       0.0       0.0       0.6       3.2       0.0
12 H  py              0.0       0.0       0.0       0.0       0.3       0.0
13 H  s               0.0       0.0       0.0       0.1       1.2       0.0
14 H  s               0.0       0.0       0.0       0.1       1.2       0.0
14 H  px              0.0       0.0       0.0       0.0       0.1       0.0
15 H  s               0.0       0.0       0.0       0.1       1.2       0.0
15 H  py              0.0       0.0       0.0       0.0       0.1       0.0
16 H  s               0.0       0.0       0.0       1.3       0.0       2.2
16 H  py              0.0       0.0       0.0       0.1       0.0       0.2
17 H  s               0.0       0.0       0.0       1.1       0.6       2.0
17 H  px              0.0       0.0       0.0       0.0       0.0       0.1
17 H  py              0.0       0.0       0.0       0.0       0.1       0.1
18 H  s               0.0       0.0       0.0       1.0       1.1       0.0
18 H  px              0.0       0.0       0.0       0.1       0.1       0.0
19 H  s               0.0       0.0       0.0       1.1       0.5       2.2
19 H  py              0.0       0.0       0.0       0.1       0.1       0.2
20 H  s               0.0       0.0       0.0       1.3       0.0       2.1
20 H  px              0.0       0.0       0.0       0.0       0.0       0.1
20 H  py              0.0       0.0       0.0       0.1       0.0       0.1

                     12        13        14        15        16        17   
                  -1.25090  -1.17694  -1.11777  -1.10266  -1.04850  -0.95835
                   2.00000   2.00000   2.00000   2.00000   2.00000   2.00000
                  --------  --------  --------  --------  --------  --------
 0 C  s               6.1      19.9       3.7       0.2       3.2       0.0
 0 C  pz              0.7       0.6       0.4       0.0       3.1       0.5
 0 C  px              0.0       0.0       0.7       0.1       1.2       0.2
 0 C  py              0.1       0.0       0.3       0.0       1.5       1.2
 0 C  dz2             0.2       0.1       0.0       0.0       0.1       0.0
 0 C  dxz             0.0       0.0       0.2       0.0       0.3       0.0
 0 C  dyz             0.1       0.0       0.0       0.0       0.3       0.1
 0 C  dxy             0.0       0.0       0.1       0.0       0.1       0.0
 1 C  s               4.7       0.0       2.0       0.0       7.2       0.5
 1 C  pz              0.0      17.3       0.0       0.0       0.0       0.0
 1 C  px              5.5       0.0       6.8       0.4       0.4       3.3
 1 C  py              0.3       0.0       1.4       0.8       2.9       2.8
 1 C  dz2             0.7       0.0       0.7       0.0       0.2       0.0
 1 C  dxz             0.0       1.6       0.0       0.0       0.0       0.0
 1 C  dyz             0.0       1.2       0.0       0.0       0.0       0.0
 1 C  dx2y2           0.2       0.0       0.2       0.0       0.2       0.1
 1 C  dxy             0.2       0.0       0.1       0.6       0.1       0.1
 2 C  s               6.1      19.9       3.6       0.2       3.2       0.0
 2 C  pz              0.7       0.6       0.4       0.0       3.0       0.5
 2 C  px              0.0       0.0       0.7       0.1       1.2       0.2
 2 C  py              0.1       0.0       0.3       0.0       1.6       1.2
 2 C  dz2             0.1       0.1       0.0       0.0       0.1       0.0
 2 C  dxz             0.0       0.0       0.2       0.0       0.3       0.0
 2 C  dyz             0.1       0.0       0.0       0.0       0.3       0.1
 2 C  dxy             0.0       0.0       0.1       0.0       0.1       0.0
 3 C  s               7.3       0.0       4.3       0.4       1.3       0.2
 3 C  pz              0.0       0.6       0.0       0.0       0.0       0.0
 3 C  px              4.2       0.0       3.4       0.8       7.8       3.4
 3 C  py              0.1       0.0       2.1      16.0       0.1       1.3
 3 C  dz2             0.1       0.0       0.0       0.0       0.1       0.0
 3 C  dxz             0.0       0.4       0.0       0.0       0.0       0.0
 3 C  dx2y2           1.1       0.0       0.1       0.1       0.7       0.9
 3 C  dxy             0.0       0.0       0.0       0.6       0.5       0.4
 4 C  s               3.4       0.0       0.9       7.2       0.0       0.8
 4 C  px              2.6       0.0       8.7       2.6       3.6       0.0
 4 C  py              1.0       0.0       1.3       0.8       3.5       9.2
 4 C  dx2y2           0.4       0.0       0.0       0.0       1.1       0.0
 4 C  dxy             0.8       0.0       0.2       0.0       0.0       0.1
 5 C  s               2.4       0.0       2.3       4.1       2.3       0.3
 5 C  px              3.4       0.0       3.1       7.9       0.1       0.2
 5 C  py              2.4       0.0       4.3       1.2       3.7       7.9
 5 C  dx2y2           1.0       0.0       0.4       0.3       0.0       0.1
 5 C  dxy             0.3       0.0       0.0       0.0       0.0       0.5
 6 C  s              10.8       0.0       6.0       0.5       1.5       0.9
 6 C  px              0.3       0.0       1.0       0.8       0.3       8.8
 6 C  py              0.0       0.0       1.2      15.3       0.4       4.3
 6 C  dz2             0.1       0.0       0.0       0.0       0.0       0.0
 6 C  dx2y2           0.3       0.0       0.0       0.1       0.2       0.1
 6 C  dxy             0.0       0.0       0.1       0.5       0.0       0.0
 7 C  s               1.4       0.0       0.1       7.3       1.1       0.4
 7 C  px              5.5       0.0      10.2       2.1       2.8       6.9
 7 C  py              0.9       0.0       1.7       0.8       3.1       3.9
 7 C  dx2y2           0.4       0.0       0.2       0.0       0.0       0.3
 7 C  dxy             1.0       0.0       0.4       0.0       0.0       0.1
 8 C  s               4.5       0.0       3.7       3.8       0.3       0.4
 8 C  px              1.0       0.0       1.4       8.6       1.4       9.6
 8 C  py              1.6       0.0       2.6       1.3       6.5       1.5
 8 C  dx2y2           0.9       0.0       0.0       0.3       0.7       0.0
 8 C  dxy             0.1       0.0       0.1       0.0       0.2       0.1
 9 H  s               1.2       5.8       1.2       0.1       1.9       0.1
 9 H  pz              0.1       0.4       0.0       0.0       0.0       0.0
 9 H  px              0.0       0.1       0.0       0.0       0.1       0.0
10 H  s               1.2       5.5       1.6       0.0       2.5       0.6
10 H  py              0.1       0.5       0.1       0.0       0.2       0.0
11 H  s               1.3       5.4       1.7       0.1       2.1       0.0
11 H  px              0.1       0.5       0.2       0.0       0.1       0.0
12 H  s               1.0       0.0       1.0       0.1       5.2       2.1
12 H  py              0.1       0.0       0.1       0.0       0.4       0.1
13 H  s               1.2       5.8       1.2       0.1       1.9       0.1
13 H  pz              0.1       0.4       0.1       0.0       0.0       0.0
13 H  px              0.0       0.1       0.0       0.0       0.1       0.0
14 H  s               1.3       5.5       1.7       0.1       2.1       0.0
14 H  px              0.1       0.5       0.2       0.0       0.1       0.0
15 H  s               1.2       5.5       1.6       0.0       2.5       0.6
15 H  py              0.1       0.5       0.1       0.0       0.2       0.0
16 H  s               0.5       0.0       0.2       3.7       0.2       4.8
16 H  px              0.0       0.0       0.1       0.0       0.1       0.1
16 H  py              0.1       0.0       0.0       0.4       0.0       0.1
17 H  s               0.5       0.0       1.0       2.0       2.3       2.5
17 H  px              0.0       0.0       0.1       0.0       0.1       0.1
17 H  py              0.1       0.0       0.0       0.3       0.1       0.0
18 H  s               2.0       0.0       2.7       0.2       0.9       6.0
18 H  px              0.2       0.0       0.3       0.0       0.1       0.3
18 H  py              0.0       0.0       0.0       0.1       0.0       0.0
19 H  s               0.3       0.0       0.0       3.6       1.2       3.5
19 H  py              0.0       0.0       0.0       0.4       0.0       0.2
20 H  s               0.7       0.0       1.6       2.0       0.8       4.4
20 H  px              0.0       0.0       0.1       0.0       0.1       0.0
20 H  py              0.1       0.0       0.0       0.3       0.0       0.2

                     18        19        20        21        22        23   
                  -0.95028  -0.91328  -0.88538  -0.87303  -0.86752  -0.85101
                   2.00000   2.00000   2.00000   2.00000   2.00000   2.00000
                  --------  --------  --------  --------  --------  --------
 0 C  s               0.1       0.1       0.0       0.1       0.1       0.1
 0 C  pz              1.0       2.5       0.3       9.2       6.3       2.2
 0 C  px              0.2       0.7       2.7       0.1       0.0      13.5
 0 C  py              0.0       1.4       3.2       2.1       3.0       7.7
 0 C  dz2             0.0       0.1       0.0       0.1       0.1       0.1
 0 C  dyz             0.0       0.2       0.1       0.0       0.0       0.0
 0 C  dxy             0.0       0.0       0.0       0.0       0.0       0.3
 1 C  s               0.3       0.2       0.0       0.1       0.1       0.0
 1 C  pz              0.0       0.0       0.0       0.0       0.0      22.2
 1 C  px              0.2       9.6       6.6       2.7       0.6       0.0
 1 C  py              1.7       1.5       3.7       7.4       8.3       0.0
 1 C  dz2             0.0       0.0       0.0       0.1       0.1       0.0
 1 C  dxz             0.0       0.0       0.0       0.0       0.0       0.1
 1 C  dx2y2           0.1       0.3       0.0       0.0       0.0       0.0
 1 C  dxy             0.4       0.0       0.1       0.5       0.4       0.0
 2 C  s               0.1       0.1       0.0       0.1       0.1       0.1
 2 C  pz              1.0       2.4       0.3       9.3       6.4       2.1
 2 C  px              0.2       0.7       2.7       0.1       0.0      13.6
 2 C  py              0.0       1.4       3.2       1.9       2.8       7.7
 2 C  dz2             0.0       0.1       0.0       0.1       0.1       0.1
 2 C  dyz             0.0       0.2       0.1       0.0       0.0       0.0
 2 C  dxy             0.0       0.0       0.0       0.0       0.0       0.3
 3 C  s               0.0       1.8       0.4       0.0       0.0       0.0
 3 C  pz              0.0       0.0       0.0       0.0       0.0       5.2
 3 C  px              0.2       2.3       7.5       1.4       0.1       0.0
 3 C  py             11.5       0.6       1.2       1.2       0.1       0.0
 3 C  dz2             0.0       0.2       0.1       0.0       0.0       0.0
 3 C  dxz             0.0       0.0       0.0       0.0       0.0       0.8
 3 C  dx2y2           0.6       1.3       0.2       0.2       0.0       0.0
 3 C  dxy             0.1       0.0       0.2       1.9       0.0       0.0
 3 C  f+3             0.0       0.0       0.0       0.0       0.1       0.0
 3 C  f-3             0.0       0.0       0.0       0.0       0.6       0.0
 4 C  s               0.1       1.5       0.2       0.2       0.1       0.0
 4 C  pz              0.0       0.0       0.0       0.0       0.0       1.0
 4 C  px             16.0       0.1       0.2       0.2       3.6       0.0
 4 C  py              0.1       3.7       2.1       7.7       5.6       0.0
 4 C  dz2             0.0       0.0       0.0       0.1       0.0       0.0
 4 C  dx2y2           0.1       1.0       0.1       0.0       0.6       0.0
 4 C  dxy             0.0       0.9       1.2       0.0       0.0       0.0
 4 C  f-3             0.0       0.0       0.3       0.0       0.1       0.0
 5 C  s               0.1       1.6       0.4       0.1       0.2       0.0
 5 C  pz              0.0       0.0       0.0       0.0       0.0       0.2
 5 C  px             13.3       2.5       2.7       1.0       5.4       0.0
 5 C  py              2.0       1.4       8.7       3.5       2.8       0.0
 5 C  dx2y2           0.1       0.1       0.2       0.6       0.2       0.0
 5 C  dxy             0.1       1.8       0.9       0.0       0.0       0.0
 5 C  f-3             0.1       0.0       0.1       0.1       0.0       0.0
[...]
 6 C  dx2y2           5.0       0.0       1.3       0.2       1.1       0.0
 6 C  dxy             0.0       4.8       0.1       2.1       0.1       0.3
 6 C  f+1             0.0       0.2       1.0       0.2       0.2       0.0
 6 C  f-1             0.1       0.6       0.4       1.4       0.0       1.2
 6 C  f+3             0.9       3.7       0.3       0.1       2.7       0.9
 6 C  f-3             3.7      10.6       0.0       0.1       0.4       4.7
 7 C  s               0.1       1.2       1.8       0.1       2.4       0.0
 7 C  px              1.7       0.0       2.3       3.3       0.4       5.0
 7 C  py              0.1       0.1       4.4       1.4       0.1       0.9
 7 C  dz2             0.1       0.3       0.7       0.0       1.0       0.0
 7 C  dx2y2           0.2       5.8       1.0       0.7       0.3       0.1
 7 C  dxy             2.0       0.4       0.4       3.3       0.0       0.4
 7 C  f+1             1.2       0.0       0.6       0.8       0.3       1.2
 7 C  f-1             0.1       0.0       1.1       0.4       0.2       0.2
 7 C  f+3             1.6       6.3       0.1       0.2       3.4       1.1
 7 C  f-3            10.0       0.3       0.0       1.1       1.9       5.2
 8 C  s               1.2       0.3       1.8       0.2       4.4       0.2
 8 C  px              0.5       2.7       4.7       1.0       0.5       4.6
 8 C  py              0.2       0.3       3.0       2.5       0.5       2.4
 8 C  dz2             0.4       0.0       0.7       0.0       1.8       0.0
 8 C  dx2y2           0.2       0.0       0.5       6.7       0.1       0.7
 8 C  dxy             5.8       2.2       2.1       0.1       1.1       0.0
 8 C  f+1             0.4       1.2       0.7       0.2       0.3       0.9
 8 C  f-1             0.0       0.3       0.9       0.8       0.0       0.7
 8 C  f+3             5.0       0.0       0.0       0.8       6.1       1.4
 8 C  f-3             2.2       1.9       0.5       3.3       0.1       6.7
12 H  s               0.0       0.6       0.0       0.4       0.1       0.2
12 H  py              0.0       0.1       0.0       0.1       0.0       0.1
16 H  s               0.1       1.1       0.3       0.2       1.1       0.0
16 H  px              0.2       0.1       0.0       0.0       0.1       0.1
16 H  py              0.0       0.4       0.0       0.2       0.1       0.0
17 H  s               0.7       0.2       0.6       0.0       1.4       0.0
17 H  px              0.3       0.0       0.0       0.0       0.1       0.1
17 H  py              0.1       0.4       0.1       0.0       0.1       0.0
18 H  s               0.7       0.0       0.4       0.0       0.7       0.0
18 H  px              0.4       0.0       0.1       0.0       0.1       0.0
18 H  py              0.0       0.3       0.0       0.0       0.0       0.1
19 H  s               0.1       1.3       0.3       0.3       1.3       0.0
19 H  px              0.3       0.0       0.0       0.0       0.0       0.1
19 H  py              0.0       0.5       0.0       0.1       0.2       0.0
20 H  s               0.9       0.1       0.4       0.0       1.2       0.0
20 H  px              0.4       0.0       0.0       0.0       0.1       0.1
20 H  py              0.1       0.1       0.1       0.1       0.1       0.1

                    342       343       344       345       346       347   
                  20.44650  20.77732  20.78901  20.95284  21.02399  21.11518
                   0.00000   0.00000   0.00000   0.00000   0.00000   0.00000
                  --------  --------  --------  --------  --------  --------
 0 C  s               0.7      50.2      45.5       0.1       0.5       0.1
 1 C  s               0.4       0.0       0.3      24.3       0.1      68.2
 1 C  pz              0.0       0.2       0.0       0.0       0.0       0.0
 2 C  s               0.7      48.3      47.4       0.1       0.5       0.1
 3 C  s              11.6       0.0       0.3       3.3       0.0       0.2
 3 C  px              0.2       0.0       0.0       0.1       0.0       0.1
 3 C  py              0.0       0.0       0.0       0.0       0.1       0.0
 3 C  dx2y2           0.0       0.0       0.0       0.1       0.0       0.1
 4 C  s              18.0       0.0       2.2      16.6       0.2       8.2
 4 C  px              0.1       0.0       0.0       0.1       0.2       0.1
 5 C  s              18.2       0.0       1.1       2.7      46.4       0.4
 5 C  px              0.0       0.0       0.0       0.2       0.0       0.2
 5 C  py              0.1       0.0       0.0       0.2       0.0       0.1
 5 C  dx2y2           0.0       0.0       0.0       0.1       0.0       0.1
 6 C  s              17.6       0.0       0.6      38.7       0.2      19.9
 6 C  py              0.0       0.0       0.0       0.0       0.6       0.0
 6 C  dxy             0.0       0.0       0.0       0.0       0.2       0.0
 7 C  s              17.8       0.0       0.1       1.0      50.1       0.6
 7 C  px              0.0       0.0       0.0       0.3       0.0       0.1
 8 C  s              13.4       0.0       0.9      11.3       0.1       0.4
 8 C  px              0.1       0.0       0.0       0.1       0.2       0.1
 9 H  s               0.0       0.1       0.1       0.0       0.0       0.0
10 H  s               0.0       0.1       0.1       0.0       0.0       0.0
11 H  s               0.0       0.1       0.1       0.0       0.0       0.0
12 H  s               0.0       0.0       0.0       0.1       0.0       0.2
13 H  s               0.0       0.1       0.1       0.0       0.0       0.0
14 H  s               0.0       0.1       0.1       0.0       0.0       0.0
15 H  s               0.0       0.1       0.1       0.0       0.0       0.0

                    348       349       350   
                  21.17726  21.22887  21.62672
                   0.00000   0.00000   0.00000
                  --------  --------  --------
 0 C  s               1.3       0.0       0.0
 1 C  s               0.2       4.7       0.6
 2 C  s               1.3       0.0       0.0
 3 C  s               2.7      32.0      48.4
 3 C  px              0.0       0.1       0.1
 3 C  py              0.6       0.1       0.0
 3 C  dxy             0.3       0.1       0.0
 4 C  s              36.1       1.4      15.4
 4 C  px              0.0       0.3       0.1
 5 C  s               5.3      18.7       5.2
 6 C  s               3.4       8.7       8.9
 7 C  s               2.3      20.8       5.3
 7 C  px              0.1       0.0       0.0
 8 C  s              45.3      11.8      14.7
 8 C  px              0.0       0.2       0.1
20 H  s               0.1       0.1       0.0


                      *****************************
                      * MAYER POPULATION ANALYSIS *
                      *****************************

  NA   - Mulliken gross atomic population
  ZA   - Total nuclear charge
  QA   - Mulliken gross atomic charge
  VA   - Mayer's total valence
  BVA  - Mayer's bonded valence
  FA   - Mayer's free valence

  ATOM       NA         ZA         QA         VA         BVA        FA
  0 C      6.3411     6.0000    -0.3411     3.9106     3.9106    -0.0000
  1 C      6.0368     6.0000    -0.0368     3.8897     3.8897    -0.0000
  2 C      6.3412     6.0000    -0.3412     3.9108     3.9108     0.0000
  3 C      5.7758     6.0000     0.2242     3.6021     3.6021    -0.0000
  4 C      6.2291     6.0000    -0.2291     4.0167     4.0167    -0.0000
  5 C      6.0999     6.0000    -0.0999     3.9420     3.9420     0.0000
  6 C      6.1376     6.0000    -0.1376     3.9685     3.9685     0.0000
  7 C      6.1158     6.0000    -0.1158     3.9795     3.9795     0.0000
  8 C      6.2352     6.0000    -0.2352     3.9800     3.9800    -0.0000
  9 H      0.8812     1.0000     0.1188     0.9774     0.9774    -0.0000
 10 H      0.8970     1.0000     0.1030     0.9793     0.9793    -0.0000
 11 H      0.8889     1.0000     0.1111     0.9732     0.9732     0.0000
 12 H      0.9311     1.0000     0.0689     0.9685     0.9685    -0.0000
 13 H      0.8811     1.0000     0.1189     0.9773     0.9773     0.0000
 14 H      0.8888     1.0000     0.1112     0.9732     0.9732     0.0000
 15 H      0.8971     1.0000     0.1029     0.9793     0.9793     0.0000
 16 H      0.8886     1.0000     0.1114     0.9737     0.9737    -0.0000
 17 H      0.8853     1.0000     0.1147     0.9710     0.9710     0.0000
 18 H      0.8847     1.0000     0.1153     0.9712     0.9712     0.0000
 19 H      0.8850     1.0000     0.1150     0.9716     0.9716     0.0000
 20 H      0.8787     1.0000     0.1213     0.9713     0.9713     0.0000

  Mayer bond orders larger than 0.100000
B(  0-C ,  1-C ) :   0.9917 B(  0-C ,  9-H ) :   0.9813 B(  0-C , 10-H ) :   0.9706 
B(  0-C , 11-H ) :   0.9800 B(  1-C ,  2-C ) :   0.9919 B(  1-C ,  3-C ) :   0.8921 
B(  1-C , 12-H ) :   0.9822 B(  2-C , 13-H ) :   0.9813 B(  2-C , 14-H ) :   0.9801 
B(  2-C , 15-H ) :   0.9706 B(  3-C ,  4-C ) :   1.3998 B(  3-C ,  8-C ) :   1.3366 
B(  4-C ,  5-C ) :   1.4438 B(  4-C , 16-H ) :   0.9668 B(  5-C ,  6-C ) :   1.4302 
B(  5-C , 17-H ) :   0.9760 B(  6-C ,  7-C ) :   1.4144 B(  6-C , 18-H ) :   0.9728 
B(  7-C ,  8-C ) :   1.4787 B(  7-C , 19-H ) :   0.9728 B(  8-C , 20-H ) :   0.9650 


-------
TIMINGS
-------

Total SCF time: 0 days 0 hours 3 min 53 sec 

Total time                  ....     233.448 sec
Sum of individual times     ....     229.343 sec  ( 98.2%)

SCF preparation             ....       0.253 sec  (  0.1%)
Fock matrix formation       ....     227.459 sec  ( 97.4%)
  Startup                   ....       0.062 sec  (  0.0% of F)
  Split-RI-J                ....       9.275 sec  (  4.1% of F)
  Chain of spheres X        ....     198.007 sec  ( 87.1% of F)
  XC integration            ....      23.161 sec  ( 10.2% of F)
    XC Preparation          ....       0.000 sec  (  0.0% of XC)
    Basis function eval.    ....       5.177 sec  ( 22.4% of XC)
    Density eval.           ....       4.791 sec  ( 20.7% of XC)
    XC-Functional eval.     ....       4.748 sec  ( 20.5% of XC)
    XC-Potential eval.      ....       7.512 sec  ( 32.4% of XC)
Diagonalization             ....       0.000 sec  (  0.0%)
Density matrix formation    ....       0.218 sec  (  0.1%)
Total Energy calculation    ....       0.045 sec  (  0.0%)
Population analysis         ....       0.277 sec  (  0.1%)
Orbital Transformation      ....       0.099 sec  (  0.0%)
Orbital Orthonormalization  ....       0.000 sec  (  0.0%)
DIIS solution               ....       0.452 sec  (  0.2%)
  MO trafo                  ....       0.000 sec  (  0.0 % of DIIS)
  Orb grad                  ....       0.000 sec  (  0.0 % of DIIS)
  Energy W gradient         ....       0.000 sec  (  0.0 % of DIIS)
  DIIS error                ....       0.023 sec  (  5.1 % of DIIS)
  DIIS work                 ....       0.366 sec  ( 80.9 % of DIIS)
  Form Q                    ....       0.000 sec  (  0.0 % of DIIS)
  Form QpQm                 ....       0.000 sec  (  0.0 % of DIIS)
  Exp/Cayley                ....       0.000 sec  (  0.0 % of DIIS)
  Orb update                ....       0.000 sec  (  0.0 % of DIIS)
  Wake-sleep                ....       0.012 sec  (  2.7 % of DIIS)
SOSCF solution              ....       0.259 sec  (  0.1%)
  MO trafo                  ....       0.101 sec  ( 38.7 % of SOSCF)
  Orb grad                  ....       0.003 sec  (  1.3 % of SOSCF)
  Rot update                ....       0.061 sec  ( 23.4 % of SOSCF)
  Step                      ....       0.095 sec  ( 36.5 % of SOSCF)
Grid generation             ....       0.279 sec  (  0.1%)
Finished LeanSCF after 233.5 sec

Maximum memory used throughout the entire LEANSCF-calculation: 51.0 MB
------------------   -----------------
gCP correction             0.012517420
------------------   -----------------

-------------------------   --------------------
FINAL SINGLE POINT ENERGY      -350.202754627856
-------------------------   --------------------


------------------------------------------------------------------------------
                              ORCA PROPERTY CALCULATIONS
------------------------------------------------------------------------------

GBWName                                 ... sp_gas.gbw
Number of atoms                         ...     21
Number of basis functions               ...    351
Max core memory                         ...   1024 MB

Electric properties:
Dipole moment                           ... YES
Quadrupole moment                       ...  NO
Static polarizability (Dipole/Dipole)   ...  NO
Static polarizability (Dipole/Quad.)    ...  NO
Static polarizability (Quad./Quad.)     ...  NO
Static polarizability (Velocity)        ...  NO

Atomic electric properties:
Dipole moment                           ...  NO
Quadrupole moment                       ...  NO
Static polarizability                   ...  NO

Choice of electric origin               ... Center of mass
Position of electric origin             ...     0.008946    -0.001542     0.000017

General magnetic properties:
Magnetizability                         ...  NO

EPR properties:
g-Tensor (aka g-matrix)                 ...  NO
Zero-Field splitting spin-orbit         ...  NO
Zero-field splitting spin-spin          ...  NO
Hyperfine couplings                     ...  NO (   0 nuclei)
Quadrupole couplings                    ...  NO (   0 nuclei)
Contact density                         ...  NO (   0 nuclei)

NMR properties:
Chemical shifts                         ...  NO (   0 nuclei)
Spin-rotation constants                 ...  NO (   0 nuclei)
Spin-spin couplings                     ...  NO (   0 nuclei,    0 pairs)

Choice of magnetic origin               ... GIAO
Position of magnetic origin             ...     0.000000     0.000000     0.000000

Properties with geometric perturbations:
SCF Hessian                             ...  NO
IR spectrum                             ...  NO
VCD spectrum                            ...  NO
X-ray spectroscopy properties:
SCF XES/XAS/RIXS spectra                ...  NO


-------------
DIPOLE MOMENT
-------------

Method             : SCF
Type of density    : Electron Density
Multiplicity       :   1
Irrep              :   0
Energy             :  -350.2152720481561801 Eh
Relativity type    : 
Basis              : AO
                                X                 Y                 Z
Electronic contribution:      7.935694342      -0.698405647       0.010380235
Nuclear contribution   :     -8.076147790       0.663773737      -0.010322781
                        -----------------------------------------
Total Dipole Moment    :     -0.140453448      -0.034631910       0.000057455
                        -----------------------------------------
Magnitude (a.u.)       :      0.144660097
Magnitude (Debye)      :      0.367696745



--------------------
Rotational spectrum 
--------------------
 
Rotational constants in cm-1:             0.112052             0.036184             0.033199 
Rotational constants in MHz :          3359.244183          1084.760807           995.275350 

Dipole components along the rotational axes: 
x,y,z [a.u.] :    -0.140449    -0.034652     0.000035 
x,y,z [Debye]:    -0.356992    -0.088077     0.000089 

 

Dipole moment calculation done in   0.0 sec 

Maximum memory used throughout the entire PROP-calculation: 31.7 MB

--------------------------------
SUGGESTED CITATIONS FOR THIS RUN
--------------------------------

Below you find a list of papers that are relevant to this ORCA run
We neither can nor want to force you to cite these papers, but we appreciate if you do
You receive ORCA, which is the product of decades of hard work by many enthusiastic individuals, for free
The only thing we kindly ask in return is that you cite our papers,
We deeply appreciate it, if you show your appreciation for ORCA by not just citing the generic ORCA reference.

Please note that relegating all ORCA citations to the supporting information does *not* help us.
SI sections are not indexed - citations you put there will not count into any citation statistics
But we need these citations in order to attract the funding resources that allow us to do what we are doing

Therefore, if you are a happy ORCA user, please consider citing a few of the papers listed below in the main body of your paper

In addition to the list printed below, the program has created the file sp_gas.bibtex that contains the list in bibtex format
You can import this file easily into all common literature databanks and citation aid programs


List of essential papers. We consider these as the minimum necessary citations

  1. Neese,F.
     Software update: the ORCA program system, version 5.0
     WIRES Comput. Molec. Sci., 2022 12(1)e1606
     doi.org/10.1002/wcms.1606

List of papers to cite with high priority. The work reported in these papers was absolutely
necessary for this run to complete.
Our perspective: the developers of density functionals and basis sets usually get cited in chemistry papers
Good! But without the algorithms to do something with them, the functionals or basis sets would not do anything.
Hence, in our opinion, the algorithm design and method developments papers are equally worthy of getting cited

  1. Neese,F.
     An improvement of the resolution of the identity approximation for the formation of the Coulomb matrix
     J. Comp. Chem., 2003 24(14)1740-1747
     doi.org/10.1002/jcc.10318
  2. Neese,F.; Wennmohs,F.; Hansen,A.; Becker,U.
     Efficient, approximate and parallel Hartree-Fock and hybrid DFT calculations. A 'chain-of-spheres' algorithm for the Hartree-Fock exchange
     Chem. Phys., 2009 356(1-3)98-109
     doi.org/10.1016/j.chemphys.2008.10.036
  3. Helmich-Paris,B.; de Souza,B.; Neese,F.; Izsák,R.
     An improved chain of spheres for exchange algorithm
     J. Chem. Phys., 2021 155 104109
     doi.org/doi: 10.1063/5.0058766.
  4. Neese,F.
     The SHARK Integral Generation and Digestion System
     J. Comp. Chem., 2022  1-16
     doi.org/10.1002/jcc.26942

List of suggested additional citations. These are papers that are important in the 'surrounding' of 
of this run, or papers that preceded the highly important papers. If you like your results we are grateful for a citation.

  1. Izsak,R.; Neese,F.
     An overlap fitted chain of spheres exchange method
     J. Chem. Phys., 2011 135 144105
     doi.org/10.1063/1.3646921
  2. Izsak,R.; Hansen,A.; Neese,F.
     The resolution of identity and chain of spheres approximations for the LPNO-CCSD singles Fock term
     Molec. Phys., 2012 110 2413-2417
     doi.org/10.1080/00268976.2012.687466
  3. Neese,F.
     The ORCA program system
     WIRES Comput. Molec. Sci., 2012 2(1)73-78
     doi.org/10.1002/wcms.81
  4. Izsak,R.; Neese,F.; Klopper,W.
     Robust fitting techniques in the chain of spheres approximation to the Fock exchange: The role of the complementary space
     J. Chem. Phys., 2013 139 
     doi.org/10.1063/1.4819264
  5. Neese,F.
     Software update: the ORCA program system, version 4.0
     WIRES Comput. Molec. Sci., 2018 8(1)1-6
     doi.org/10.1002/wcms.1327
  6. Neese,F.; Wennmohs,F.; Becker,U.; Riplinger,C.
     The ORCA quantum chemistry program package
     J. Chem. Phys., 2020 152 Art. No. L224108
     doi.org/10.1063/5.0004608

List of optional additional citations

  1. Neese,F.
     Approximate second-order SCF convergence for spin unrestricted wavefunctions
     Chem. Phys. Lett., 2000 325(1-3)93-98
     doi.org/10.1016/s0009-2614(00)00662-x

Timings for individual modules:

Sum of individual times          ...      237.145 sec (=   3.952 min)
Startup calculation              ...        3.096 sec (=   0.052 min)   1.3 %
SCF iterations                   ...      233.927 sec (=   3.899 min)  98.6 %
Property calculations            ...        0.121 sec (=   0.002 min)   0.1 %
                             ****ORCA TERMINATED NORMALLY****
TOTAL RUN TIME: 0 days 0 hours 3 minutes 57 seconds 789 msec
