
                                 *****************
                                 * O   R   C   A *
                                 *****************

                                            #,                                       
                                            ###                                      
                                            ####                                     
                                            #####                                    
                                            ######                                   
                                           ########,                                 
                                     ,,################,,,,,                         
                               ,,#################################,,                 
                          ,,##########################################,,             
                       ,#########################################, ''#####,          
                    ,#############################################,,   '####,        
                  ,##################################################,,,,####,       
                ,###########''''           ''''###############################       
              ,#####''   ,,,,##########,,,,          '''####'''          '####       
            ,##' ,,,,###########################,,,                        '##       
           ' ,,###''''                  '''############,,,                           
         ,,##''                                '''############,,,,        ,,,,,,###''
      ,#''                                            '''#######################'''  
     '                                                          ''''####''''         
             ,#######,   #######,   ,#######,      ##                                
            ,#'     '#,  ##    ##  ,#'     '#,    #''#        ,####,   ,####,        
            ##       ##  ##   ,#'  ##            #'  '#       #'       #'  '#        
            ##       ##  #######   ##           ,######,      #####,   #    #        
            '#,     ,#'  ##    ##  '#,     ,#' ,#      #,     #,   #   #,  ,#        
             '#######'   ##     ##  '#######'  #'      '#     '####' # '####'        



                #########################################################
                #                        -***-                          #
                #          Department of theory and spectroscopy        #
                #                                                       #
                #                      Frank Neese                      #
                #                                                       #
                #     Directorship, Architecture, Infrastructure        #
                #                    SHARK, DRIVERS                     #
                #        Core code/Algorithms in most modules           #
                #                                                       #
                #        Max Planck Institute fuer Kohlenforschung      #
                #                Kaiser Wilhelm Platz 1                 #
                #                 D-45470 Muelheim/Ruhr                 #
                #                      Germany                          #
                #                                                       #
                #                  All rights reserved                  #
                #                        -***-                          #
                #########################################################


                         Program Version 6.0.0  -   RELEASE  -


 With contributions from (in alphabetic order):
   Daniel Aravena         : Magnetic Suceptibility
   Michael Atanasov       : Ab Initio Ligand Field Theory (pilot matlab implementation)
   Alexander A. Auer      : GIAO ZORA, VPT2 properties, NMR spectrum
   Ute Becker             : All parallelization in ORCA, NUMFREQ, NUMCALC
   Giovanni Bistoni       : ED, misc. LED, open-shell LED, HFLD
   Martin Brehm           : Molecular dynamics
   Dmytro Bykov           : pre 5.0 version of the SCF Hessian
   Marcos Casanova-Páez   : Triplet and SCS-CIS(D). UHF-(DLPNO)-IP/EA/STEOM-CCSD. UHF-CVS-IP/STEOM-CCSD
   Vijay G. Chilkuri      : MRCI spin determinant printing, contributions to CSF-ICE
   Pauline Colinet        : FMM embedding
   Dipayan Datta          : RHF DLPNO-CCSD density
   Achintya Kumar Dutta   : EOM-CC, STEOM-CC
   Nicolas Foglia         : Exact transition moments, OPA infrastructure, MCD improvements
   Dmitry Ganyushin       : Spin-Orbit,Spin-Spin,Magnetic field MRCI
   Miquel Garcia          : C-PCM and meta-GGA Hessian, CCSD/C-PCM, Gaussian charge scheme
   Tiago L. C. Gouveia    : GS-ROHF, GS-ROCIS
   Yang Guo               : DLPNO-NEVPT2, F12-NEVPT2, CIM, IAO-localization
   Andreas Hansen         : Spin unrestricted coupled pair/coupled cluster methods
   Ingolf Harden          : AUTO-CI MPn and infrastructure 
   Benjamin Helmich-Paris : MC-RPA, TRAH-(SCF,CASSCF), AVAS, COSX integrals, SCF dyn. polar.
   Lee Huntington         : MR-EOM, pCC
   Robert Izsak           : Overlap fitted RIJCOSX, COSX-SCS-MP3, EOM
   Riya Kayal             : Wick's Theorem for AUTO-CI, AUTO-CI UHF-CCSDT
   Emily Kempfer          : AUTO-CI, RHF CISDT and CCSDT
   Christian Kollmar      : KDIIS, OOCD, Brueckner-CCSD(T), CCSD density, CASPT2, CASPT2-K, improved NEVPT2
   Axel Koslowski         : Symmetry handling
   Simone Kossmann        : Meta GGA functionals, TD-DFT gradient, OOMP2, (MP2 Hessian; deprecated post 5.0)
   Lucas Lang             : DCDCAS
   Marvin Lechner         : AUTO-CI (C++ implementation), FIC-MRCC
   Spencer Leger          : CASSCF response
   Dagmar Lenk            : GEPOL surface, SMD, ORCA-2-JSON
   Dimitrios Liakos       : Extrapolation schemes; Compound Job, initial MDCI parallelization
   Dimitrios Manganas     : Further ROCIS development; embedding schemes. LFT, Crystal Embedding
   Dimitrios Pantazis     : SARC Basis sets
   Anastasios Papadopoulos: AUTO-CI, single reference methods and gradients
   Taras Petrenko         : pre 6.0 DFT Hessian and TD-DFT gradient, (ASA, deprecated), ECA, 1-Electron XAS/XES, NRVS
   Peter Pinski           : DLPNO-MP2, DLPNO-MP2 Gradient
   Christoph Reimann      : Effective Core Potentials
   Marius Retegan         : Local ZFS, SOC
   Christoph Riplinger    : Optimizer, TS searches, QM/MM, DLPNO-CCSD(T), (RO)-DLPNO pert. Triples
   Michael Roemelt        : Original ROCIS implementation
   Masaaki Saitow         : Open-shell DLPNO-CCSD energy and density
   Barbara Sandhoefer     : DKH picture change effects
   Kantharuban Sivalingam : CASSCF convergence/infrastructure, NEVPT2 and variants, FIC-MRCI
   Bernardo de Souza      : ESD, SOC TD-DFT
   Georgi Stoychev        : AutoAux, RI-MP2 NMR, DLPNO-MP2 response, X2C
   Van Anh Tran           : RI-MP2 g-tensors
   Willem Van den Heuvel  : Paramagnetic NMR
   Zikuan Wang            : NOTCH, Electric field optimization 
   Frank Wennmohs         : Technical directorship and infrastructure
   Hang Xu                : AUTO-CI-Response properties 


 We gratefully acknowledge several colleagues who have allowed us to
 interface, adapt or use parts of their codes:
   Stefan Grimme, W. Hujo, H. Kruse, P. Pracht,  : VdW corrections, initial TS optimization,
                  C. Bannwarth, S. Ehlert,         DFT functionals, gCP, sTDA/sTD-DF
                  L. Wittmann, M. Mueller
   Ed Valeev, F. Pavosevic, A. Kumar             : LibInt (2-el integral package), F12 methods
   Garnet Chan, S. Sharma, J. Yang, R. Olivares  : DMRG
   Ulf Ekstrom                                   : XCFun DFT Library
   Mihaly Kallay                                 : mrcc  (arbitrary order and MRCC methods)
   Frank Weinhold                                : gennbo (NPA and NBO analysis)
   Simon Mueller                                 : openCOSMO-RS
   Christopher J. Cramer and Donald G. Truhlar   : smd solvation model
   Lars Goerigk                                  : TD-DFT with DH, B97 family of functionals
   V. Asgeirsson, H. Jonsson                     : NEB implementation
   FAccTs GmbH                                   : IRC, NEB, NEB-TS, DLPNO-Multilevel, CI-OPT
                                                   MM, QMMM, 2- and 3-layer-ONIOM, Crystal-QMMM,
                                                   LR-CPCM, SF, NACMEs, symmetry and pop. for TD-DFT,
                                                   nearIR, NL-DFT gradient (VV10), updates on ESD,
                                                   ML-optimized integration grids, MBIS, APM,
                                                   GOAT, DOCKER, SOLVATOR, interface openCOSMO-RS
   S Lehtola, MJT Oliveira, MAL Marques          : LibXC Library
   Liviu Ungur et al                             : ANISO software


 Your calculation uses the libint2 library for the computation of 2-el integrals
 For citations please refer to: http://libint.valeyev.net

 Your ORCA version has been built with support for libXC version: 6.2.2
 For citations please refer to: https://libxc.gitlab.io

 This ORCA versions uses:
   CBLAS   interface :  Fast vector & matrix operations
   LAPACKE interface :  Fast linear algebra routines
   SCALAPACK package :  Parallel linear algebra routines
   Shared memory     :  Shared parallel matrices
   BLAS/LAPACK       :  OpenBLAS 0.3.27  USE64BITINT DYNAMIC_ARCH NO_AFFINITY SkylakeX SINGLE_THREADED
        Core in use  :  SkylakeX
   Copyright (c) 2011-2014, The OpenBLAS Project


Your calculation utilizes the geometrical counterpoise correction gCP
Please cite in your paper:
H.Kruse, S. Grimme J.Chem.Phys., 136, (2012), 154101 
   

Your calculation utilizes the atom-pairwise dispersion correction
based on EEQ partial charges (D4)


================================================================================

----- Orbital basis set information -----
Your calculation utilizes the basis: def2-SV(P)
   F. Weigend and R. Ahlrichs, Phys. Chem. Chem. Phys. 7, 3297 (2005).

----- AuxJ basis set information -----
Your calculation utilizes the auxiliary basis: def2/J
   F. Weigend, Phys. Chem. Chem. Phys. 8, 1057 (2006).

================================================================================
                                        WARNINGS
                       Please study these warnings very carefully!
================================================================================


================================================================================
                                       INPUT FILE
================================================================================
NAME = sp.inp
|  1> ! pbe def2-sv(p) def2/J RI DEFGRID1 loosescf d4 GCP(DFT/SV(P)) printgap
|  2> %output
|  3>     printlevel normal
|  4> end
|  5> * xyz 0 1
|  6> C -2.3023431085 0.0947836996 0.0426683812
|  7> C -1.6599338669 1.299401273 -0.1965992027
|  8> C -0.2796113832 1.3517887447 -0.2455952784
|  9> C 0.4748577761 0.1990881563 -0.0560956758
| 10> C -0.1728448791 -1.0032456046 0.181968385
| 11> C -1.5559302418 -1.0545669862 0.2315979452
| 12> C 1.9792611523 0.2842928621 -0.116892888
| 13> O 2.5712419559 -0.9704892289 0.1407831838
| 14> H -3.3804759913 0.0545868934 0.0811620973
| 15> H -2.2372905699 2.1996896596 -0.3450980144
| 16> H 0.2206393041 2.291278179 -0.4320136612
| 17> H 0.4168902201 -1.8946829409 0.3286424659
| 18> H -2.0493246568 -1.9967565989 0.4179282842
| 19> H 2.2685629432 0.6444502346 -1.1161111982
| 20> H 2.3181295051 1.0263053794 0.6216147122
| 21> H 3.5321660947 -0.8801759224 0.1032196673
| 22> *
| 23> 
| 24>                          ****END OF INPUT****
================================================================================

                       ****************************
                       * Single Point Calculation *
                       ****************************

---------------------------------
CARTESIAN COORDINATES (ANGSTROEM)
---------------------------------
  C     -2.302343    0.094784    0.042668
  C     -1.659934    1.299401   -0.196599
  C     -0.279611    1.351789   -0.245595
  C      0.474858    0.199088   -0.056096
  C     -0.172845   -1.003246    0.181968
  C     -1.555930   -1.054567    0.231598
  C      1.979261    0.284293   -0.116893
  O      2.571242   -0.970489    0.140783
  H     -3.380476    0.054587    0.081162
  H     -2.237291    2.199690   -0.345098
  H      0.220639    2.291278   -0.432014
  H      0.416890   -1.894683    0.328642
  H     -2.049325   -1.996757    0.417928
  H      2.268563    0.644450   -1.116111
  H      2.318130    1.026305    0.621615
  H      3.532166   -0.880176    0.103220

----------------------------
CARTESIAN COORDINATES (A.U.)
----------------------------
  NO LB      ZA    FRAG     MASS         X           Y           Z
   0 C     6.0000    0    12.011   -4.350798    0.179115    0.080632
   1 C     6.0000    0    12.011   -3.136820    2.455513   -0.371519
   2 C     6.0000    0    12.011   -0.528389    2.554511   -0.464108
   3 C     6.0000    0    12.011    0.897351    0.376222   -0.106005
   4 C     6.0000    0    12.011   -0.326629   -1.895859    0.343870
   5 C     6.0000    0    12.011   -2.940282   -1.992843    0.437657
   6 C     6.0000    0    12.011    3.740262    0.537236   -0.220896
   7 O     8.0000    0    15.999    4.858943   -1.833959    0.266042
   8 H     1.0000    0     1.008   -6.388174    0.103154    0.153374
   9 H     1.0000    0     1.008   -4.227866    4.156811   -0.652141
  10 H     1.0000    0     1.008    0.416948    4.329888   -0.816388
  11 H     1.0000    0     1.008    0.787808   -3.580432    0.621044
  12 H     1.0000    0     1.008   -3.872662   -3.773323    0.789770
  13 H     1.0000    0     1.008    4.286963    1.217834   -2.109144
  14 H     1.0000    0     1.008    4.380630    1.939436    1.174682
  15 H     1.0000    0     1.008    6.674827   -1.663291    0.195057

--------------------------------
INTERNAL COORDINATES (ANGSTROEM)
--------------------------------
 C      0   0   0     0.000000000000     0.00000000     0.00000000
 C      1   0   0     1.386016633574     0.00000000     0.00000000
 C      2   1   0     1.382184944800   120.12773341     0.00000000
 C      3   2   1     1.390630237776   120.36846184     0.00000000
 C      4   3   2     1.386289904456   119.26362750     0.02567234
 C      1   2   3     1.383413729395   119.70759307   359.97321601
 C      4   3   2     1.508040338063   119.26844035   179.90361434
 O      7   4   3     1.411140080114   111.15499120   178.09433477
 H      1   2   3     1.079568461184   120.09221794   179.97849639
 H      2   1   3     1.079773975711   120.03725297   180.00880650
 H      3   2   1     1.080575291570   120.09222716   180.01000812
 H      5   4   3     1.078870380438   118.98491742   180.01801203
 H      6   1   2     1.079758449962   120.13106847   180.03317402
 H      7   4   3     1.100838812280   108.49646835   299.50253135
 H      7   4   3     1.100367125969   108.55767274    56.53508568
 H      8   7   4     0.965889595985   109.09315393   180.55876781

---------------------------
INTERNAL COORDINATES (A.U.)
---------------------------
 C      0   0   0     0.000000000000     0.00000000     0.00000000
 C      1   0   0     2.619191854513     0.00000000     0.00000000
 C      2   1   0     2.611951012102   120.12773341     0.00000000
 C      3   2   1     2.627910302947   120.36846184     0.00000000
 C      4   3   2     2.619708261642   119.26362750     0.02567234
 C      1   2   3     2.614273078462   119.70759307   359.97321601
 C      4   3   2     2.849783237844   119.26844035   179.90361434
 O      7   4   3     2.666668288015   111.15499120   178.09433477
 H      1   2   3     2.040088734456   120.09221794   179.97849639
 H      2   1   3     2.040477100629   120.03725297   180.00880650
 H      3   2   1     2.041991368149   120.09222716   180.01000812
 H      5   4   3     2.038769553027   118.98491742   180.01801203
 H      6   1   2     2.040447761216   120.13106847   180.03317402
 H      7   4   3     2.080283872801   108.49646835   299.50253135
 H      7   4   3     2.079392514851   108.55767274    56.53508568
 H      8   7   4     1.825266812015   109.09315393   180.55876781

---------------------
BASIS SET INFORMATION
---------------------
There are 3 groups of distinct atoms

 Group   1 Type C   : 7s4p1d contracted to 3s2p1d pattern {511/31/1}
 Group   2 Type O   : 7s4p1d contracted to 3s2p1d pattern {511/31/1}
 Group   3 Type H   : 4s contracted to 2s pattern {31}

Atom   0C    basis set group =>   1
Atom   1C    basis set group =>   1
Atom   2C    basis set group =>   1
Atom   3C    basis set group =>   1
Atom   4C    basis set group =>   1
Atom   5C    basis set group =>   1
Atom   6C    basis set group =>   1
Atom   7O    basis set group =>   2
Atom   8H    basis set group =>   3
Atom   9H    basis set group =>   3
Atom  10H    basis set group =>   3
Atom  11H    basis set group =>   3
Atom  12H    basis set group =>   3
Atom  13H    basis set group =>   3
Atom  14H    basis set group =>   3
Atom  15H    basis set group =>   3
---------------------------------
AUXILIARY/J BASIS SET INFORMATION
---------------------------------
There are 3 groups of distinct atoms

 Group   1 Type C   : 12s5p4d2f1g contracted to 6s4p3d1f1g pattern {711111/2111/211/2/1}
 Group   2 Type O   : 12s5p4d2f1g contracted to 6s4p3d1f1g pattern {711111/2111/211/2/1}
 Group   3 Type H   : 5s2p1d contracted to 3s1p1d pattern {311/2/1}

Atom   0C    basis set group =>   1
Atom   1C    basis set group =>   1
Atom   2C    basis set group =>   1
Atom   3C    basis set group =>   1
Atom   4C    basis set group =>   1
Atom   5C    basis set group =>   1
Atom   6C    basis set group =>   1
Atom   7O    basis set group =>   2
Atom   8H    basis set group =>   3
Atom   9H    basis set group =>   3
Atom  10H    basis set group =>   3
Atom  11H    basis set group =>   3
Atom  12H    basis set group =>   3
Atom  13H    basis set group =>   3
Atom  14H    basis set group =>   3
Atom  15H    basis set group =>   3
------------------------------------------------------------------------------
                             ORCA STARTUP CALCULATIONS
                           -- RI-GTO INTEGRALS CHOSEN --
------------------------------------------------------------------------------
------------------------------------------------------------------------------
                   ___                                                        
                  /   \      - P O W E R E D   B Y -                         
                 /     \                                                     
                 |  |  |   _    _      __       _____    __    __             
                 |  |  |  | |  | |    /  \     |  _  \  |  |  /  |          
                  \  \/   | |  | |   /    \    | | | |  |  | /  /          
                 / \  \   | |__| |  /  /\  \   | |_| |  |  |/  /          
                |  |  |   |  __  | /  /__\  \  |    /   |      \           
                |  |  |   | |  | | |   __   |  |    \   |  |\   \          
                \     /   | |  | | |  |  |  |  | |\  \  |  | \   \       
                 \___/    |_|  |_| |__|  |__|  |_| \__\ |__|  \__/        
                                                                              
                      - O R C A' S   B I G   F R I E N D -                    
                                      &                                       
                       - I N T E G R A L  F E E D E R -                       
                                                                              
 v1 FN, 2020, v2 2021, v3 2022-2024                                           
------------------------------------------------------------------------------


----------------------
SHARK INTEGRAL PACKAGE
----------------------

Number of atoms                             ...     16
Number of basis functions                   ...    128
Number of shells                            ...     64
Maximum angular momentum                    ...      2
Integral batch strategy                     ... SHARK/LIBINT Hybrid
RI-J (if used) integral strategy            ... SPLIT-RIJ (Revised 2003 algorithm where possible)
Printlevel                                  ...      1
Contraction scheme used                     ... SEGMENTED contraction
Prescreening option                         ... SCHWARTZ
   Thresh                                   ... 1.000e-09
   Tcut                                     ... 1.000e-10
   Tpresel                                  ... 1.000e-10 
Coulomb Range Separation                    ... NOT USED
Exchange Range Separation                   ... NOT USED
Multipole approximations                    ... NOT USED
Finite Nucleus Model                        ... NOT USED
CABS basis                                  ... NOT available
Auxiliary Coulomb fitting basis             ... AVAILABLE
   # of basis functions in Aux-J            ...    480
   # of shells in Aux-J                     ...    160
   Maximum angular momentum in Aux-J        ...      4
Auxiliary J/K fitting basis                 ... NOT available
Auxiliary Correlation fitting basis         ... NOT available
Auxiliary 'external' fitting basis          ... NOT available

Checking pre-screening integrals            ... done (  0.0 sec) Dimension = 64
Check shell pair data                       ... done (  0.0 sec)
Shell pair information
Shell pair cut-off parameter TPreSel        ...   1.0e-10
Total number of shell pairs                 ...      2080
Shell pairs after pre-screening             ...      1968
Total number of primitive shell pairs       ...      8384
Primitive shell pairs kept                  ...      5696
          la=0 lb=0:    763 shell pairs
          la=1 lb=0:    617 shell pairs
          la=1 lb=1:    134 shell pairs
          la=2 lb=0:    296 shell pairs
          la=2 lb=1:    124 shell pairs
          la=2 lb=2:     34 shell pairs

Calculating one electron integrals          ... done (  0.0 sec)
Calculating RI/J V-Matrix + Cholesky decomp.... done (  0.1 sec)
Calculating Nuclear repulsion               ... done (  0.0 sec) ENN=    342.640479065344 Eh

Diagonalization of the overlap matrix:
Smallest eigenvalue                        ... 2.801e-04
Time for diagonalization                   ...    0.001 sec
Threshold for overlap eigenvalues          ... 1.000e-07
Number of eigenvalues below threshold      ... 0
Time for construction of square roots      ...    0.011 sec
Total time needed                          ...    0.020 sec

-------------------
DFT GRID GENERATION
-------------------

General Integration Accuracy     IntAcc      ... 4.159
Radial Grid Type                 RadialGrid  ... OptM3 with GC (2021)
Angular Grid (max. ang.)         AngularGrid ... 3 (Lebedev-194)
Angular grid pruning method      GridPruning ... 4 (adaptive)
Weight generation scheme         WeightScheme... mBecke (2022)
Basis function cutoff            BFCut       ... 1.0000e-10
Integration weight cutoff        WCut        ... 1.0000e-14
Partially contracted basis set               ... off
Rotationally invariant grid construction     ... off
Angular grids for H and He will be reduced by one unit

Total number of grid points                  ...    37449
Total number of batches                      ...      594
Average number of points per batch           ...       63
Average number of grid points per atom       ...     2341
Initializing property integral containers    ... done (  0.0 sec)

SHARK setup successfully completed in   0.5 seconds

Maximum memory used throughout the entire STARTUP-calculation: 18.2 MB
-------------------------------------------------------------------------------
                                 ORCA GUESS
                   Start orbitals & Density for SCF / CASSCF
-------------------------------------------------------------------------------

------------
SCF SETTINGS
------------
Hamiltonian:
 Density Functional     Method          .... DFT(GTOs)
 Exchange Functional    Exchange        .... PBE
   PBE kappa parameter   XKappa         ....  0.804000
   PBE mue parameter    XMuePBE         ....  0.219520
 Correlation Functional Correlation     .... PBE
   PBE beta parameter  CBetaPBE         ....  0.066725
 LDA part of GGA corr.  LDAOpt          .... PW91-LDA
 Gradients option       PostSCFGGA      .... off
   NL short-range parameter             ....  6.400000
 RI-approximation to the Coulomb term is turned on
   Number of AuxJ basis functions       .... 480


General Settings:
 Integral files         IntName         .... sp
 Hartree-Fock type      HFTyp           .... RHF
 Total Charge           Charge          ....    0
 Multiplicity           Mult            ....    1
 Number of Electrons    NEL             ....   58
 Basis Dimension        Dim             ....  128
 Nuclear Repulsion      ENuc            ....    342.6404790653 Eh

Convergence Acceleration:
 AO-DIIS                CNVDIIS         .... on
   Start iteration      DIISMaxIt       ....    12
   Startup error        DIISStart       ....  0.200000
   # of expansion vecs  DIISMaxEq       ....     5
   Bias factor          DIISBfac        ....   1.050
   Max. coefficient     DIISMaxC        ....  10.000
 MO-DIIS                CNVKDIIS        .... off
 Trust-Rad. Augm. Hess. CNVTRAH         .... auto
   Auto Start mean grad. ratio tolernc. ....  1.125000
   Auto Start start iteration           ....    50
   Auto Start num. interpolation iter.  ....    10
   Max. Number of Micro iterations      ....    24
   Max. Number of Macro iterations      .... Maxiter - #DIIS iter
   Number of Davidson start vectors     ....     2
   Converg. threshold    (grad. norm)   ....   1.000e-04
   Grad. Scal. Fac. for Micro threshold ....   0.100
   Minimum threshold for Micro iter.    ....   1.000e-02
   NR start threshold (gradient norm)   ....   1.000e-04
   Initial trust radius                 ....   0.400
   Minimum AH scaling param. (alpha)    ....   1.000
   Maximum AH scaling param. (alpha)    .... 1000.000
   Quad. conv. algorithm                .... NR
   White noise on init. David. guess    .... on
   Maximum white noise                  ....   0.010
   Pseudo random numbers                .... off
   Inactive MOs                         .... canonical
   Orbital update algorithm             .... Taylor
   Preconditioner                       .... Diag
   Full preconditioner red. dimension   ....   250
 SOSCF                  CNVSOSCF        .... on
   Start iteration      SOSCFMaxIt      ....   150
   Startup grad/error   SOSCFStart      ....  0.003300
   Hessian update       SOSCFHessUp     .... L-BFGS
 Level Shifting         CNVShift        .... on
   Level shift para.    LevelShift      ....    0.2500
   Turn off err/grad.   ShiftErr        ....    0.0010
 Zerner damping         CNVZerner       .... off
 Static damping         CNVDamp         .... on
   Fraction old density DampFac         ....    0.7000
   Max. Damping (<1)    DampMax         ....    0.9800
   Min. Damping (>=0)   DampMin         ....    0.0000
   Turn off err/grad.   DampErr         ....    0.1000

SCF Procedure:
 Maximum # iterations   MaxIter         ....   125
 SCF integral mode      SCFMode         .... Direct
   Integral package                     .... SHARK and LIBINT hybrid scheme
 Reset frequency        DirectResetFreq ....    20
 Integral Threshold     Thresh          ....  1.000e-09 Eh
 Primitive CutOff       TCut            ....  1.000e-10 Eh

Convergence Tolerance:
 Convergence Check Mode ConvCheckMode   .... Total+1el-Energy
 Convergence forced     ConvForced      .... 0
 Energy Change          TolE            ....  1.000e-05 Eh
 1-El. energy change                    ....  1.000e-02 Eh
 Orbital Gradient       TolG            ....  1.000e-04
 Orbital Rotation angle TolX            ....  1.000e-04
 DIIS Error             TolErr          ....  5.000e-04

------------------------------
INITIAL GUESS: MODEL POTENTIAL
------------------------------
Loading Hartree-Fock densities                     ... done
Calculating cut-offs                               ... done
Initializing the effective Hamiltonian             ... done
Setting up the integral package (SHARK)            ... done
Starting the Coulomb interaction                   ... done (   0.1 sec)
Making the grid                                    ... done (   0.2 sec)
Mapping shells                                     ... done
Starting the XC term evaluation                    ... done (   0.1 sec)
  promolecular density results
     # of electrons  =     57.998543318
     EX              =    -46.325320931
     EC              =     -1.916766259
     EX+EC           =    -48.242087190
Transforming the Hamiltonian                       ... done (   0.0 sec)
Diagonalizing the Hamiltonian                      ... done (   0.0 sec)
Back transforming the eigenvectors                 ... done (   0.0 sec)
Now organizing SCF variables                       ... done
                      ------------------
                      INITIAL GUESS DONE (   0.4 sec)
                      ------------------
             **** ENERGY FILE WAS UPDATED (sp.en.tmp) ****
Finished Guess after   0.5 sec
Maximum memory used throughout the entire GUESS-calculation: 14.2 MB

-------------------------------------------------------------------------------------------
                                      ORCA LEAN-SCF
                              memory conserving SCF solver
-------------------------------------------------------------------------------------------

----------------------------------------D-I-I-S--------------------------------------------
Iteration    Energy (Eh)           Delta-E    RMSDP     MaxDP     DIISErr   Damp  Time(sec)
-------------------------------------------------------------------------------------------
               ***  Starting incremental Fock matrix formation  ***
    1    -345.8835205029340614     0.00e+00  4.68e-03  7.20e-02  2.43e-01  0.700   0.6
    2    -345.9669509536339547    -8.34e-02  3.21e-03  4.64e-02  9.66e-02  0.700   0.6
                               ***Turning on AO-DIIS***
    3    -345.9969951102256118    -3.00e-02  1.23e-03  1.33e-02  1.98e-02  0.700   0.6
    4    -346.0149967279749035    -1.80e-02  2.16e-03  2.41e-02  9.79e-03  0.000   0.8
    5    -346.0554558028396741    -4.05e-02  4.90e-04  8.50e-03  7.63e-03  0.000   0.6
                              *** Initializing SOSCF ***
---------------------------------------S-O-S-C-F--------------------------------------
Iteration    Energy (Eh)           Delta-E    RMSDP     MaxDP     MaxGrad    Time(sec)
--------------------------------------------------------------------------------------
    6    -346.0557512417325370    -2.95e-04  1.74e-04  1.92e-03  1.12e-03     0.6
               *** Restarting incremental Fock matrix formation ***
    7    -346.0557677806900756    -1.65e-05  1.19e-04  2.12e-03  2.21e-04     0.6
    8    -346.0557667156614343     1.07e-06  4.16e-05  8.24e-04  4.28e-04     0.5
                 **** Energy Check signals convergence ****

               *****************************************************
               *                     SUCCESS                       *
               *           SCF CONVERGED AFTER   8 CYCLES          *
               *****************************************************

             **** ENERGY FILE WAS UPDATED (sp.en.tmp) ****

----------------
TOTAL SCF ENERGY
----------------

Total Energy       :       -346.05576671566143 Eh           -9416.65615 eV

Components:
Nuclear Repulsion  :        342.64047906534449 Eh            9323.72144 eV
Electronic Energy  :       -688.69624578100593 Eh          -18740.37759 eV
One Electron Energy:      -1147.36979641285461 Eh          -31221.51943 eV
Two Electron Energy:        458.67355063184874 Eh           12481.14184 eV

Virial components:
Potential Energy   :       -689.28165480494090 Eh          -18756.30738 eV
Kinetic Energy     :        343.22588808927952 Eh            9339.65123 eV
Virial Ratio       :          2.00824494516464

DFT components:
N(Alpha)           :       29.000007175874 electrons
N(Beta)            :       29.000007175874 electrons
N(Total)           :       58.000014351748 electrons
E(X)               :      -47.189658739914 Eh       
E(C)               :       -1.932732768506 Eh       
E(XC)              :      -49.122391508420 Eh       

---------------
SCF CONVERGENCE
---------------

  Last Energy change         ...   -1.0650e-06  Tolerance :   1.0000e-05
  Last MAX-Density change    ...    8.2404e-04  Tolerance :   1.0000e-03
  Last RMS-Density change    ...    4.1577e-05  Tolerance :   1.0000e-04
  Last DIIS Error            ...    1.1168e-03  Tolerance :   5.0000e-04
  Last Orbital Gradient      ...    4.2805e-04  Tolerance :   1.0000e-04
  Last Orbital Rotation      ...    5.8115e-04  Tolerance :   1.0000e-04


----------------
ORBITAL ENERGIES
----------------

  NO   OCC          E(Eh)            E(eV) 
   0   2.0000     -18.749715      -510.2057 
   1   2.0000      -9.939536      -270.4685 
   2   2.0000      -9.897511      -269.3250 
   3   2.0000      -9.887309      -269.0473 
   4   2.0000      -9.887053      -269.0404 
   5   2.0000      -9.886029      -269.0125 
   6   2.0000      -9.885009      -268.9848 
   7   2.0000      -9.882163      -268.9073 
   8   2.0000      -0.926482       -25.2108 
   9   2.0000      -0.771969       -21.0064 
  10   2.0000      -0.687131       -18.6978 
  11   2.0000      -0.663979       -18.0678 
  12   2.0000      -0.603983       -16.4352 
  13   2.0000      -0.540775       -14.7152 
  14   2.0000      -0.516631       -14.0582 
  15   2.0000      -0.465541       -12.6680 
  16   2.0000      -0.459257       -12.4970 
  17   2.0000      -0.409338       -11.1387 
  18   2.0000      -0.396946       -10.8015 
  19   2.0000      -0.389038       -10.5863 
  20   2.0000      -0.371718       -10.1150 
  21   2.0000      -0.367609       -10.0032 
  22   2.0000      -0.321423        -8.7464 
  23   2.0000      -0.308119        -8.3843 
  24   2.0000      -0.294480        -8.0132 
  25   2.0000      -0.280762        -7.6399 
  26   2.0000      -0.232400        -6.3239 
  27   2.0000      -0.222904        -6.0655 
  28   2.0000      -0.208167        -5.6645 
  29   0.0000      -0.031279        -0.8512 
  30   0.0000      -0.025110        -0.6833 
  31   0.0000       0.023372         0.6360 
  32   0.0000       0.051113         1.3909 
  33   0.0000       0.069830         1.9002 
  34   0.0000       0.093289         2.5385 
  35   0.0000       0.095713         2.6045 
  36   0.0000       0.107862         2.9351 
  37   0.0000       0.128532         3.4975 
  38   0.0000       0.145114         3.9487 
  39   0.0000       0.148679         4.0458 
*Only the first 10 virtual orbitals were printed.

                    ********************************
                    * MULLIKEN POPULATION ANALYSIS *
                    ********************************

-----------------------
MULLIKEN ATOMIC CHARGES
-----------------------
   0 C :   -0.050028
   1 C :   -0.047836
   2 C :   -0.108250
   3 C :    0.009059
   4 C :   -0.104149
   5 C :   -0.042931
   6 C :    0.058833
   7 O :   -0.425651
   8 H :    0.049858
   9 H :    0.049384
  10 H :    0.034206
  11 H :    0.056026
  12 H :    0.050467
  13 H :    0.084112
  14 H :    0.082997
  15 H :    0.303903
Sum of atomic charges:    0.0000000

--------------------------------
MULLIKEN REDUCED ORBITAL CHARGES
--------------------------------
  0 C s       :     3.179911  s :     3.179911
      pz      :     1.000073  p :     2.835186
      px      :     0.846221
      py      :     0.988893
      dz2     :     0.003431  d :     0.034930
      dxz     :     0.002219
      dyz     :     0.006313
      dx2y2   :     0.014055
      dxy     :     0.008912

  1 C s       :     3.182081  s :     3.182081
      pz      :     0.992039  p :     2.830545
      px      :     0.948074
      py      :     0.890431
      dz2     :     0.003167  d :     0.035211
      dxz     :     0.005722
      dyz     :     0.003457
      dx2y2   :     0.009842
      dxy     :     0.013023

  2 C s       :     3.255394  s :     3.255394
      pz      :     1.008879  p :     2.818536
      px      :     0.930198
      py      :     0.879459
      dz2     :     0.003038  d :     0.034320
      dxz     :     0.005788
      dyz     :     0.003196
      dx2y2   :     0.009876
      dxy     :     0.012421

  3 C s       :     3.024562  s :     3.024562
      pz      :     0.985400  p :     2.926351
      px      :     0.979896
      py      :     0.961055
      dz2     :     0.003117  d :     0.040028
      dxz     :     0.006296
      dyz     :     0.006602
      dx2y2   :     0.013226
      dxy     :     0.010786

  4 C s       :     3.273691  s :     3.273691
      pz      :     0.988922  p :     2.796140
      px      :     0.879768
      py      :     0.927450
      dz2     :     0.003168  d :     0.034318
      dxz     :     0.005331
      dyz     :     0.003416
      dx2y2   :     0.009430
      dxy     :     0.012973

  5 C s       :     3.184758  s :     3.184758
      pz      :     0.987613  p :     2.822962
      px      :     0.957701
      py      :     0.877647
      dz2     :     0.002973  d :     0.035212
      dxz     :     0.005911
      dyz     :     0.003320
      dx2y2   :     0.010560
      dxy     :     0.012448

  6 C s       :     2.975555  s :     2.975555
      pz      :     1.037705  p :     2.902123
      px      :     1.035184
      py      :     0.829234
      dz2     :     0.009629  d :     0.063488
      dxz     :     0.007521
      dyz     :     0.017493
      dx2y2   :     0.015157
      dxy     :     0.013688

  7 O s       :     3.784254  s :     3.784254
      pz      :     1.905800  p :     4.626094
      px      :     1.250222
      py      :     1.470073
      dz2     :     0.002709  d :     0.015303
      dxz     :     0.000517
      dyz     :     0.002260
      dx2y2   :     0.007513
      dxy     :     0.002304

  8 H s       :     0.950142  s :     0.950142

  9 H s       :     0.950616  s :     0.950616

 10 H s       :     0.965794  s :     0.965794

 11 H s       :     0.943974  s :     0.943974

 12 H s       :     0.949533  s :     0.949533

 13 H s       :     0.915888  s :     0.915888

 14 H s       :     0.917003  s :     0.917003

 15 H s       :     0.696097  s :     0.696097


------------------------
MULLIKEN OVERLAP CHARGES
------------------------
B(  0-C ,  1-C ) :   0.2656 B(  0-C ,  2-C ) :   0.3632 B(  0-C ,  3-C ) :  -0.4439 
B(  0-C ,  4-C ) :   0.3783 B(  0-C ,  5-C ) :   0.2402 B(  0-C ,  8-H ) :   0.8811 
B(  0-C ,  9-H ) :  -0.1819 B(  0-C , 12-H ) :  -0.1852 B(  1-C ,  2-C ) :   0.3576 
B(  1-C ,  3-C ) :   0.3878 B(  1-C ,  4-C ) :  -0.4010 B(  1-C ,  5-C ) :   0.3683 
B(  1-C ,  8-H ) :  -0.1771 B(  1-C ,  9-H ) :   0.8892 B(  1-C , 10-H ) :  -0.1701 
B(  2-C ,  3-C ) :   0.2213 B(  2-C ,  4-C ) :   0.2950 B(  2-C ,  5-C ) :  -0.4153 
B(  2-C ,  6-C ) :  -0.1661 B(  2-C ,  9-H ) :  -0.1857 B(  2-C , 10-H ) :   0.8753 
B(  3-C ,  4-C ) :   0.3853 B(  3-C ,  5-C ) :   0.3725 B(  3-C ,  6-C ) :   0.5100 
B(  3-C ,  7-O ) :  -0.1616 B(  3-C , 10-H ) :  -0.1904 B(  3-C , 11-H ) :  -0.1608 
B(  3-C , 13-H ) :  -0.0624 B(  3-C , 14-H ) :  -0.0692 B(  4-C ,  5-C ) :   0.2130 
B(  4-C ,  6-C ) :  -0.2180 B(  4-C , 11-H ) :   0.8706 B(  4-C , 12-H ) :  -0.1855 
B(  5-C ,  8-H ) :  -0.1763 B(  5-C , 11-H ) :  -0.1829 B(  5-C , 12-H ) :   0.8926 
B(  6-C ,  7-O ) :   0.7293 B(  6-C , 11-H ) :  -0.0544 B(  6-C , 13-H ) :   0.7031 
B(  6-C , 14-H ) :   0.7065 B(  6-C , 15-H ) :  -0.0555 B(  7-O , 11-H ) :   0.0533 
B(  7-O , 13-H ) :  -0.0640 B(  7-O , 14-H ) :  -0.0637 B(  7-O , 15-H ) :   0.5139 
B( 13-H , 14-H ) :  -0.1039 


                     *******************************
                     * LOEWDIN POPULATION ANALYSIS *
                     *******************************

----------------------
LOEWDIN ATOMIC CHARGES
----------------------
   0 C :   -0.129681
   1 C :   -0.122823
   2 C :   -0.124373
   3 C :   -0.056428
   4 C :   -0.120413
   5 C :   -0.120654
   6 C :   -0.106137
   7 O :   -0.338570
   8 H :    0.121563
   9 H :    0.121992
  10 H :    0.119031
  11 H :    0.129600
  12 H :    0.122476
  13 H :    0.107400
  14 H :    0.106936
  15 H :    0.290081

-------------------------------
LOEWDIN REDUCED ORBITAL CHARGES
-------------------------------
  0 C s       :     2.891010  s :     2.891010
      pz      :     0.995668  p :     3.146621
      px      :     1.062326
      py      :     1.088628
      dz2     :     0.007652  d :     0.092050
      dxz     :     0.004073
      dyz     :     0.014477
      dx2y2   :     0.038027
      dxy     :     0.027820

  1 C s       :     2.890067  s :     2.890067
      pz      :     0.988590  p :     3.139955
      px      :     1.082848
      py      :     1.068518
      dz2     :     0.007186  d :     0.092801
      dxz     :     0.012682
      dyz     :     0.007077
      dx2y2   :     0.029752
      dxy     :     0.036103

  2 C s       :     2.888834  s :     2.888834
      pz      :     1.007413  p :     3.144217
      px      :     1.078134
      py      :     1.058670
      dz2     :     0.006854  d :     0.091322
      dxz     :     0.012675
      dyz     :     0.006369
      dx2y2   :     0.029977
      dxy     :     0.035446

  3 C s       :     2.857410  s :     2.857410
      pz      :     0.965030  p :     3.091940
      px      :     1.036257
      py      :     1.090654
      dz2     :     0.007943  d :     0.107077
      dxz     :     0.011672
      dyz     :     0.014666
      dx2y2   :     0.039876
      dxy     :     0.032921

  4 C s       :     2.890133  s :     2.890133
      pz      :     0.990303  p :     3.139493
      px      :     1.075978
      py      :     1.073211
      dz2     :     0.007086  d :     0.090788
      dxz     :     0.011680
      dyz     :     0.006982
      dx2y2   :     0.028841
      dxy     :     0.036198

  5 C s       :     2.890592  s :     2.890592
      pz      :     0.983902  p :     3.137119
      px      :     1.086782
      py      :     1.066435
      dz2     :     0.006845  d :     0.092943
      dxz     :     0.013006
      dyz     :     0.006560
      dx2y2   :     0.031182
      dxy     :     0.035349

  6 C s       :     2.908766  s :     2.908766
      pz      :     1.100261  p :     3.054130
      px      :     1.044028
      py      :     0.909841
      dz2     :     0.022810  d :     0.143241
      dxz     :     0.014469
      dyz     :     0.040231
      dx2y2   :     0.037549
      dxy     :     0.028182

  7 O s       :     3.540577  s :     3.540577
      pz      :     1.906611  p :     4.771458
      px      :     1.324379
      py      :     1.540468
      dz2     :     0.004294  d :     0.026535
      dxz     :     0.000867
      dyz     :     0.003177
      dx2y2   :     0.013510
      dxy     :     0.004687

  8 H s       :     0.878437  s :     0.878437

  9 H s       :     0.878008  s :     0.878008

 10 H s       :     0.880969  s :     0.880969

 11 H s       :     0.870400  s :     0.870400

 12 H s       :     0.877524  s :     0.877524

 13 H s       :     0.892600  s :     0.892600

 14 H s       :     0.893064  s :     0.893064

 15 H s       :     0.709919  s :     0.709919


---------------------------------
LOEWDIN BOND ORDERS (THRESH 0.050000)
---------------------------------
B(  0-C ,  1-C ) :   1.4909 B(  0-C ,  2-C ) :   0.0867 B(  0-C ,  3-C ) :   0.1156 
B(  0-C ,  4-C ) :   0.0872 B(  0-C ,  5-C ) :   1.5105 B(  0-C ,  8-H ) :   0.8900 
B(  1-C ,  2-C ) :   1.5183 B(  1-C ,  3-C ) :   0.0878 B(  1-C ,  4-C ) :   0.1170 
B(  1-C ,  5-C ) :   0.0865 B(  1-C ,  9-H ) :   0.8886 B(  2-C ,  3-C ) :   1.4335 
B(  2-C ,  4-C ) :   0.0834 B(  2-C ,  5-C ) :   0.1225 B(  2-C ,  6-C ) :   0.0751 
B(  2-C , 10-H ) :   0.8848 B(  3-C ,  4-C ) :   1.4493 B(  3-C ,  5-C ) :   0.0880 
B(  3-C ,  6-C ) :   1.0594 B(  3-C ,  7-O ) :   0.0580 B(  4-C ,  5-C ) :   1.4960 
B(  4-C ,  6-C ) :   0.0695 B(  4-C , 11-H ) :   0.8777 B(  5-C , 12-H ) :   0.8887 
B(  6-C ,  7-O ) :   1.2292 B(  6-C , 13-H ) :   0.9000 B(  6-C , 14-H ) :   0.9006 
B(  7-O , 15-H ) :   0.8870 

------------------------------------------
LOEWDIN REDUCED ORBITAL POPULATIONS PER MO
-------------------------------------------
THRESHOLD FOR PRINTING IS 0.1%%
                      0         1         2         3         4         5   
                 -18.74971  -9.93954  -9.89751  -9.88731  -9.88705  -9.88603
                   2.00000   2.00000   2.00000   2.00000   2.00000   2.00000
                  --------  --------  --------  --------  --------  --------
 0 C  s               0.0       0.0       0.0       0.2       0.2       1.5
 0 C  py              0.0       0.0       0.0       0.1       0.0       0.1
 1 C  s               0.0       0.0       0.0      46.6      52.7       0.0
 2 C  s               0.0       0.0       0.0      52.8      46.7       0.0
 2 C  py              0.0       0.0       0.1       0.0       0.0       0.0
 3 C  s               0.0       0.0      99.5       0.0       0.0       0.0
 3 C  px              0.0       0.1       0.0       0.0       0.0       0.0
 4 C  s               0.0       0.0       0.0       0.0       0.0       0.1
 4 C  px              0.0       0.0       0.0       0.0       0.0       0.1
 4 C  py              0.0       0.0       0.1       0.0       0.0       0.0
 5 C  s               0.0       0.0       0.0       0.0       0.1      97.9
 6 C  s               0.0      99.6       0.0       0.0       0.0       0.0
 6 C  px              0.0       0.0       0.1       0.0       0.0       0.0
 7 O  s              99.9       0.0       0.0       0.0       0.0       0.0

                      6         7         8         9        10        11   
                  -9.88501  -9.88216  -0.92648  -0.77197  -0.68713  -0.66398
                   2.00000   2.00000   2.00000   2.00000   2.00000   2.00000
                  --------  --------  --------  --------  --------  --------
 0 C  s              97.8       0.0       0.0      10.5      14.6       0.1
 0 C  pz              0.0       0.0       0.0       0.0       0.0       0.3
 0 C  px              0.0       0.0       0.0       2.5       0.4       0.0
 0 C  py              0.0       0.0       0.0       0.0       0.0       8.8
 0 C  dz2             0.0       0.0       0.0       0.1       0.1       0.0
 0 C  dxy             0.0       0.0       0.0       0.0       0.0       0.3
 1 C  s               0.3       0.0       0.0      11.2       4.7      15.1
 1 C  px              0.0       0.0       0.0       0.9       2.3       1.5
 1 C  py              0.1       0.0       0.0       1.6       1.8       0.5
 1 C  dz2             0.0       0.0       0.0       0.1       0.0       0.1
 2 C  s               0.0       0.0       0.1      12.9       2.1      13.2
 2 C  px              0.0       0.0       0.0       0.3       5.7       2.4
 2 C  py              0.0       0.0       0.0       2.2       0.9       0.6
 2 C  dz2             0.0       0.0       0.0       0.1       0.0       0.1
 2 C  dx2y2           0.0       0.0       0.0       0.0       0.1       0.1
 2 C  dxy             0.0       0.0       0.0       0.0       0.1       0.0
 3 C  s               0.0       0.0       0.8      14.4      15.1       0.2
 3 C  pz              0.0       0.0       0.0       0.0       0.0       0.3
 3 C  px              0.0       0.0       1.2       1.9       2.1       0.0
 3 C  py              0.0       0.1       0.1       0.0       0.2       9.5
 3 C  dz2             0.0       0.0       0.0       0.2       0.1       0.0
 3 C  dxy             0.0       0.0       0.0       0.0       0.0       0.3
 4 C  s               0.0      99.5       0.1      11.8       0.7      15.4
 4 C  px              0.0       0.0       0.2       0.5       5.1       1.3
 4 C  py              0.0       0.0       0.0       2.2       1.5       0.3
 4 C  dz2             0.0       0.0       0.0       0.1       0.0       0.1
 4 C  dx2y2           0.0       0.0       0.0       0.0       0.1       0.1
 5 C  s               1.5       0.1       0.0      10.6       6.8      12.9
 5 C  px              0.0       0.1       0.0       0.6       1.9       2.4
 5 C  py              0.1       0.0       0.0       1.9       1.3       0.4
 5 C  dz2             0.0       0.0       0.0       0.1       0.1       0.1
 5 C  dx2y2           0.0       0.0       0.0       0.0       0.0       0.1
 6 C  s               0.0       0.0      10.5       1.4       9.8       0.0
 6 C  pz              0.0       0.0       0.3       0.0       0.0       0.0
 6 C  px              0.0       0.0       1.8       2.2       4.0       0.1
 6 C  py              0.0       0.0       6.6       0.1       0.6       0.2
 6 C  dz2             0.0       0.0       0.2       0.0       0.0       0.0
 6 C  dx2y2           0.0       0.0       0.2       0.0       0.1       0.0
 6 C  dxy             0.0       0.0       0.4       0.0       0.0       0.0
 7 O  s               0.0       0.0      59.0       0.6       2.1       0.0
 7 O  pz              0.0       0.0       0.1       0.0       0.0       0.0
 7 O  px              0.0       0.0       0.6       0.3       2.4       0.2
 7 O  py              0.0       0.0       2.7       0.0       0.8       0.0
 8 H  s               0.1       0.0       0.0       1.3       2.8       0.0
 9 H  s               0.0       0.0       0.0       1.4       0.9       3.4
10 H  s               0.0       0.0       0.0       1.7       0.6       3.1
11 H  s               0.0       0.1       0.2       1.4       0.2       3.3
12 H  s               0.0       0.0       0.0       1.3       1.3       2.9
13 H  s               0.0       0.0       1.2       0.2       2.1       0.0
14 H  s               0.0       0.0       1.2       0.3       2.1       0.0
15 H  s               0.0       0.0      12.2       0.3       1.6       0.1

                     12        13        14        15        16        17   
                  -0.60398  -0.54078  -0.51663  -0.46554  -0.45926  -0.40934
                   2.00000   2.00000   2.00000   2.00000   2.00000   2.00000
                  --------  --------  --------  --------  --------  --------
 0 C  s               9.6       0.0       5.5       0.3       1.0       0.0
 0 C  pz              0.0       0.4       0.0       0.1       0.0       0.1
 0 C  px              0.7       0.1       1.4       1.6      13.8       0.0
 0 C  py              0.0      12.5       0.0       3.4       0.3       0.1
 0 C  dxy             0.0       0.2       0.0       0.0       0.0       0.0
 1 C  s               0.1       6.3       3.6       0.4       0.3       0.0
 1 C  pz              0.1       0.0       0.3       0.0       0.1       0.3
 1 C  px              5.5       4.9       1.9       1.2       6.4       0.0
 1 C  py              1.4       0.1       7.9       0.7       4.8       0.0
 1 C  dx2y2           0.1       0.0       0.0       0.0       0.0       0.0
 2 C  s               4.6       5.9       0.7       2.0       0.2       0.0
 2 C  pz              0.0       0.0       0.2       0.1       0.2       1.5
 2 C  px              0.1       5.8       5.5       0.1       4.5       0.0
 2 C  py              0.1       0.3       8.3       2.1       4.4       0.0
 2 C  dx2y2           0.0       0.0       0.2       0.0       0.0       0.0
 3 C  s               0.3       0.1       7.0       0.0       0.8       0.0
 3 C  pz              0.0       0.5       0.0       0.0       0.0       8.1
 3 C  px             12.6       0.1       0.8       0.3       3.6       0.0
 3 C  py              0.1      15.4       0.1       0.1       0.0       0.4
 3 C  dxz             0.0       0.0       0.0       0.0       0.0       0.1
 3 C  dx2y2           0.3       0.0       0.0       0.0       0.1       0.0
 3 C  dxy             0.0       0.1       0.0       0.2       0.0       0.0
 4 C  s               4.6       4.9       1.4       0.7       1.6       0.0
 4 C  pz              0.0       0.0       0.3       0.0       0.1       1.3
 4 C  px              0.0       7.2       3.6       1.9       3.3       0.0
 4 C  py              0.1       0.1       8.6       0.1       5.1       0.0
 4 C  dx2y2           0.0       0.1       0.2       0.0       0.0       0.0
 5 C  s               0.4       7.3       3.1       0.3       0.1       0.0
 5 C  pz              0.0       0.0       0.2       0.0       0.2       0.2
 5 C  px              6.0       3.5       3.4       5.7       0.7       0.0
 5 C  py              0.9       0.4       6.8       0.3       5.7       0.0
 5 C  dx2y2           0.1       0.0       0.0       0.0       0.0       0.0
 6 C  s              18.0       0.0       2.5       1.8       0.3       0.0
 6 C  pz              0.1       0.1       0.0       1.0       0.1      45.9
 6 C  px              0.0       0.2       3.3       3.0       4.0       0.0
 6 C  py              1.3       2.9       0.2      18.9       2.1       2.0
 6 C  dz2             0.0       0.0       0.0       0.2       0.0       0.0
 6 C  dxz             0.0       0.0       0.0       0.0       0.0       0.1
 6 C  dyz             0.0       0.0       0.0       0.1       0.0       0.1
 6 C  dx2y2           0.0       0.0       0.1       0.2       0.2       0.0
 7 O  s               2.4       0.0       0.3       2.1       0.0       0.0
 7 O  pz              0.2       0.0       0.1       0.0       0.2      11.9
 7 O  px              5.8       3.3       2.5      26.2       6.4       0.0
 7 O  py              4.1       0.1       2.4       0.4       5.0       0.6
 7 O  dx2y2           0.1       0.0       0.1       0.1       0.1       0.0
 8 H  s               3.4       0.0       3.3       1.1       6.7       0.0
 9 H  s               0.1       3.6       3.4       0.1       4.1       0.0
10 H  s               0.8       4.1       1.5       2.4       3.3       0.0
11 H  s               1.0       3.1       1.7       0.1       4.9       0.0
12 H  s               0.2       4.2       2.8       1.3       1.9       0.0
13 H  s               5.5       0.3       1.4       5.9       0.0      13.7
14 H  s               5.5       0.4       1.4       6.0       0.0      13.1
15 H  s               3.3       1.0       1.3       7.1       2.9       0.0

                     18        19        20        21        22        23   
                  -0.39695  -0.38904  -0.37172  -0.36761  -0.32142  -0.30812
                   2.00000   2.00000   2.00000   2.00000   2.00000   2.00000
                  --------  --------  --------  --------  --------  --------
 0 C  s               2.8       0.0       0.4       0.0       0.0       0.1
 0 C  pz              0.0       0.5       0.0       0.0      17.3       0.2
 0 C  px              2.6       0.2      16.2       1.4       0.0       8.2
 0 C  py              0.1      14.7       0.0       0.8       0.6       3.0
 0 C  dxz             0.0       0.0       0.0       0.0       0.1       0.0
 0 C  dx2y2           0.5       0.0       0.1       0.0       0.0       0.7
 0 C  dxy             0.0       0.1       0.0       0.5       0.0       0.1
 1 C  s               2.6       0.0       0.2       0.2       0.0       0.1
 1 C  pz              0.1       0.3       0.1       0.2      17.1       0.2
 1 C  px              0.8       8.5       1.5       8.2       0.0       4.8
 1 C  py              4.6       6.0       5.1       6.7       0.6       4.4
 1 C  dx2y2           0.0       0.0       0.1       0.4       0.0       0.2
 1 C  dxy             0.5       0.0       0.1       0.0       0.0       0.1
 2 C  s               2.2       0.0       0.1       0.6       0.0       0.1
 2 C  pz              0.2       0.0       0.1       0.4      14.6       0.1
 2 C  px              1.8      10.0       0.5       6.5       0.0       4.6
 2 C  py              5.7       4.0       3.2       9.9       0.5       2.5
 2 C  dx2y2           0.1       0.0       0.2       0.2       0.0       0.1
 2 C  dxy             0.4       0.0       0.2       0.0       0.0       0.3
 3 C  s               3.4       0.0       0.5       0.0       0.0       0.3
 3 C  pz              0.0       0.7       0.0       0.0      10.1       0.1
 3 C  px              2.3       0.0      14.3       0.6       0.0       0.0
 3 C  py              0.0      15.0       0.0       0.6       0.3       2.0
 3 C  dxz             0.0       0.0       0.0       0.0       0.2       0.0
 3 C  dx2y2           0.3       0.0       0.1       0.0       0.0       0.4
 3 C  dxy             0.0       0.2       0.0       0.4       0.0       0.0
 4 C  s               3.2       0.1       0.1       0.1       0.0       0.0
 4 C  pz              0.1       0.2       0.2       0.2      13.4       0.0
 4 C  px              0.4       9.4       1.5       6.8       0.0       6.4
 4 C  py              3.5       5.4       5.6       7.5       0.5       0.3
 4 C  dx2y2           0.0       0.1       0.1       0.3       0.0       0.1
 4 C  dxy             0.4       0.0       0.2       0.0       0.0       0.1
 5 C  s               2.5       0.0       0.0       0.7       0.0       0.1
 5 C  pz              0.2       0.1       0.1       0.5      16.3       0.1
 5 C  px              3.3       9.4       0.3       4.7       0.0       5.1
 5 C  py              5.5       3.9       4.0      10.9       0.5       1.8
 5 C  dx2y2           0.2       0.0       0.2       0.1       0.0       0.5
 5 C  dxy             0.3       0.0       0.2       0.0       0.0       0.1
 6 C  s               0.0       0.2       0.1       0.0       0.0       0.3
 6 C  pz              0.0       0.0       0.0       0.0       2.3       0.1
 6 C  px              8.7       0.8      11.9       0.9       0.0       1.2
 6 C  py              0.2       1.0       0.8       0.3       0.1       2.3
 6 C  dxz             0.0       0.0       0.0       0.0       0.1       0.0
 6 C  dx2y2           0.1       0.0       0.0       0.0       0.0       0.1
 6 C  dxy             0.0       0.2       0.1       0.0       0.0       0.0
 7 O  s               0.2       1.2       0.8       0.1       0.0       3.7
 7 O  pz              0.1       0.0       0.7       0.0       2.5       1.0
 7 O  px              0.3       4.0       0.1       0.0       0.0       4.7
 7 O  py              2.2       0.1      13.1       0.0       0.1      18.7
 8 H  s               4.8       0.2       7.4       0.8       0.0       7.7
 9 H  s               7.0       0.1       3.1       7.2       0.0       0.2
10 H  s               9.0       0.1       0.7       7.1       0.0       5.3
11 H  s               5.6       0.0       3.8       6.9       0.0       0.1
12 H  s               9.4       0.1       1.3       6.6       0.0       5.1
13 H  s               0.6       0.5       0.0       0.2       1.1       0.6
14 H  s               0.5       1.0       0.0       0.2       1.0       0.6
15 H  s               0.3       1.1       0.3       0.0       0.0       1.0

                     24        25        26        27        28        29   
                  -0.29448  -0.28076  -0.23240  -0.22290  -0.20817  -0.03128
                   2.00000   2.00000   2.00000   2.00000   2.00000   0.00000
                  --------  --------  --------  --------  --------  --------
 0 C  pz              0.2       0.1      10.6       3.9      16.0      13.2
 0 C  px              3.7       0.3       0.0       0.0       0.0       0.0
 0 C  py              6.7       2.1       0.3       0.1       0.5       0.4
 0 C  dxz             0.0       0.0       0.0       0.0       0.0       0.2
 0 C  dyz             0.0       0.0       0.1       0.5       0.0       0.7
 0 C  dx2y2           0.4       0.1       0.0       0.0       0.0       0.0
 0 C  dxy             0.2       0.0       0.0       0.0       0.0       0.0
 1 C  s               0.1       0.0       0.0       0.0       0.0       0.0
 1 C  pz              0.1       0.1       0.0      29.8       0.5       2.9
 1 C  px              3.6       1.8       0.0       0.0       0.0       0.0
 1 C  py              4.9       1.3       0.0       1.0       0.0       0.1
 1 C  dxz             0.0       0.0       0.2       0.0       0.3       1.1
 1 C  dyz             0.0       0.0       0.1       0.0       0.1       0.2
 1 C  dx2y2           0.3       0.0       0.0       0.0       0.0       0.0
 1 C  dxy             0.8       0.0       0.0       0.0       0.0       0.0
 2 C  pz              0.1       0.0      10.9      11.3      10.3      27.8
 2 C  px              4.9       1.0       0.0       0.0       0.0       0.0
 2 C  py              6.1       0.9       0.4       0.4       0.3       0.9
 2 C  dxz             0.0       0.0       0.1       0.4       0.1       0.0
 2 C  dyz             0.0       0.0       0.0       0.0       0.1       0.3
 2 C  dx2y2           0.0       0.3       0.0       0.0       0.0       0.0
 2 C  dxy             0.3       0.3       0.0       0.0       0.0       0.0
 3 C  s               0.0       0.3       0.0       0.0       0.0       0.0
 3 C  pz              0.2       0.2      10.4       4.7      13.0      14.1
 3 C  px              4.4       7.5       0.0       0.0       0.0       0.0
 3 C  py              6.3       3.2       0.3       0.2       0.4       0.5
 3 C  dxz             0.0       0.0       0.0       0.0       0.2       0.2
 3 C  dyz             0.0       0.0       0.1       0.5       0.0       0.7
 3 C  dx2y2           0.4       0.2       0.0       0.0       0.0       0.0
 3 C  dxy             0.2       0.2       0.0       0.0       0.0       0.0
 4 C  s               0.1       0.0       0.0       0.0       0.0       0.0
 4 C  pz              0.1       0.2       0.5      29.2       3.4       2.0
 4 C  px              4.5       1.3       0.0       0.0       0.0       0.0
 4 C  py              5.1       6.4       0.0       1.0       0.1       0.1
 4 C  dxz             0.0       0.0       0.2       0.0       0.2       1.2
 4 C  dyz             0.0       0.0       0.1       0.0       0.1       0.2
 4 C  dx2y2           0.3       0.1       0.0       0.0       0.0       0.0
 4 C  dxy             0.9       0.1       0.0       0.0       0.0       0.0
 5 C  pz              0.1       0.1      12.0      11.9       7.0      27.1
 5 C  px              5.5       1.4       0.0       0.0       0.0       0.0
 5 C  py              5.7       2.2       0.4       0.4       0.2       0.9
 5 C  dxz             0.0       0.0       0.0       0.4       0.2       0.0
 5 C  dyz             0.0       0.0       0.0       0.0       0.1       0.3
 5 C  dx2y2           0.0       0.1       0.0       0.0       0.0       0.0
 5 C  dxy             0.3       0.5       0.0       0.0       0.0       0.0
 6 C  s               0.3       0.5       0.0       0.0       0.0       0.0
 6 C  pz              0.0       0.3       0.7       0.0       4.1       0.4
 6 C  px              4.6       5.4       0.0       0.0       0.0       0.0
 6 C  py              0.4       5.3       0.0       0.0       0.2       0.0
 6 C  dz2             0.0       0.2       0.1       0.0       0.2       0.0
 6 C  dxz             0.0       0.0       0.2       0.1       0.1       0.4
 6 C  dyz             0.0       0.0       0.7       0.0       1.0       0.1
 6 C  dx2y2           0.1       0.6       0.0       0.0       0.0       0.0
 6 C  dxy             0.1       0.4       0.0       0.0       0.0       0.0
 7 O  s               0.2       4.5       0.0       0.0       0.0       0.0
 7 O  pz              0.0       1.1      46.4       3.6      27.4       0.1
 7 O  px              1.0       8.2       0.0       0.0       0.0       0.0
 7 O  py              0.0      22.7       2.2       0.2       1.2       0.0
 8 H  s               3.5       0.7       0.0       0.0       0.0       0.0
 9 H  s               9.2       0.1       0.0       0.0       0.0       0.0
10 H  s               1.4       2.9       0.0       0.0       0.0       0.0
11 H  s              10.2       0.9       0.0       0.0       0.0       0.0
12 H  s               1.3       4.1       0.0       0.0       0.0       0.0
13 H  s               0.2       3.3       1.3       0.0       6.3       1.6
14 H  s               0.2       3.6       1.3       0.0       6.1       1.6
15 H  s               0.4       2.5       0.0       0.0       0.0       0.0

                     30        31        32        33        34        35   
                  -0.02511   0.02337   0.05111   0.06983   0.09329   0.09571
                   0.00000   0.00000   0.00000   0.00000   0.00000   0.00000
                  --------  --------  --------  --------  --------  --------
 0 C  s               0.0       0.0       2.8       0.5       0.0       0.0
 0 C  pz             15.5       0.0       0.0       0.0       9.7       0.3
 0 C  px              0.0       0.0       4.2       1.3       0.0       0.0
 0 C  py              0.5       0.0       0.0       0.3       0.3       0.2
 0 C  dxz             0.1       0.0       0.0       0.0       0.4       0.0
 0 C  dyz             0.7       0.0       0.0       0.0       0.0       0.0
 0 C  dx2y2           0.0       0.0       1.1       0.1       0.0       0.0
 1 C  s               0.0       0.2       2.8       0.2       0.1       3.6
 1 C  pz             27.7       0.0       0.1       0.0       6.7       0.7
 1 C  px              0.0       0.0       1.7       0.2       0.0       1.3
 1 C  py              0.9       0.0       3.1       0.0       0.6       4.6
 1 C  dz2             0.0       0.0       0.0       0.0       0.0       0.1
 1 C  dyz             0.4       0.0       0.0       0.0       0.3       0.0
 1 C  dx2y2           0.0       0.0       0.3       0.0       0.0       0.0
 1 C  dxy             0.0       0.0       0.9       0.0       0.0       0.1
 2 C  s               0.0       0.1       3.6       1.9       0.0       0.3
 2 C  pz              2.3       0.0       0.1       0.1       3.4       0.1
 2 C  px              0.0       0.0       0.9       1.2       0.0       0.2
 2 C  py              0.1       0.2       2.5       2.6       0.1       1.4
 2 C  dxz             1.3       0.0       0.0       0.0       0.2       0.0
 2 C  dyz             0.2       0.0       0.0       0.0       0.0       0.0
 2 C  dx2y2           0.0       0.0       0.1       0.1       0.0       0.2
 2 C  dxy             0.0       0.0       0.5       0.0       0.0       0.2
 3 C  s               0.0       0.1       0.5       0.0       0.0       0.1
 3 C  pz             14.4       0.0       0.0       0.0       2.8       0.2
 3 C  px              0.0       0.0       0.3       0.0       0.0       0.1
 3 C  py              0.5       0.2       0.0       0.3       0.2       0.5
 3 C  dz2             0.1       0.0       0.0       0.1       0.0       0.1
 3 C  dxz             0.1       0.0       0.0       0.0       0.9       0.1
 3 C  dyz             0.7       0.0       0.0       0.0       0.0       0.0
 3 C  dx2y2           0.0       0.0       0.7       0.0       0.0       0.0
 3 C  dxy             0.0       0.6       0.0       0.1       0.1       0.2
 4 C  s               0.0       0.9       0.9       0.5       0.0       0.2
 4 C  pz             27.3       0.0       0.0       0.1       7.1       0.2
 4 C  px              0.0       0.4       0.1       0.3       0.0       0.7
 4 C  py              0.9       0.0       0.2       1.4       0.1       1.6
 4 C  dxz             0.0       0.0       0.0       0.0       0.1       0.0
 4 C  dyz             0.4       0.0       0.0       0.0       0.1       0.0
 4 C  dxy             0.0       0.0       0.4       0.3       0.0       0.3
 5 C  s               0.0       0.1       2.7       0.9       0.1       3.3
 5 C  pz              1.6       0.0       0.1       0.1       9.9       1.0
 5 C  px              0.0       0.1       0.6       0.5       0.1       1.1
 5 C  py              0.1       0.0       1.8       2.2       0.9       4.8
 5 C  dxz             1.3       0.0       0.0       0.0       0.1       0.0
 5 C  dyz             0.2       0.0       0.0       0.0       0.3       0.0
 5 C  dx2y2           0.0       0.0       0.3       0.1       0.0       0.0
 5 C  dxy             0.0       0.0       0.3       0.3       0.0       0.2
 6 C  s               0.0       2.5       0.1       9.5       0.2       3.8
 6 C  pz              0.0       0.4       0.0       0.1      14.5       0.3
 6 C  px              0.0       1.3       1.8       2.6       0.0       1.1
 6 C  py              0.0       8.0       0.4       2.1       0.4       0.8
 6 C  dz2             0.0       0.2       0.0       0.0       0.1       0.0
 6 C  dxz             0.4       0.0       0.0       0.0       0.5       0.1
 6 C  dyz             0.0       0.0       0.0       0.0       0.3       0.0
 6 C  dx2y2           0.0       0.0       0.1       0.1       0.0       0.0
 6 C  dxy             0.0       0.7       0.1       0.1       0.1       0.2
 7 O  s               0.0      10.1       0.2       2.1       0.0       0.4
 7 O  pz              0.1       0.1       0.0       0.1       0.4       0.0
 7 O  px              0.0       6.4       0.3       0.7       0.0       0.3
 7 O  py              0.0       0.9       0.5       0.9       0.0       1.0
 7 O  dyz             0.0       0.0       0.0       0.0       0.1       0.0
 7 O  dx2y2           0.0       0.1       0.0       0.0       0.0       0.0
 8 H  s               0.0       0.1      15.4       3.9       0.0       0.1
 9 H  s               0.0       0.2      16.7       0.1       0.5      22.9
10 H  s               0.0       0.2      15.2      13.6       0.1       1.8
11 H  s               0.0       0.8       2.7       4.3       0.1       4.4
12 H  s               0.0       0.0      10.8       8.6       0.7      21.2
13 H  s               1.0       7.6       0.3      13.6      23.0       2.4
14 H  s               0.8       8.0       0.4      14.1      13.9       9.1
15 H  s               0.0      49.0       1.2       7.4       0.1       1.9

                     36        37        38        39        40        41   
                   0.10786   0.12853   0.14511   0.14868   0.17114   0.21126
                   0.00000   0.00000   0.00000   0.00000   0.00000   0.00000
                  --------  --------  --------  --------  --------  --------
 0 C  s               4.2       2.8       0.0       3.9       0.0       2.1
 0 C  pz              0.0       0.0       6.6       0.0       0.0       0.0
 0 C  px              7.2       1.0       0.0       1.1       0.3       0.9
 0 C  py              0.0       0.2       0.2       0.2       0.4       0.0
 0 C  dz2             0.1       0.1       0.0       0.3       0.0       0.4
 0 C  dxz             0.0       0.0       0.3       0.0       0.0       0.0
 0 C  dyz             0.0       0.0       0.0       0.1       0.0       0.1
 0 C  dx2y2           0.0       0.1       0.0       0.3       0.0       0.5
 0 C  dxy             0.0       0.1       0.0       0.1       0.1       0.0
 1 C  s               0.0       5.7       0.0       0.9       0.6       0.0
 1 C  pz              0.0       0.0       7.6       0.0       0.0       0.1
 1 C  px              0.1       0.2       0.0       1.1       1.4       2.8
 1 C  py              0.5       1.0       0.3       0.4       0.5       1.0
 1 C  dz2             0.0       0.3       0.0       0.0       0.0       0.1
 1 C  dxz             0.0       0.0       0.3       0.0       0.0       0.0
 1 C  dyz             0.0       0.0       0.2       0.0       0.0       0.0
 1 C  dx2y2           0.0       0.0       0.0       0.1       0.0       1.3
 1 C  dxy             0.0       0.3       0.0       0.1       0.2       0.5
 2 C  s               3.5       1.6       0.0       0.2       0.6       2.1
 2 C  pz              0.1       0.0      11.7       0.0       0.2       0.0
 2 C  px              1.9       0.7       0.0       0.4       1.9       0.2
 2 C  py              2.5       1.4       0.5       0.0       3.1       0.1
 2 C  dz2             0.2       0.2       0.1       0.0       0.0       0.1
 2 C  dyz             0.1       0.0       0.5       0.0       0.0       0.0
 2 C  dx2y2           0.3       0.6       0.0       0.1       0.4       1.2
 2 C  dxy             0.0       0.0       0.0       0.0       0.0       1.2
 3 C  s               0.6       1.5       0.0       0.2       1.6      10.5
 3 C  pz              0.0       0.0      12.2       0.0       0.1       0.0
 3 C  px              1.4       0.1       0.0       0.2       0.1      11.2
 3 C  py              0.0       0.2       0.4       0.2       1.5       0.1
 3 C  dz2             0.0       0.4       0.0       0.1       0.2       1.4
 3 C  dx2y2           1.3       0.1       0.0       0.4       0.1       2.3
 3 C  dxy             0.2       0.4       0.0       0.0       1.4       0.0
 4 C  s               1.5       3.4       0.0       5.4       0.2       1.7
 4 C  pz              0.1       0.0       8.6       0.0       0.3       0.0
 4 C  px              1.9       0.9       0.0       1.1       0.0       0.6
 4 C  py              2.1       0.4       0.3       2.9       5.1       0.0
 4 C  dz2             0.0       0.1       0.1       0.2       0.0       0.0
 4 C  dyz             0.0       0.0       0.5       0.0       0.0       0.0
 4 C  dx2y2           0.5       0.0       0.0       0.0       0.0       0.8
 4 C  dxy             0.0       0.1       0.0       0.0       0.1       1.1
 5 C  s               0.7       0.0       0.0       5.2       0.9       0.1
 5 C  pz              0.0       0.0       6.4       0.0       0.0       0.0
 5 C  px              0.1       0.3       0.0       1.2       0.2       2.6
 5 C  py              0.1       0.0       0.2       1.9       0.5       0.6
 5 C  dz2             0.1       0.0       0.0       0.3       0.1       0.1
 5 C  dyz             0.0       0.0       0.2       0.0       0.0       0.0
 5 C  dx2y2           0.1       0.1       0.0       0.1       0.0       1.0
 5 C  dxy             0.0       0.0       0.0       0.4       0.4       0.4
 6 C  s               2.8       0.2       0.0       0.4       3.9       4.4
 6 C  pz              0.0       0.5      12.6       0.1       0.8       0.3
 6 C  px              0.4       0.9       0.0       0.1       6.2      21.4
 6 C  py              1.1      11.7       0.9       1.2      13.6       4.1
 6 C  dz2             0.0       0.8       0.0       0.1       0.9       4.2
 6 C  dxz             0.0       0.0       0.2       0.0       0.1       0.0
 6 C  dyz             0.0       0.4       0.1       0.0       0.4       0.2
 6 C  dx2y2           0.1       1.1       0.0       0.1       2.2       3.0
 6 C  dxy             0.1       0.5       0.0       0.0       1.6       0.0
 7 O  s               0.2       0.2       0.0       0.4       1.6       0.5
 7 O  pz              0.0       0.1       0.5       0.0       0.4       0.0
 7 O  px              0.3       6.2       0.0       1.8       3.0       1.0
 7 O  py              0.2       1.8       0.0       0.2      10.8       0.0
 7 O  dyz             0.0       0.0       0.1       0.0       0.0       0.0
 7 O  dx2y2           0.0       0.1       0.0       0.0       0.4       0.1
 7 O  dxy             0.0       0.0       0.0       0.0       0.4       0.6
 8 H  s              26.0       8.4       0.0      11.8       0.7       0.3
 9 H  s               0.8      12.9       0.1       6.5       6.7       0.2
10 H  s              16.3       6.3       0.0       1.2      10.1       3.4
11 H  s              11.3       8.2       0.0      23.7       7.6       3.0
12 H  s               0.8       0.3       0.0      21.7       3.3       0.0
13 H  s               2.6       2.3      14.0       0.0       0.2       1.6
14 H  s               3.3       2.7      13.8       0.1       0.7       1.5
15 H  s               2.1       9.7       0.0       1.3       1.8       0.4

                     42        43        44        45        46        47   
                   0.26313   0.27059   0.28306   0.30142   0.33660   0.38232
                   0.00000   0.00000   0.00000   0.00000   0.00000   0.00000
                  --------  --------  --------  --------  --------  --------
 0 C  s               2.1       2.9       5.2       0.7      15.4       3.9
 0 C  pz              0.2       0.3       0.2       0.1       0.0       0.1
 0 C  px              1.6       2.1       2.4       1.4       1.2       0.0
 0 C  py              4.6      10.6       3.9       2.4       0.0       2.0
 0 C  dz2             0.3       0.5       0.8       0.0       2.2       1.1
 0 C  dxz             0.1       0.2       0.1       0.0       0.0       0.0
 0 C  dyz             0.1       0.0       0.4       0.1       0.4       0.1
 0 C  dx2y2           0.0       0.1       2.0       1.4       0.4       0.2
 0 C  dxy             1.2       7.0       1.8       0.8       0.0       0.5
 1 C  s               5.8       3.1       2.0       3.0      14.8       6.1
 1 C  pz              0.2       0.0       0.1       0.0       0.0       0.1
 1 C  px              1.0       3.9       0.6       8.3       0.8       1.0
 1 C  py              5.3       0.8       3.7       0.4       1.2       1.6
 1 C  dz2             1.1       0.6       0.6       0.3       1.4       1.1
 1 C  dxz             0.2       0.0       0.0       0.0       0.0       0.0
 1 C  dyz             0.3       0.0       0.2       0.0       0.1       0.0
 1 C  dx2y2           0.8       3.4       0.5       4.0       0.3       0.3
 1 C  dxy             3.7       0.1       0.0       0.0       0.1       1.7
 2 C  s               4.8       2.8       1.4       9.5      10.9       0.7
 2 C  pz              0.2       0.1       0.0       0.0       0.0       0.0
 2 C  px              6.8       1.8       0.4       6.4       1.2       1.2
 2 C  py              7.2       1.0       0.9       0.8       0.3       0.5
 2 C  dz2             1.0       0.6       0.0       2.3       1.5       0.1
 2 C  dxz             0.2       0.0       0.0       0.0       0.0       0.0
 2 C  dyz             0.3       0.1       0.0       0.0       0.1       0.0
 2 C  dx2y2           2.1       0.0       0.1       3.3       0.1       0.0
 2 C  dxy             5.5       0.1       0.0       0.0       0.2       0.8
 3 C  s               4.1       1.8       3.4       6.8      12.1       6.0
 3 C  pz              0.2       0.1       0.1       0.1       0.0       0.0
 3 C  px              3.9       2.3       2.4       1.2       0.2       0.2
 3 C  py              6.5       1.3       3.1       3.8       0.1       0.1
 3 C  dz2             1.1       0.3       0.7       1.3       0.3       1.5
 3 C  dyz             0.2       0.1       0.1       0.3       0.1       0.1
 3 C  dx2y2           0.5       0.2       0.0       1.1       0.1       0.2
 3 C  dxy             1.7       0.2       2.1       0.6       0.0       0.3
 4 C  s               1.7       1.0      12.1       1.4       9.9       9.4
 4 C  pz              0.0       0.2       0.0       0.2       0.0       0.0
 4 C  px              0.3       4.6       4.9       4.1       1.2       1.4
 4 C  py              0.7       3.9       1.4       4.8       0.3       0.5
 4 C  dz2             0.2       0.0       3.5       0.2       1.0       0.4
 4 C  dyz             0.0       0.2       0.2       0.2       0.1       0.1
 4 C  dx2y2           1.1       4.0       0.5       2.0       0.0       0.8
 4 C  dxy             0.3       2.4       0.4       1.8       0.1       0.5
 5 C  s               0.5      11.1       1.6       0.6      13.1       0.2
 5 C  pz              0.0       0.2       0.0       0.1       0.0       0.0
 5 C  px              1.2       0.2      12.2       1.6       0.8       3.5
[...]
 0 C  dyz             0.1       0.7       0.3       0.1       0.0       0.0
 0 C  dx2y2           0.3      11.9       2.6       0.0       0.0       0.1
 0 C  dxy             0.1       7.0       9.8       0.0       3.6       2.8
 1 C  s               0.6       0.0       0.7       0.0       0.0       0.2
 1 C  px              2.7       0.4       0.8       0.0       0.5       1.2
 1 C  py              0.2       0.1       1.1       0.0       0.2       0.2
 1 C  dz2             0.1       0.4       0.3       0.0       0.0       0.1
 1 C  dxz             0.1       0.0       0.1       0.1       0.0       0.0
 1 C  dyz             0.3       0.1       0.3       0.0       0.1       0.1
 1 C  dx2y2           9.5       9.6       2.4       0.0       2.5       4.1
 1 C  dxy             5.9       0.0       5.1       0.0       0.3       0.2
 2 C  s               0.3       0.6       0.2       0.0       0.1       0.1
 2 C  px              2.5       1.0       0.1       0.0       0.5       1.9
 2 C  py              0.2       0.0       0.1       0.0       0.1       1.1
 2 C  dz2             0.0       0.2       0.0       0.0       0.1       0.0
 2 C  dxz             0.4       0.0       0.0       0.2       0.0       0.1
 2 C  dyz             0.3       0.3       0.0       0.0       0.0       0.2
 2 C  dx2y2          13.0       3.7       0.4       0.0       1.2       7.4
 2 C  dxy             7.5       2.0       0.9       0.0       0.5       1.8
 3 C  s               3.1       0.3       0.1       0.0       0.1       0.0
 3 C  px              1.3       0.9       0.3       0.0       0.1       0.2
 3 C  py              0.1       0.2       0.3       0.0       0.5       1.8
 3 C  dz2             0.4       0.6       0.6       0.1       0.1       0.0
 3 C  dxz             0.0       0.0       0.1       0.1       0.1       0.7
 3 C  dyz             0.0       0.6       0.0       0.7       0.0       0.0
 3 C  dx2y2           0.6      23.7       2.6       0.0       0.0       0.0
 3 C  dxy             0.1       3.9       1.4       0.0       2.2      20.4
 4 C  s               1.1       0.2       0.7       0.0       0.0       0.2
 4 C  px              2.7       1.1       1.0       0.0       0.8       0.9
 4 C  py              0.1       1.0       0.0       0.0       0.2       1.0
 4 C  dz2             0.4       0.0       0.2       0.0       0.0       0.0
 4 C  dxz             0.0       0.0       0.0       0.1       0.0       0.0
 4 C  dyz             0.4       0.0       0.0       0.2       0.1       0.3
 4 C  dx2y2          16.5       0.0       0.1       0.0       4.4       5.8
 4 C  dxy             1.4       1.7       1.9       0.0       0.7       1.1
 5 C  s               0.8       2.0       0.0       0.0       0.0       0.0
 5 C  px              3.6       0.4       0.9       0.0       1.1       0.9
 5 C  py              0.1       1.3       0.5       0.0       0.2       0.2
 5 C  dz2             0.3       1.7       0.0       0.0       0.0       0.0
 5 C  dxz             0.3       0.1       0.1       0.1       0.1       0.1
 5 C  dyz             0.1       0.0       0.2       0.0       0.1       0.1
 5 C  dx2y2          10.7       1.4       7.6       0.0       2.9       1.5
 5 C  dxy             5.1       4.2       2.5       0.0       1.6       1.2
 6 C  s               0.1       1.1       0.2       0.0       0.0       0.0
 6 C  pz              0.0       0.0       0.0       0.6       0.0       0.0
 6 C  px              0.0       1.2       0.1       0.0       0.0       0.0
 6 C  py              0.0       0.2       0.1       0.0       0.0       0.6
 6 C  dz2             0.0       1.4       1.2       1.3       0.5       0.0
 6 C  dxz             0.0       0.1       0.1       2.3       0.0       0.1
 6 C  dyz             0.0       0.0       0.0       8.9       0.1       0.3
 6 C  dx2y2           0.2       4.0       7.0       0.4       0.0       3.5
 6 C  dxy             0.0       1.4       2.7       0.1       0.1       4.6
 7 O  s               0.0       0.1       0.2       0.0       2.4       0.8
 7 O  pz              0.0       0.0       0.0       0.8       0.0       0.0
 7 O  px              0.1       0.1       1.3       0.0       1.2       0.0
 7 O  py              0.0       0.1       0.2       0.0       0.2       0.1
 7 O  dz2             0.4       0.1      14.3       7.9      35.6       4.7
 7 O  dxz             0.0       0.1       1.1      11.6       0.1       0.3
 7 O  dyz             0.0       0.0       2.7      60.3       1.6       0.0
 7 O  dx2y2           0.5       1.1       2.4       3.2      25.8      13.3
 7 O  dxy             0.2       1.4      15.2       0.4       0.1      11.6
 8 H  s               0.0       0.6       0.1       0.0       0.0       0.0
10 H  s               0.0       0.3       0.0       0.0       0.0       0.0
12 H  s               0.0       0.2       0.0       0.0       0.0       0.0
15 H  s               0.1       0.1       0.8       0.0       6.0       0.9

                    126       127   
                   3.25969   3.34247
                   0.00000   0.00000
                  --------  --------
 0 C  s               0.4       1.1
 0 C  dz2             0.1       0.4
 0 C  dyz             0.2       0.6
 0 C  dx2y2           3.5       9.0
 1 C  s               0.3       1.0
 1 C  dz2             0.1       0.5
 1 C  dxz             0.1       0.4
 1 C  dx2y2           0.4       1.8
 1 C  dxy             2.4       8.1
 2 C  s               0.2       1.3
 2 C  dz2             0.1       0.7
 2 C  dxz             0.0       0.2
 2 C  dx2y2           0.3       4.0
 2 C  dxy             1.8       7.2
 3 C  s               0.2       0.7
 3 C  px              0.0       0.4
 3 C  py              0.2       0.1
 3 C  dz2             0.1       0.2
 3 C  dyz             0.1       0.7
 3 C  dx2y2           1.6      13.5
 3 C  dxy             1.2       0.0
 4 C  s               0.5       0.9
 4 C  dz2             0.2       0.5
 4 C  dxz             0.1       0.4
 4 C  dx2y2           1.5       1.7
 4 C  dxy             2.2       8.4
 5 C  s               0.6       0.9
 5 C  dz2             0.3       0.5
 5 C  dxz             0.0       0.1
 5 C  dx2y2           1.7       3.0
 5 C  dxy             2.2       6.5
 6 C  s               2.3       0.1
 6 C  px              0.4       0.8
 6 C  py              2.1       0.6
 6 C  dz2             1.6       0.1
 6 C  dxz             0.2       0.1
 6 C  dyz             0.5       0.2
 6 C  dx2y2           1.3       3.0
 6 C  dxy             5.0       1.4
 7 O  s               2.8       0.7
 7 O  px              1.5       0.5
 7 O  py              2.0       0.5
 7 O  dz2             8.3       1.7
 7 O  dxz             0.9       0.3
 7 O  dyz             4.3       0.9
 7 O  dx2y2          22.4       4.5
 7 O  dxy            19.6       7.2
 8 H  s               0.2       0.4
 9 H  s               0.1       0.4
10 H  s               0.1       0.4
11 H  s               0.1       0.5
12 H  s               0.2       0.4
15 H  s               0.7       0.2


                      *****************************
                      * MAYER POPULATION ANALYSIS *
                      *****************************

  NA   - Mulliken gross atomic population
  ZA   - Total nuclear charge
  QA   - Mulliken gross atomic charge
  VA   - Mayer's total valence
  BVA  - Mayer's bonded valence
  FA   - Mayer's free valence

  ATOM       NA         ZA         QA         VA         BVA        FA
  0 C      6.0500     6.0000    -0.0500     3.8182     3.8182     0.0000
  1 C      6.0478     6.0000    -0.0478     3.8401     3.8401     0.0000
  2 C      6.1083     6.0000    -0.1083     3.8477     3.8477    -0.0000
  3 C      5.9909     6.0000     0.0091     3.9559     3.9559    -0.0000
  4 C      6.1041     6.0000    -0.1041     3.8552     3.8552     0.0000
  5 C      6.0429     6.0000    -0.0429     3.7969     3.7969     0.0000
  6 C      5.9412     6.0000     0.0588     3.9543     3.9543     0.0000
  7 O      8.4257     8.0000    -0.4257     2.0238     2.0238    -0.0000
  8 H      0.9501     1.0000     0.0499     0.9491     0.9491     0.0000
  9 H      0.9506     1.0000     0.0494     0.9488     0.9488     0.0000
 10 H      0.9658     1.0000     0.0342     0.9572     0.9572    -0.0000
 11 H      0.9440     1.0000     0.0560     0.9812     0.9812     0.0000
 12 H      0.9495     1.0000     0.0505     0.9498     0.9498     0.0000
 13 H      0.9159     1.0000     0.0841     0.9451     0.9451     0.0000
 14 H      0.9170     1.0000     0.0830     0.9460     0.9460     0.0000
 15 H      0.6961     1.0000     0.3039     0.8766     0.8766    -0.0000

  Mayer bond orders larger than 0.100000
B(  0-C ,  1-C ) :   1.3731 B(  0-C ,  5-C ) :   1.3880 B(  0-C ,  8-H ) :   0.9653 
B(  1-C ,  2-C ) :   1.3910 B(  1-C ,  9-H ) :   0.9637 B(  2-C ,  3-C ) :   1.3739 
B(  2-C , 10-H ) :   0.9647 B(  3-C ,  4-C ) :   1.4335 B(  3-C ,  6-C ) :   1.0332 
B(  4-C ,  5-C ) :   1.3402 B(  4-C , 11-H ) :   0.9566 B(  5-C , 12-H ) :   0.9658 
B(  6-C ,  7-O ) :   1.1140 B(  6-C , 13-H ) :   0.9090 B(  6-C , 14-H ) :   0.9103 
B(  7-O , 15-H ) :   0.8478 

-------
TIMINGS
-------

Total SCF time: 0 days 0 hours 0 min 5 sec 

Total time                  ....       5.211 sec
Sum of individual times     ....       4.820 sec  ( 92.5%)

SCF preparation             ....       0.135 sec  (  2.6%)
Fock matrix formation       ....       3.897 sec  ( 74.8%)
  Startup                   ....       0.041 sec  (  1.1% of F)
  Split-RI-J                ....       1.260 sec  ( 32.3% of F)
  XC integration            ....       2.247 sec  ( 57.7% of F)
    XC Preparation          ....       0.000 sec  (  0.0% of XC)
    Basis function eval.    ....       0.681 sec  ( 30.3% of XC)
    Density eval.           ....       0.308 sec  ( 13.7% of XC)
    XC-Functional eval.     ....       0.177 sec  (  7.9% of XC)
    XC-Potential eval.      ....       0.494 sec  ( 22.0% of XC)
Diagonalization             ....       0.000 sec  (  0.0%)
Density matrix formation    ....       0.337 sec  (  6.5%)
Total Energy calculation    ....       0.022 sec  (  0.4%)
Population analysis         ....       0.059 sec  (  1.1%)
Orbital Transformation      ....       0.042 sec  (  0.8%)
Orbital Orthonormalization  ....       0.000 sec  (  0.0%)
DIIS solution               ....       0.263 sec  (  5.0%)
  MO trafo                  ....       0.000 sec  (  0.0 % of DIIS)
  Orb grad                  ....       0.000 sec  (  0.0 % of DIIS)
  Energy W gradient         ....       0.000 sec  (  0.0 % of DIIS)
  DIIS error                ....       0.003 sec  (  1.0 % of DIIS)
  DIIS work                 ....       0.231 sec  ( 87.6 % of DIIS)
  Form Q                    ....       0.000 sec  (  0.0 % of DIIS)
  Form QpQm                 ....       0.000 sec  (  0.0 % of DIIS)
  Exp/Cayley                ....       0.000 sec  (  0.0 % of DIIS)
  Orb update                ....       0.000 sec  (  0.0 % of DIIS)
  Wake-sleep                ....       0.011 sec  (  4.4 % of DIIS)
SOSCF solution              ....       0.065 sec  (  1.3%)
  MO trafo                  ....       0.032 sec  ( 49.3 % of SOSCF)
  Orb grad                  ....       0.001 sec  (  1.8 % of SOSCF)
  Rot update                ....       0.015 sec  ( 22.9 % of SOSCF)
  Step                      ....       0.017 sec  ( 26.0 % of SOSCF)
Finished LeanSCF after   5.3 sec

Maximum memory used throughout the entire LEANSCF-calculation: 11.7 MB


-------------------------------------------------------------------------------
                          DFT DISPERSION CORRECTION                            
                                                                               
                                DFTD4 V3.4.0                                   
-------------------------------------------------------------------------------
The PBE functional is recognized
Active option DFTDOPT                   ...         5   

-------------------------   ----------------
Dispersion correction           -0.015315490
-------------------------   ----------------

------------------   -----------------
gCP correction             0.067327236
------------------   -----------------

-------------------------   --------------------
FINAL SINGLE POINT ENERGY      -346.003754969580
-------------------------   --------------------


------------------------------------------------------------------------------
                              ORCA PROPERTY CALCULATIONS
------------------------------------------------------------------------------

GBWName                                 ... sp.gbw
Number of atoms                         ...     16
Number of basis functions               ...    128
Max core memory                         ...   1024 MB

Electric properties:
Dipole moment                           ... YES
Quadrupole moment                       ...  NO
Static polarizability (Dipole/Dipole)   ...  NO
Static polarizability (Dipole/Quad.)    ...  NO
Static polarizability (Quad./Quad.)     ...  NO
Static polarizability (Velocity)        ...  NO

Atomic electric properties:
Dipole moment                           ...  NO
Quadrupole moment                       ...  NO
Static polarizability                   ...  NO

Choice of electric origin               ... Center of mass
Position of electric origin             ...    -0.000033     0.000014    -0.000002

General magnetic properties:
Magnetizability                         ...  NO

EPR properties:
g-Tensor (aka g-matrix)                 ...  NO
Zero-Field splitting spin-orbit         ...  NO
Zero-field splitting spin-spin          ...  NO
Hyperfine couplings                     ...  NO (   0 nuclei)
Quadrupole couplings                    ...  NO (   0 nuclei)
Contact density                         ...  NO (   0 nuclei)

NMR properties:
Chemical shifts                         ...  NO (   0 nuclei)
Spin-rotation constants                 ...  NO (   0 nuclei)
Spin-spin couplings                     ...  NO (   0 nuclei,    0 pairs)

Choice of magnetic origin               ... GIAO
Position of magnetic origin             ...     0.000000     0.000000     0.000000

Properties with geometric perturbations:
SCF Hessian                             ...  NO
IR spectrum                             ...  NO
VCD spectrum                            ...  NO
X-ray spectroscopy properties:
SCF XES/XAS/RIXS spectra                ...  NO


-------------
DIPOLE MOMENT
-------------

Method             : SCF
Type of density    : Electron Density
Multiplicity       :   1
Irrep              :   0
Energy             :  -346.0557667156614343 Eh
Relativity type    : 
Basis              : AO
                                X                 Y                 Z
Electronic contribution:     -0.475414234      -0.948126579       0.219217868
Nuclear contribution   :      1.060111976       1.340971018      -0.317504722
                        -----------------------------------------
Total Dipole Moment    :      0.584697743       0.392844439      -0.098286854
                        -----------------------------------------
Magnitude (a.u.)       :      0.711237309
Magnitude (Debye)      :      1.807821568



--------------------
Rotational spectrum 
--------------------
 
Rotational constants in cm-1:             0.166890             0.050042             0.038783 
Rotational constants in MHz :          5003.241267          1500.209620          1162.698408 

Dipole components along the rotational axes: 
x,y,z [a.u.] :     0.499421     0.506289    -0.010412 
x,y,z [Debye]:     1.269428     1.286884    -0.026465 

 

Dipole moment calculation done in   0.0 sec 

Maximum memory used throughout the entire PROP-calculation: 7.5 MB

--------------------------------
SUGGESTED CITATIONS FOR THIS RUN
--------------------------------

Below you find a list of papers that are relevant to this ORCA run
We neither can nor want to force you to cite these papers, but we appreciate if you do
You receive ORCA, which is the product of decades of hard work by many enthusiastic individuals, for free
The only thing we kindly ask in return is that you cite our papers,
We deeply appreciate it, if you show your appreciation for ORCA by not just citing the generic ORCA reference.

Please note that relegating all ORCA citations to the supporting information does *not* help us.
SI sections are not indexed - citations you put there will not count into any citation statistics
But we need these citations in order to attract the funding resources that allow us to do what we are doing

Therefore, if you are a happy ORCA user, please consider citing a few of the papers listed below in the main body of your paper

In addition to the list printed below, the program has created the file sp.bibtex that contains the list in bibtex format
You can import this file easily into all common literature databanks and citation aid programs


List of essential papers. We consider these as the minimum necessary citations

  1. Neese,F.
     Software update: the ORCA program system, version 5.0
     WIRES Comput. Molec. Sci., 2022 12(1)e1606
     doi.org/10.1002/wcms.1606

List of papers to cite with high priority. The work reported in these papers was absolutely
necessary for this run to complete.
Our perspective: the developers of density functionals and basis sets usually get cited in chemistry papers
Good! But without the algorithms to do something with them, the functionals or basis sets would not do anything.
Hence, in our opinion, the algorithm design and method developments papers are equally worthy of getting cited

  1. Neese,F.
     An improvement of the resolution of the identity approximation for the formation of the Coulomb matrix
     J. Comp. Chem., 2003 24(14)1740-1747
     doi.org/10.1002/jcc.10318
  2. Neese,F.
     The SHARK Integral Generation and Digestion System
     J. Comp. Chem., 2022  1-16
     doi.org/10.1002/jcc.26942
  3. Caldeweyher,E.; Bannwarth,C.; Grimme,S.
     Extension of the D3 dispersion coefficient model
     J. Chem. Phys., 2017 147 034112-XXXX
     doi.org/10.1063/1.4993215
  4. Caldeweyher,E.; Ehlert,S.; Hansen,A.; Neugebauer,H.; Spicher,S.; Bannwarth,C.; Grimme,S.
     A generally applicable atomic-charge dependent London dispersion correction
     J. Chem. Phys., 2019 150 154122-XXXX
     doi.org/10.1063/1.5090222
  5. Caldeweyher,E.; Mewes,J.; Ehlert,S.; Grimme,S.
     Extension and evaluation of the D4 London-dispersion model for periodic systems
     Phys. Chem. Chem. Phys., 2020 22(16)8499-8512
     doi.org/10.1039/D0CP00502A

List of suggested additional citations. These are papers that are important in the 'surrounding' of 
of this run, or papers that preceded the highly important papers. If you like your results we are grateful for a citation.

  1. Neese,F.
     The ORCA program system
     WIRES Comput. Molec. Sci., 2012 2(1)73-78
     doi.org/10.1002/wcms.81
  2. Neese,F.
     Software update: the ORCA program system, version 4.0
     WIRES Comput. Molec. Sci., 2018 8(1)1-6
     doi.org/10.1002/wcms.1327
  3. Neese,F.; Wennmohs,F.; Becker,U.; Riplinger,C.
     The ORCA quantum chemistry program package
     J. Chem. Phys., 2020 152 Art. No. L224108
     doi.org/10.1063/5.0004608

List of optional additional citations

  1. Neese,F.
     Approximate second-order SCF convergence for spin unrestricted wavefunctions
     Chem. Phys. Lett., 2000 325(1-3)93-98
     doi.org/10.1016/s0009-2614(00)00662-x

Timings for individual modules:

Sum of individual times          ...        6.500 sec (=   0.108 min)
Startup calculation              ...        0.526 sec (=   0.009 min)   8.1 %
SCF iterations                   ...        5.870 sec (=   0.098 min)  90.3 %
Property calculations            ...        0.105 sec (=   0.002 min)   1.6 %
                             ****ORCA TERMINATED NORMALLY****
TOTAL RUN TIME: 0 days 0 hours 0 minutes 7 seconds 129 msec
