22
 energy: -51.025657809571 gnorm: 0.028992350446 xtb: 6.7.1 (edcfbbe)
C           -4.10328000436289        0.00361978874241        0.00314642715798
C           -3.41717326203316        0.85955102370186        0.85689858839919
C           -2.02946859891107        0.84528671328536        0.84229769005753
C           -1.29710106637041        0.00175267157192        0.00172466272866
C           -2.03146559151918       -0.84082378854280       -0.83809991766194
C           -3.41918750935116       -0.85323675737145       -0.85129327875651
Cl          -1.16264961261449       -1.91990402745903       -1.91322660778090
C            0.18100108188644        0.00063003249812        0.00074665421121
C            0.91590759112010        0.84063073319041       -0.84040351776846
C            2.30354114760829        0.85850533181232       -0.86201859303044
C            2.97146790981722       -0.00273862038812       -0.00234881635613
C            2.30339575361019       -0.86225399392420        0.85892008924796
C            0.91576109764146       -0.84100248212783        0.84040314951755
Cl           0.05459186401158       -1.91620296133096        1.91728741704335
Cl           4.72095127549929       -0.00508598618380       -0.00452496318110
Cl           0.05494885612106        1.91783739199002       -1.91543030203938
Cl          -1.15804110747090        1.92316643090305        1.91650932710633
H           -5.18791001489474        0.00434260862583        0.00368826770284
H           -3.95156893611700        1.52664578705968        1.52259503330547
H           -3.95512367117849       -1.51962623890415       -1.51645423112116
H            2.84289098798576        1.52134334768633       -1.52679051232304
H            2.84264160074814       -1.52646855634519        1.52241759129708
22
 energy: -51.026821518677 gnorm: 0.018567780854 xtb: 6.7.1 (edcfbbe)
C           -4.09338131711975        0.00362772684087        0.00316558922246
C           -3.40701892309969        0.85590759319454        0.85313296509223
C           -2.02327047387288        0.84388465359456        0.84103720372772
C           -1.29834877611019        0.00172210724056        0.00168743157625
C           -2.02532692196129       -0.83946025885975       -0.83688732755891
C           -3.40909072792884       -0.84959895745982       -0.84752310676249
Cl          -1.14918782849004       -1.90963909424662       -1.90318033497780
C            0.18002504561466        0.00054334984382        0.00066430861418
C            0.90809562900948        0.83960087655478       -0.83971828823338
C            2.29286308076507        0.85484938240724       -0.85828891053883
C            2.96417543938039       -0.00270045956197       -0.00231361645147
C            2.29270523972321       -0.85855794368781        0.85522685891996
C            0.90793963905966       -0.84007657573834        0.83961947767966
Cl           0.04227829371852       -1.90672593064294        1.90778489620851
Cl           4.70498678721264       -0.00495265089780       -0.00440179208714
Cl           0.04264393069851        1.90829860761179       -1.90599254318335
Cl          -1.14452054855538        1.91284968023760        1.90639549043490
H           -5.17289113716343        0.00436809117459        0.00372629182555
H           -3.93615516073379        1.52104968087759        1.51650942756616
H           -3.93981478085605       -1.51402414466719       -1.51034788680080
H            2.82884919200821        1.51527606766152       -1.52016288748272
H            2.82857410992701       -1.52027335298745        1.51591091096544
22
 energy: -51.027210691695 gnorm: 0.007670601953 xtb: 6.7.1 (edcfbbe)
C           -4.08554460574422        0.00364623366508        0.00319472650450
C           -3.39892124301058        0.85467520710049        0.85171209793256
C           -2.01647567811976        0.84516539009200        0.84235184802232
C           -1.29930396382567        0.00167652368427        0.00163110429401
C           -2.01863526556049       -0.84080353763244       -0.83827658505262
C           -3.40109408491921       -0.84836538542690       -0.84609262381409
Cl          -1.13688610380201       -1.90189630888763       -1.89584013110091
C            0.17987895448474        0.00046374981746        0.00058389693526
C            0.90046826679284        0.84105758596680       -0.84126676800367
C            2.28420692279831        0.85314077073105       -0.85637404172927
C            2.95943890030772       -0.00264199109500       -0.00225507252924
C            2.28403841110326       -0.85679509431340        0.85336414880792
C            0.90030292976008       -0.84161591864379        0.84108548652835
Cl           0.03161668935740       -1.89905765577640        1.90024371171206
Cl           4.68972833724757       -0.00476428073906       -0.00421294802607
Cl           0.03198955795202        1.90047344462453       -1.89861730992647
Cl          -1.13204453115866        1.90500774531104        1.89892816816641
H           -5.16197581658238        0.00441188597149        0.00379359827172
H           -3.92440780044421        1.51948938127233        1.51447250060893
H           -3.92825044930535       -1.51243987530321       -1.50826730604184
H            2.81814871282416        1.51279378788681       -1.51715211208630
H            2.81785165107046       -1.51765320981574        1.51303776828255
22
 energy: -51.027259247998 gnorm: 0.002667283992 xtb: 6.7.1 (edcfbbe)
C           -4.08408233778021        0.00366342569005        0.00322028163901
C           -3.39784072566741        0.85517692051828        0.85213534853133
C           -2.01461637479943        0.84651015423882        0.84367938234970
C           -1.29950019840522        0.00163947864723        0.00158739785437
C           -2.01685428787098       -0.84219584794587       -0.83966010410982
C           -3.40009098337362       -0.84885810972060       -0.84650085983003
Cl          -1.13480407087062       -1.90091126295799       -1.89495904269201
C            0.18025891544832        0.00041810336131        0.00053321928428
C            0.89874484238398        0.84237414760858       -0.84265690032150
C            2.28300398599515        0.85333562044654       -0.85647676006018
C            2.95934362037127       -0.00259401119080       -0.00220471284665
C            2.28283188751558       -0.85695448625685        0.85350279106898
C            0.89857547059511       -0.84299038109356        0.84241226564305
Cl           0.03003439574771       -1.89788191736990        1.89898719845835
Cl           4.68598771132341       -0.00463200275645       -0.00407298957433
Cl           0.03041405250170        1.89918326517901       -1.89748596690111
Cl          -1.12979256733095        1.90393972140215        1.89794492888129
H           -5.16080427538513        0.00445117847841        0.00384814766495
H           -3.92348083285556        1.52048343580115        1.51526974994425
H           -3.92746479837876       -1.51340193577637       -1.50902196358862
H            2.81728529751345        1.51346601453838       -1.51759599458770
H            2.81698106454823       -1.51825306235173        1.51355874094849
22
 energy: -51.027267411235 gnorm: 0.000290661242 xtb: 6.7.1 (edcfbbe)
C           -4.08401737186365        0.00368265223869        0.00324632357575
C           -3.39823086260234        0.85559787476873        0.85251880757583
C           -2.01432350868506        0.84718905565830        0.84432859130251
C           -1.29959257218975        0.00160194676885        0.00154478339987
C           -2.01663592178403       -0.84292073239312       -0.84036143556748
C           -3.40055590581871       -0.84926602090027       -0.84686560710511
Cl          -1.13543496294435       -1.90117794219387       -1.89523081056707
C            0.18057558924674        0.00037620550530        0.00048567396856
C            0.89865600340965        0.84304981933256       -0.84334695895759
C            2.28339464409991        0.85360370017226       -0.85667233857190
C            2.95999867818312       -0.00254954772268       -0.00215761072401
C            2.28321935905743       -0.85719014963162        0.85373175790253
C            0.89848291056450       -0.84371940920468        0.84304223097989
Cl           0.03071776151000       -1.89804524048304        1.89901472266647
Cl           4.68544184598103       -0.00449996039599       -0.00393274458708
Cl           0.03110599705717        1.89922537308845       -1.89764622148942
Cl          -1.13024829662976        1.90412481929109        1.89811700148251
H           -5.16135306602178        0.00449156990689        0.00390259833914
H           -3.92462118855171        1.52114466873314        1.51586368720306
H           -3.92874205489798       -1.51402693359661       -1.50956952141668
H            2.81830134811735        1.51406289641202       -1.51807537676156
H            2.81799136598823       -1.51878619686463        1.51410660510789
22
 energy: -51.027267653316 gnorm: 0.000125218401 xtb: 6.7.1 (edcfbbe)
C           -4.08420790349288        0.00369888258879        0.00326851636244
C           -3.39857462876559        0.85566732243555        0.85257688367317
C           -2.01452160611064        0.84721078939603        0.84432007091030
C           -1.29963548031032        0.00157104274991        0.00150963653912
C           -2.01689369573958       -0.84297877659718       -0.84039439511737
C           -3.40096066850472       -0.84932373970388       -0.84690669817883
Cl          -1.13629695444513       -1.90143435784482       -1.89543382385012
C            0.18064594345628        0.00033899330245        0.00044405524350
C            0.89893518117410        0.84305573636745       -0.84338704671799
C            2.28377017378849        0.85363947879110       -0.85666825890553
C            2.96034043516177       -0.00250931769423       -0.00211550491397
C            2.28359167546685       -0.85719838391987        0.85375594761777
C            0.89875881528679       -0.84377493296296        0.84302712460396
Cl           0.03147907178288       -1.89832123647178        1.89912063933048
Cl           4.68584667747348       -0.00439200326084       -0.00381905033897
Cl           0.03187535074492        1.89939827619335       -1.89786453142742
Cl          -1.13096922512292        1.90431541584755        1.89824175312952
H           -5.16174892572297        0.00452540679575        0.00394680836550
H           -3.92531087668468        1.52115471237594        1.51586353276271
H           -3.92954302446747       -1.51400622555037       -1.50953045641358
H            2.81893256347869        1.51410738842192       -1.51804857110592
H            2.81861689277868       -1.51877602277009        1.51413752618734
22
 energy: -51.027267678761 gnorm: 0.000023098548 xtb: 6.7.1 (edcfbbe)
C           -4.08417905254680        0.00371406802726        0.00328856057655
C           -3.39850033999601        0.85566616182979        0.85256094715256
C           -2.01448770826652        0.84717338123279        0.84426129683955
C           -1.29964747093065        0.00154251014631        0.00147682214288
C           -2.01691550444897       -0.84297516364017       -0.84037425595651
C           -3.40094383789793       -0.84931233952495       -0.84687619927031
Cl          -1.13634981601954       -1.90144362566703       -1.89538835054378
C            0.18061677102662        0.00030331725061        0.00040459348127
C            0.89891456344421        0.84301182873074       -0.84336320771033
C            2.28372037556629        0.85363860878458       -0.85662129773976
C            2.96031463896593       -0.00247347987821       -0.00207814523121
C            2.28353855797994       -0.85717201419466        0.85373504134271
C            0.89873499503738       -0.84377710667547        0.84295237168752
Cl           0.03148059965097       -1.89836509165546        1.89901048018037
Cl           4.68585447699318       -0.00429135673732       -0.00371370024408
Cl           0.03188417390080        1.89934594248747       -1.89785873646862
Cl          -1.13089421774959        1.90426410517618        1.89812458718788
H           -5.16166840419314        0.00455651908973        0.00398783819346
H           -3.92522097145358        1.52112703331796        1.51581054079181
H           -3.92955773173004       -1.51395172373472       -1.50944204785788
H            2.81887867001233        1.51409552665599       -1.51794997702843
H            2.81855702388116       -1.51870865253164        1.51409699623047
