
                                 *****************
                                 * O   R   C   A *
                                 *****************

                                            #,                                       
                                            ###                                      
                                            ####                                     
                                            #####                                    
                                            ######                                   
                                           ########,                                 
                                     ,,################,,,,,                         
                               ,,#################################,,                 
                          ,,##########################################,,             
                       ,#########################################, ''#####,          
                    ,#############################################,,   '####,        
                  ,##################################################,,,,####,       
                ,###########''''           ''''###############################       
              ,#####''   ,,,,##########,,,,          '''####'''          '####       
            ,##' ,,,,###########################,,,                        '##       
           ' ,,###''''                  '''############,,,                           
         ,,##''                                '''############,,,,        ,,,,,,###''
      ,#''                                            '''#######################'''  
     '                                                          ''''####''''         
             ,#######,   #######,   ,#######,      ##                                
            ,#'     '#,  ##    ##  ,#'     '#,    #''#        ,####,   ,####,        
            ##       ##  ##   ,#'  ##            #'  '#       #'       #'  '#        
            ##       ##  #######   ##           ,######,      #####,   #    #        
            '#,     ,#'  ##    ##  '#,     ,#' ,#      #,     #,   #   #,  ,#        
             '#######'   ##     ##  '#######'  #'      '#     '####' # '####'        



                #########################################################
                #                        -***-                          #
                #          Department of theory and spectroscopy        #
                #                                                       #
                #                      Frank Neese                      #
                #                                                       #
                #     Directorship, Architecture, Infrastructure        #
                #                    SHARK, DRIVERS                     #
                #        Core code/Algorithms in most modules           #
                #                                                       #
                #        Max Planck Institute fuer Kohlenforschung      #
                #                Kaiser Wilhelm Platz 1                 #
                #                 D-45470 Muelheim/Ruhr                 #
                #                      Germany                          #
                #                                                       #
                #                  All rights reserved                  #
                #                        -***-                          #
                #########################################################


                         Program Version 6.0.0  -   RELEASE  -


 With contributions from (in alphabetic order):
   Daniel Aravena         : Magnetic Suceptibility
   Michael Atanasov       : Ab Initio Ligand Field Theory (pilot matlab implementation)
   Alexander A. Auer      : GIAO ZORA, VPT2 properties, NMR spectrum
   Ute Becker             : All parallelization in ORCA, NUMFREQ, NUMCALC
   Giovanni Bistoni       : ED, misc. LED, open-shell LED, HFLD
   Martin Brehm           : Molecular dynamics
   Dmytro Bykov           : pre 5.0 version of the SCF Hessian
   Marcos Casanova-Páez   : Triplet and SCS-CIS(D). UHF-(DLPNO)-IP/EA/STEOM-CCSD. UHF-CVS-IP/STEOM-CCSD
   Vijay G. Chilkuri      : MRCI spin determinant printing, contributions to CSF-ICE
   Pauline Colinet        : FMM embedding
   Dipayan Datta          : RHF DLPNO-CCSD density
   Achintya Kumar Dutta   : EOM-CC, STEOM-CC
   Nicolas Foglia         : Exact transition moments, OPA infrastructure, MCD improvements
   Dmitry Ganyushin       : Spin-Orbit,Spin-Spin,Magnetic field MRCI
   Miquel Garcia          : C-PCM and meta-GGA Hessian, CCSD/C-PCM, Gaussian charge scheme
   Tiago L. C. Gouveia    : GS-ROHF, GS-ROCIS
   Yang Guo               : DLPNO-NEVPT2, F12-NEVPT2, CIM, IAO-localization
   Andreas Hansen         : Spin unrestricted coupled pair/coupled cluster methods
   Ingolf Harden          : AUTO-CI MPn and infrastructure 
   Benjamin Helmich-Paris : MC-RPA, TRAH-(SCF,CASSCF), AVAS, COSX integrals, SCF dyn. polar.
   Lee Huntington         : MR-EOM, pCC
   Robert Izsak           : Overlap fitted RIJCOSX, COSX-SCS-MP3, EOM
   Riya Kayal             : Wick's Theorem for AUTO-CI, AUTO-CI UHF-CCSDT
   Emily Kempfer          : AUTO-CI, RHF CISDT and CCSDT
   Christian Kollmar      : KDIIS, OOCD, Brueckner-CCSD(T), CCSD density, CASPT2, CASPT2-K, improved NEVPT2
   Axel Koslowski         : Symmetry handling
   Simone Kossmann        : Meta GGA functionals, TD-DFT gradient, OOMP2, (MP2 Hessian; deprecated post 5.0)
   Lucas Lang             : DCDCAS
   Marvin Lechner         : AUTO-CI (C++ implementation), FIC-MRCC
   Spencer Leger          : CASSCF response
   Dagmar Lenk            : GEPOL surface, SMD, ORCA-2-JSON
   Dimitrios Liakos       : Extrapolation schemes; Compound Job, initial MDCI parallelization
   Dimitrios Manganas     : Further ROCIS development; embedding schemes. LFT, Crystal Embedding
   Dimitrios Pantazis     : SARC Basis sets
   Anastasios Papadopoulos: AUTO-CI, single reference methods and gradients
   Taras Petrenko         : pre 6.0 DFT Hessian and TD-DFT gradient, (ASA, deprecated), ECA, 1-Electron XAS/XES, NRVS
   Peter Pinski           : DLPNO-MP2, DLPNO-MP2 Gradient
   Christoph Reimann      : Effective Core Potentials
   Marius Retegan         : Local ZFS, SOC
   Christoph Riplinger    : Optimizer, TS searches, QM/MM, DLPNO-CCSD(T), (RO)-DLPNO pert. Triples
   Michael Roemelt        : Original ROCIS implementation
   Masaaki Saitow         : Open-shell DLPNO-CCSD energy and density
   Barbara Sandhoefer     : DKH picture change effects
   Kantharuban Sivalingam : CASSCF convergence/infrastructure, NEVPT2 and variants, FIC-MRCI
   Bernardo de Souza      : ESD, SOC TD-DFT
   Georgi Stoychev        : AutoAux, RI-MP2 NMR, DLPNO-MP2 response, X2C
   Van Anh Tran           : RI-MP2 g-tensors
   Willem Van den Heuvel  : Paramagnetic NMR
   Zikuan Wang            : NOTCH, Electric field optimization 
   Frank Wennmohs         : Technical directorship and infrastructure
   Hang Xu                : AUTO-CI-Response properties 


 We gratefully acknowledge several colleagues who have allowed us to
 interface, adapt or use parts of their codes:
   Stefan Grimme, W. Hujo, H. Kruse, P. Pracht,  : VdW corrections, initial TS optimization,
                  C. Bannwarth, S. Ehlert,         DFT functionals, gCP, sTDA/sTD-DF
                  L. Wittmann, M. Mueller
   Ed Valeev, F. Pavosevic, A. Kumar             : LibInt (2-el integral package), F12 methods
   Garnet Chan, S. Sharma, J. Yang, R. Olivares  : DMRG
   Ulf Ekstrom                                   : XCFun DFT Library
   Mihaly Kallay                                 : mrcc  (arbitrary order and MRCC methods)
   Frank Weinhold                                : gennbo (NPA and NBO analysis)
   Simon Mueller                                 : openCOSMO-RS
   Christopher J. Cramer and Donald G. Truhlar   : smd solvation model
   Lars Goerigk                                  : TD-DFT with DH, B97 family of functionals
   V. Asgeirsson, H. Jonsson                     : NEB implementation
   FAccTs GmbH                                   : IRC, NEB, NEB-TS, DLPNO-Multilevel, CI-OPT
                                                   MM, QMMM, 2- and 3-layer-ONIOM, Crystal-QMMM,
                                                   LR-CPCM, SF, NACMEs, symmetry and pop. for TD-DFT,
                                                   nearIR, NL-DFT gradient (VV10), updates on ESD,
                                                   ML-optimized integration grids, MBIS, APM,
                                                   GOAT, DOCKER, SOLVATOR, interface openCOSMO-RS
   S Lehtola, MJT Oliveira, MAL Marques          : LibXC Library
   Liviu Ungur et al                             : ANISO software


 Your calculation uses the libint2 library for the computation of 2-el integrals
 For citations please refer to: http://libint.valeyev.net

 Your ORCA version has been built with support for libXC version: 6.2.2
 For citations please refer to: https://libxc.gitlab.io

 This ORCA versions uses:
   CBLAS   interface :  Fast vector & matrix operations
   LAPACKE interface :  Fast linear algebra routines
   SCALAPACK package :  Parallel linear algebra routines
   Shared memory     :  Shared parallel matrices
   BLAS/LAPACK       :  OpenBLAS 0.3.27  USE64BITINT DYNAMIC_ARCH NO_AFFINITY SkylakeX SINGLE_THREADED
        Core in use  :  SkylakeX
   Copyright (c) 2011-2014, The OpenBLAS Project


Your calculation utilizes the geometrical counterpoise correction gCP
Please cite in your paper:
H.Kruse, S. Grimme J.Chem.Phys., 136, (2012), 154101 
   

Your calculation utilizes the DFT-NL dispersion correction.
Cite in your paper:
Vydrov, O. A.; Van Voorhis, T. J. Chem. Phys. 2010, 133, 244103
Hujo, W.; Grimme, S. J. Chem. Theory Comput. 2011, 7, 3866 
   

================================================================================

----- Orbital basis set information -----
Your calculation utilizes the basis: def2-TZVP
   F. Weigend and R. Ahlrichs, Phys. Chem. Chem. Phys. 7, 3297 (2005).

----- AuxJ basis set information -----
Your calculation utilizes the auxiliary basis: def2/J
   F. Weigend, Phys. Chem. Chem. Phys. 8, 1057 (2006).

================================================================================
                                        WARNINGS
                       Please study these warnings very carefully!
================================================================================


================================================================================
                                       INPUT FILE
================================================================================
NAME = sp_gas.inp
|  1> ! wb97x-v def2-tzvp def2/J RIJCOSX DEFGRID2 scfconv7 GCP(DFT/TZ) printgap
|  2> %output
|  3>     printlevel normal
|  4> end
|  5> * xyz 0 1
|  6> C 2.1169766467944915 -0.0038932542675079746 -0.0140232867556296
|  7> C 0.830305460774414 -0.6885359735465046 0.4370864166282506
|  8> C -0.4695328594248199 0.03210336409452041 0.04525810553913973
|  9> C -0.49788491148343744 1.478265377389953 0.518025187450596
| 10> C -1.6697833710102337 -0.7368204432670226 0.5926521751650372
| 11> O -0.5734397216983668 0.09902986999111914 -1.407089307583444
| 12> H 2.9812042838695003 -0.640442205075684 0.20038030130147047
| 13> H 2.2736828794062016 0.9478377056562275 0.5028798956406222
| 14> H 2.1081640993013275 0.19227160430398485 -1.091079023974039
| 15> H 0.8366348838181803 -0.809056080149742 1.5275057586263592
| 16> H 0.7827488762403892 -1.7005484954236112 0.012142618962512765
| 17> H 0.2927996844638416 2.0650402087043096 0.042223451017992845
| 18> H -1.461191545615249 1.9375203313550573 0.2742826954248334
| 19> H -0.3578951801967735 1.5244447806466856 1.6020456694367489
| 20> H -2.604186480593811 -0.2665333634942225 0.27058822138547567
| 21> H -1.6574606187547931 -1.772354139772162 0.23381777716819765
| 22> H -1.6507121330658365 -0.755008563318103 1.6871324019645246
| 23> H -0.5710842176550645 -0.8121672551616954 -1.7312928122996634
| 24> *
| 25> 
| 26>                          ****END OF INPUT****
================================================================================

                       ****************************
                       * Single Point Calculation *
                       ****************************

---------------------------------
CARTESIAN COORDINATES (ANGSTROEM)
---------------------------------
  C      2.116977   -0.003893   -0.014023
  C      0.830305   -0.688536    0.437086
  C     -0.469533    0.032103    0.045258
  C     -0.497885    1.478265    0.518025
  C     -1.669783   -0.736820    0.592652
  O     -0.573440    0.099030   -1.407089
  H      2.981204   -0.640442    0.200380
  H      2.273683    0.947838    0.502880
  H      2.108164    0.192272   -1.091079
  H      0.836635   -0.809056    1.527506
  H      0.782749   -1.700548    0.012143
  H      0.292800    2.065040    0.042223
  H     -1.461192    1.937520    0.274283
  H     -0.357895    1.524445    1.602046
  H     -2.604186   -0.266533    0.270588
  H     -1.657461   -1.772354    0.233818
  H     -1.650712   -0.755009    1.687132
  H     -0.571084   -0.812167   -1.731293

----------------------------
CARTESIAN COORDINATES (A.U.)
----------------------------
  NO LB      ZA    FRAG     MASS         X           Y           Z
   0 C     6.0000    0    12.011    4.000506   -0.007357   -0.026500
   1 C     6.0000    0    12.011    1.569050   -1.301144    0.825974
   2 C     6.0000    0    12.011   -0.887289    0.060667    0.085525
   3 C     6.0000    0    12.011   -0.940866    2.793517    0.978926
   4 C     6.0000    0    12.011   -3.155433   -1.392389    1.119950
   5 O     8.0000    0    15.999   -1.083644    0.187139   -2.659013
   6 H     1.0000    0     1.008    5.633660   -1.210260    0.378664
   7 H     1.0000    0     1.008    4.296638    1.791154    0.950305
   8 H     1.0000    0     1.008    3.983853    0.363341   -2.061841
   9 H     1.0000    0     1.008    1.581011   -1.528894    2.886568
  10 H     1.0000    0     1.008    1.479181   -3.213571    0.022946
  11 H     1.0000    0     1.008    0.553311    3.902360    0.079791
  12 H     1.0000    0     1.008   -2.761252    3.661383    0.518319
  13 H     1.0000    0     1.008   -0.676324    2.880783    3.027428
  14 H     1.0000    0     1.008   -4.921199   -0.503675    0.511338
  15 H     1.0000    0     1.008   -3.132147   -3.349264    0.441852
  16 H     1.0000    0     1.008   -3.119394   -1.426759    3.188218
  17 H     1.0000    0     1.008   -1.079193   -1.534774   -3.271669

--------------------------------
INTERNAL COORDINATES (ANGSTROEM)
--------------------------------
 C      0   0   0     0.000000000000     0.00000000     0.00000000
 C      1   0   0     1.525699301462     0.00000000     0.00000000
 C      2   1   0     1.537019888936   115.30430789     0.00000000
 C      3   2   1     1.521741476498   112.46539091   305.25341082
 C      3   2   1     1.526920226977   109.71035283   181.65405328
 O      3   2   1     1.457596927008   109.62259013    62.08705035
 H      1   2   3     1.094556016854   110.30288384   186.74097799
 H      1   2   3     1.094320594427   111.80028606    67.22212735
 H      1   2   3     1.094809286500   111.37651291   306.21671003
 H      2   1   3     1.097077708777   109.77398637   237.71817185
 H      2   1   3     1.098639251230   109.60285932   121.11331063
 H      4   3   2     1.093560297983   111.17877770    63.31119895
 H      4   3   2     1.094662133502   110.23812470   183.44820320
 H      4   3   2     1.093997288624   110.21676750   303.06147998
 H      5   3   2     1.094533827218   110.43842606   183.33302975
 H      5   3   2     1.096012779126   110.46169226   303.50891687
 H      5   3   2     1.094797463773   110.67487724    63.24910191
 H      6   3   2     0.967157516518   106.89225814    59.61234456

---------------------------
INTERNAL COORDINATES (A.U.)
---------------------------
 C      0   0   0     0.000000000000     0.00000000     0.00000000
 C      1   0   0     2.883153842479     0.00000000     0.00000000
 C      2   1   0     2.904546652479   115.30430789     0.00000000
 C      3   2   1     2.875674637210   112.46539091   305.25341082
 C      3   2   1     2.885461057330   109.71035283   181.65405328
 O      3   2   1     2.754459005690   109.62259013    62.08705035
 H      1   2   3     2.068411110090   110.30288384   186.74097799
 H      1   2   3     2.067966226178   111.80028606    67.22212735
 H      1   2   3     2.068889720359   111.37651291   306.21671003
 H      2   1   3     2.073176417218   109.77398637   237.71817185
 H      2   1   3     2.076127304801   109.60285932   121.11331063
 H      4   3   2     2.066529474117   111.17877770    63.31119895
 H      4   3   2     2.068611641492   110.23812470   183.44820320
 H      4   3   2     2.067355266751   110.21676750   303.06147998
 H      5   3   2     2.068369177755   110.43842606   183.33302975
 H      5   3   2     2.071163991825   110.46169226   303.50891687
 H      5   3   2     2.068867378642   110.67487724    63.24910191
 H      6   3   2     1.827662834582   106.89225814    59.61234456

---------------------
BASIS SET INFORMATION
---------------------
There are 3 groups of distinct atoms

 Group   1 Type C   : 11s6p2d1f contracted to 5s3p2d1f pattern {62111/411/11/1}
 Group   2 Type O   : 11s6p2d1f contracted to 5s3p2d1f pattern {62111/411/11/1}
 Group   3 Type H   : 5s1p contracted to 3s1p pattern {311/1}

Atom   0C    basis set group =>   1
Atom   1C    basis set group =>   1
Atom   2C    basis set group =>   1
Atom   3C    basis set group =>   1
Atom   4C    basis set group =>   1
Atom   5O    basis set group =>   2
Atom   6H    basis set group =>   3
Atom   7H    basis set group =>   3
Atom   8H    basis set group =>   3
Atom   9H    basis set group =>   3
Atom  10H    basis set group =>   3
Atom  11H    basis set group =>   3
Atom  12H    basis set group =>   3
Atom  13H    basis set group =>   3
Atom  14H    basis set group =>   3
Atom  15H    basis set group =>   3
Atom  16H    basis set group =>   3
Atom  17H    basis set group =>   3
---------------------------------
AUXILIARY/J BASIS SET INFORMATION
---------------------------------
There are 3 groups of distinct atoms

 Group   1 Type C   : 12s5p4d2f1g contracted to 6s4p3d1f1g pattern {711111/2111/211/2/1}
 Group   2 Type O   : 12s5p4d2f1g contracted to 6s4p3d1f1g pattern {711111/2111/211/2/1}
 Group   3 Type H   : 5s2p1d contracted to 3s1p1d pattern {311/2/1}

Atom   0C    basis set group =>   1
Atom   1C    basis set group =>   1
Atom   2C    basis set group =>   1
Atom   3C    basis set group =>   1
Atom   4C    basis set group =>   1
Atom   5O    basis set group =>   2
Atom   6H    basis set group =>   3
Atom   7H    basis set group =>   3
Atom   8H    basis set group =>   3
Atom   9H    basis set group =>   3
Atom  10H    basis set group =>   3
Atom  11H    basis set group =>   3
Atom  12H    basis set group =>   3
Atom  13H    basis set group =>   3
Atom  14H    basis set group =>   3
Atom  15H    basis set group =>   3
Atom  16H    basis set group =>   3
Atom  17H    basis set group =>   3

Checking for AutoStart:
The File: sp_gas.gbw exists
Trying to determine its content:
     ... Fine, the file contains calculation information
     ... Fine, the calculation information was read
     ... Fine, the file contains a basis set
     ... Fine, the basis set was read
     ... Fine, the file contains a geometry
     ... Fine, the geometry was read
     ... Fine, the file contains a set of orbitals
     ... Fine, the orbitals can be read
     => possible old guess file was deleted
     => GBW file was renamed to GES file
     => GES file is set as startup file
     => Guess is set to MORead
     ... now leaving AutoStart

------------------------------------------------------------------------------
                             ORCA STARTUP CALCULATIONS
                           -- RI-GTO INTEGRALS CHOSEN --
------------------------------------------------------------------------------
------------------------------------------------------------------------------
                   ___                                                        
                  /   \      - P O W E R E D   B Y -                         
                 /     \                                                     
                 |  |  |   _    _      __       _____    __    __             
                 |  |  |  | |  | |    /  \     |  _  \  |  |  /  |          
                  \  \/   | |  | |   /    \    | | | |  |  | /  /          
                 / \  \   | |__| |  /  /\  \   | |_| |  |  |/  /          
                |  |  |   |  __  | /  /__\  \  |    /   |      \           
                |  |  |   | |  | | |   __   |  |    \   |  |\   \          
                \     /   | |  | | |  |  |  |  | |\  \  |  | \   \       
                 \___/    |_|  |_| |__|  |__|  |_| \__\ |__|  \__/        
                                                                              
                      - O R C A' S   B I G   F R I E N D -                    
                                      &                                       
                       - I N T E G R A L  F E E D E R -                       
                                                                              
 v1 FN, 2020, v2 2021, v3 2022-2024                                           
------------------------------------------------------------------------------


----------------------
SHARK INTEGRAL PACKAGE
----------------------

Number of atoms                             ...     18
Number of basis functions                   ...    258
Number of shells                            ...    114
Maximum angular momentum                    ...      3
Integral batch strategy                     ... SHARK/LIBINT Hybrid
RI-J (if used) integral strategy            ... SPLIT-RIJ (Revised 2003 algorithm where possible)
Printlevel                                  ...      1
Contraction scheme used                     ... SEGMENTED contraction
Prescreening option                         ... SCHWARTZ
   Thresh                                   ... 3.000e-11
   Tcut                                     ... 1.000e-12
   Tpresel                                  ... 1.000e-12 
Coulomb Range Separation                    ... NOT USED
Exchange Range Separation                   ... Long Range
   Mu parameter                             ... 3.000e-01
   Scaling (regular/separated)              ... 1.670e-01 8.330e-01
Multipole approximations                    ... NOT USED
Finite Nucleus Model                        ... NOT USED
CABS basis                                  ... NOT available
Auxiliary Coulomb fitting basis             ... AVAILABLE
   # of basis functions in Aux-J            ...    426
   # of shells in Aux-J                     ...    150
   Maximum angular momentum in Aux-J        ...      4
Auxiliary J/K fitting basis                 ... NOT available
Auxiliary Correlation fitting basis         ... NOT available
Auxiliary 'external' fitting basis          ... NOT available

Checking pre-screening integrals            ... done (  0.0 sec) Dimension = 114
Check shell pair data                       ... done (  0.0 sec)
Shell pair information
Shell pair cut-off parameter TPreSel        ...   1.0e-12
Total number of shell pairs                 ...      6555
Shell pairs after pre-screening             ...      6284
Total number of primitive shell pairs       ...     18696
Primitive shell pairs kept                  ...     14078
          la=0 lb=0:   2061 shell pairs
          la=1 lb=0:   1904 shell pairs
          la=1 lb=1:    456 shell pairs
          la=2 lb=0:    767 shell pairs
          la=2 lb=1:    357 shell pairs
          la=2 lb=2:     78 shell pairs
          la=3 lb=0:    388 shell pairs
          la=3 lb=1:    180 shell pairs
          la=3 lb=2:     72 shell pairs
          la=3 lb=3:     21 shell pairs

Calculating one electron integrals          ... done (  0.0 sec)
Calculating RI/J V-Matrix + Cholesky decomp.... done (  0.1 sec)
Calculating Nuclear repulsion               ... done (  0.0 sec) ENN=    267.548565627985 Eh

Diagonalization of the overlap matrix:
Smallest eigenvalue                        ... 1.735e-04
Time for diagonalization                   ...    0.007 sec
Threshold for overlap eigenvalues          ... 1.000e-07
Number of eigenvalues below threshold      ... 0
Time for construction of square roots      ...    0.017 sec
Total time needed                          ...    0.033 sec

-------------------
DFT GRID GENERATION
-------------------

General Integration Accuracy     IntAcc      ... 4.388
Radial Grid Type                 RadialGrid  ... OptM3 with GC (2021)
Angular Grid (max. ang.)         AngularGrid ... 4 (Lebedev-302)
Angular grid pruning method      GridPruning ... 4 (adaptive)
Weight generation scheme         WeightScheme... mBecke (2022)
Basis function cutoff            BFCut       ... 1.0000e-11
Integration weight cutoff        WCut        ... 1.0000e-14
Partially contracted basis set               ... off
Rotationally invariant grid construction     ... off
Angular grids for H and He will be reduced by one unit

Total number of grid points                  ...    74507
Total number of batches                      ...     1172
Average number of points per batch           ...       63
Average number of grid points per atom       ...     4139

--------------------
COSX GRID GENERATION
--------------------

GRIDX 1
-------
General Integration Accuracy     IntAcc      ... 3.816
Radial Grid Type                 RadialGrid  ... OptM3 with GC (2021)
Angular Grid (max. ang.)         AngularGrid ... 1 (Lebedev-50)
Angular grid pruning method      GridPruning ... 4 (adaptive)
Weight generation scheme         WeightScheme... mBecke (2022)
Basis function cutoff            BFCut       ... 1.0000e-11
Integration weight cutoff        WCut        ... 1.0000e-14
Partially contracted basis set               ... on
Rotationally invariant grid construction     ... off
Angular grids for H and He will be reduced by one unit

Total number of grid points                  ...     9583
Total number of batches                      ...       87
Average number of points per batch           ...      110
Average number of grid points per atom       ...      532
UseSFitting                                  ... on

GRIDX 2
-------
General Integration Accuracy     IntAcc      ... 4.020
Radial Grid Type                 RadialGrid  ... OptM3 with GC (2021)
Angular Grid (max. ang.)         AngularGrid ... 2 (Lebedev-110)
Angular grid pruning method      GridPruning ... 4 (adaptive)
Weight generation scheme         WeightScheme... mBecke (2022)
Basis function cutoff            BFCut       ... 1.0000e-11
Integration weight cutoff        WCut        ... 1.0000e-14
Partially contracted basis set               ... on
Rotationally invariant grid construction     ... off
Angular grids for H and He will be reduced by one unit

Total number of grid points                  ...    19821
Total number of batches                      ...      164
Average number of points per batch           ...      120
Average number of grid points per atom       ...     1101
UseSFitting                                  ... on

GRIDX 3
-------
General Integration Accuracy     IntAcc      ... 4.338
Radial Grid Type                 RadialGrid  ... OptM3 with GC (2021)
Angular Grid (max. ang.)         AngularGrid ... 3 (Lebedev-194)
Angular grid pruning method      GridPruning ... 4 (adaptive)
Weight generation scheme         WeightScheme... mBecke (2022)
Basis function cutoff            BFCut       ... 1.0000e-11
Integration weight cutoff        WCut        ... 1.0000e-14
Partially contracted basis set               ... on
Rotationally invariant grid construction     ... off
Angular grids for H and He will be reduced by one unit

Total number of grid points                  ...    43201
Total number of batches                      ...      347
Average number of points per batch           ...      124
Average number of grid points per atom       ...     2400
UseSFitting                                  ... on
Initializing property integral containers    ... done (  0.0 sec)

SHARK setup successfully completed in   2.0 seconds

Maximum memory used throughout the entire STARTUP-calculation: 40.2 MB
-------------------------------------------------------------------------------
                                 ORCA GUESS
                   Start orbitals & Density for SCF / CASSCF
-------------------------------------------------------------------------------

------------
SCF SETTINGS
------------
Hamiltonian:
 Density Functional     Method          .... DFT(GTOs)
 Exchange Functional    Exchange        .... WB97X-V
 Correlation Functional Correlation     .... WB97X-V
 Gradients option       PostSCFGGA      .... off
 Hybrid DFT is turned on
   Fraction HF Exchange ScalHFX         ....  0.167000
   Scaling of DF-GGA-X  ScalDFX         ....  0.000000
   Scaling of DF-GGA-C  ScalDFC         ....  1.000000
   Scaling of DF-LDA-C  ScalLDAC        ....  1.000000
   Perturbative correction              ....  0.000000
 Long-range corrected/Screened/Range-Separated Hybrid DFT is turned on
   Amount of maximum screened exact exchange              ....  0.833000
   Range separation parameter mu (erf(mu*r12)/r12)        ....  0.300000
   NL short-range parameter             ....  6.000000
   NL long-range parameter              ....  0.010000
 RI-approximation to the Coulomb term is turned on
   Number of AuxJ basis functions       .... 426
   RIJ-COSX (HFX calculated with COS-X)).... on


General Settings:
 Integral files         IntName         .... sp_gas
 Hartree-Fock type      HFTyp           .... RHF
 Total Charge           Charge          ....    0
 Multiplicity           Mult            ....    1
 Number of Electrons    NEL             ....   50
 Basis Dimension        Dim             ....  258
 Nuclear Repulsion      ENuc            ....    267.5485656280 Eh

Convergence Acceleration:
 AO-DIIS                CNVDIIS         .... on
   Start iteration      DIISMaxIt       ....    12
   Startup error        DIISStart       ....  0.200000
   # of expansion vecs  DIISMaxEq       ....     5
   Bias factor          DIISBfac        ....   1.050
   Max. coefficient     DIISMaxC        ....  10.000
 MO-DIIS                CNVKDIIS        .... off
 Trust-Rad. Augm. Hess. CNVTRAH         .... auto
   Auto Start mean grad. ratio tolernc. ....  1.125000
   Auto Start start iteration           ....     1
   Auto Start num. interpolation iter.  ....    10
   Max. Number of Micro iterations      ....    24
   Max. Number of Macro iterations      .... Maxiter - #DIIS iter
   Number of Davidson start vectors     ....     2
   Converg. threshold    (grad. norm)   ....   1.000e-04
   Grad. Scal. Fac. for Micro threshold ....   0.100
   Minimum threshold for Micro iter.    ....   1.000e-02
   NR start threshold (gradient norm)   ....   1.000e-04
   Initial trust radius                 ....   0.400
   Minimum AH scaling param. (alpha)    ....   1.000
   Maximum AH scaling param. (alpha)    .... 1000.000
   Quad. conv. algorithm                .... NR
   White noise on init. David. guess    .... on
   Maximum white noise                  ....   0.010
   Pseudo random numbers                .... off
   Inactive MOs                         .... canonical
   Orbital update algorithm             .... Taylor
   Preconditioner                       .... Diag
   Full preconditioner red. dimension   ....   250
 SOSCF                  CNVSOSCF        .... on
   Start iteration      SOSCFMaxIt      ....   150
   Startup grad/error   SOSCFStart      ....  0.003300
   Hessian update       SOSCFHessUp     .... L-BFGS
 Level Shifting         CNVShift        .... on
   Level shift para.    LevelShift      ....    0.2500
   Turn off err/grad.   ShiftErr        ....    0.0010
 Zerner damping         CNVZerner       .... off
 Static damping         CNVDamp         .... on
   Fraction old density DampFac         ....    0.7000
   Max. Damping (<1)    DampMax         ....    0.9800
   Min. Damping (>=0)   DampMin         ....    0.0000
   Turn off err/grad.   DampErr         ....    0.1000

SCF Procedure:
 Maximum # iterations   MaxIter         ....   125
 SCF integral mode      SCFMode         .... Direct
   Integral package                     .... SHARK and LIBINT hybrid scheme
 Reset frequency        DirectResetFreq ....    20
 Integral Threshold     Thresh          ....  3.000e-11 Eh
 Primitive CutOff       TCut            ....  1.000e-12 Eh

Convergence Tolerance:
 Convergence Check Mode ConvCheckMode   .... Total+1el-Energy
 Convergence forced     ConvForced      .... 0
 Energy Change          TolE            ....  1.000e-07 Eh
 1-El. energy change                    ....  1.000e-04 Eh
 Orbital Gradient       TolG            ....  1.000e-04
 Orbital Rotation angle TolX            ....  1.000e-04
 DIIS Error             TolErr          ....  1.000e-07

---------------------
INITIAL GUESS: MOREAD
---------------------
Guess MOs are being read from file: sp_gas.ges
Input Geometry matches current geometry (good)
Atom 0: N(Shells)= 11 and 9 - projection required
Input basis set needs projection
NBasis(read)= 179
NBasis(calc)= 258
Basis set overlap was calculated
Using GuessMode=FMatrix for the initial guess
C*T matrix was formed
Effective Fockian was calculated
Effective Fockian was diagonalized
Initial density was built
                      ------------------
                      INITIAL GUESS DONE (   0.0 sec)
                      ------------------
             **** ENERGY FILE WAS UPDATED (sp_gas.en.tmp) ****
Finished Guess after   0.3 sec
Maximum memory used throughout the entire GUESS-calculation: 21.7 MB

-------------------------------------------------------------------------------------------
                                      ORCA LEAN-SCF
                              memory conserving SCF solver
-------------------------------------------------------------------------------------------

----------------------------------------D-I-I-S--------------------------------------------
Iteration    Energy (Eh)           Delta-E    RMSDP     MaxDP     DIISErr   Damp  Time(sec)
-------------------------------------------------------------------------------------------
               ***  Starting incremental Fock matrix formation  ***
    1    -273.1891675216543263     0.00e+00  1.01e-03  2.84e-02  4.85e-02  0.700  13.5
    2    -273.1931897136699945    -4.02e-03  8.94e-04  2.68e-02  3.44e-02  0.700   7.0
                               ***Turning on AO-DIIS***
    3    -273.1961528613963992    -2.96e-03  7.35e-04  2.25e-02  2.41e-02  0.700   6.8
    4    -273.1982971495272068    -2.14e-03  1.87e-03  5.81e-02  1.67e-02  0.000   6.9
                              *** Initializing SOSCF ***
---------------------------------------S-O-S-C-F--------------------------------------
Iteration    Energy (Eh)           Delta-E    RMSDP     MaxDP     MaxGrad    Time(sec)
--------------------------------------------------------------------------------------
    5    -273.2037880775421854    -5.49e-03  1.11e-04  3.52e-03  2.03e-03     7.1
               *** Restarting incremental Fock matrix formation ***
    6    -273.2038061774427433    -1.81e-05  4.63e-05  1.12e-03  2.04e-04    13.6
    7    -273.2038087105582918    -2.53e-06  2.28e-05  6.07e-04  1.58e-04    10.4
    8    -273.2038100018063460    -1.29e-06  5.21e-06  1.83e-04  1.90e-05    10.0
                  *** Gradient check signals convergence ***

               *****************************************************
               *                     SUCCESS                       *
               *           SCF CONVERGED AFTER   8 CYCLES          *
               *****************************************************


------------------
NL GRID GENERATION
------------------

General Integration Accuracy     IntAcc      ... 4.004
Radial Grid Type                 RadialGrid  ... OptM3 with GC (2021)
Angular Grid (max. ang.)         AngularGrid ... 2 (Lebedev-110)
Angular grid pruning method      GridPruning ... 4 (adaptive)
Weight generation scheme         WeightScheme... mBecke (2022)
Basis function cutoff            BFCut       ... 1.0000e-10
Integration weight cutoff        WCut        ... 1.0000e-14
Partially contracted basis set               ... off
Rotationally invariant grid construction     ... off
Angular grids for H and He will be reduced by one unit

Total number of grid points                  ...    21949
Total number of batches                      ...      354
Average number of points per batch           ...       62
Average number of grid points per atom       ...     1219
Final grid set up in    0.2 sec

-------------------------------------------------------------------------------
                    post-SCF DFT-NL dispersion correction                      
-------------------------------------------------------------------------------

SCF Energy:     -273.203810002 
NL    Energy:      0.190118977 
SC+NL Energy:   -273.013691025 
NL done in  :              2.0 sec
-------------------------------------------------------------------------------
Recomputing exchange energy using gridx3       ... done (   23.874 sec)
Old exchange energy                            :    -12.922874191 Eh
New exchange energy                            :    -12.922877328 Eh
Exchange energy change after final integration :     -0.000003137 Eh
Total energy after final integration           :   -273.013694162 Eh
             **** ENERGY FILE WAS UPDATED (sp_gas.en.tmp) ****

----------------
TOTAL SCF ENERGY
----------------

Total Energy       :       -273.01369416172378 Eh           -7429.08031 eV

Components:
Nuclear Repulsion  :        267.54856562798511 Eh            7280.36660 eV
Electronic Energy  :       -540.75237562979146 Eh          -14714.62022 eV
One Electron Energy:       -898.79274040087330 Eh          -24457.39386 eV
Two Electron Energy:        358.04036477108184 Eh            9742.77364 eV

Virial components:
Potential Energy   :       -544.81899235714513 Eh          -14825.27848 eV
Kinetic Energy     :        271.80529819542136 Eh            7396.19818 eV
Virial Ratio       :          2.00444581461188

DFT components:
N(Alpha)           :       24.999956238551 electrons
N(Beta)            :       24.999956238551 electrons
N(Total)           :       49.999912477102 electrons
E(X)               :      -25.459816387724 Eh       
E(C)               :       -2.012359022910 Eh       
NL Energy, E(C,NL) :        0.190118977267 Eh       
E(XC)              :      -27.282056433366 Eh       

---------------
SCF CONVERGENCE
---------------

  Last Energy change         ...    1.2912e-06  Tolerance :   1.0000e-07
  Last MAX-Density change    ...    1.8255e-04  Tolerance :   1.0000e-05
  Last RMS-Density change    ...    5.2136e-06  Tolerance :   1.0000e-06
  Last DIIS Error            ...    2.0319e-03  Tolerance :   1.0000e-07
  Last Orbital Gradient      ...    1.8993e-05  Tolerance :   1.0000e-04
  Last Orbital Rotation      ...    2.1758e-05  Tolerance :   1.0000e-04


----------------
ORBITAL ENERGIES
----------------

  NO   OCC          E(Eh)            E(eV) 
   0   2.0000     -21.663075      -589.4822 
   1   2.0000     -12.102019      -329.3127 
   2   2.0000     -12.043506      -327.7205 
   3   2.0000     -12.035923      -327.5141 
   4   2.0000     -12.031535      -327.3947 
   5   2.0000     -12.031062      -327.3818 
   6   2.0000      -1.661251       -45.2049 
   7   2.0000      -1.320261       -35.9261 
   8   2.0000      -1.240235       -33.7485 
   9   2.0000      -1.186486       -32.2859 
  10   2.0000      -1.120241       -30.4833 
  11   2.0000      -1.083246       -29.4766 
  12   2.0000      -0.987366       -26.8676 
  13   2.0000      -0.937712       -25.5164 
  14   2.0000      -0.929113       -25.2825 
  15   2.0000      -0.867442       -23.6043 
  16   2.0000      -0.861951       -23.4549 
  17   2.0000      -0.847640       -23.0655 
  18   2.0000      -0.818651       -22.2766 
  19   2.0000      -0.814540       -22.1648 
  20   2.0000      -0.809871       -22.0377 
  21   2.0000      -0.801019       -21.7968 
  22   2.0000      -0.780232       -21.2312 
  23   2.0000      -0.766483       -20.8571 
  24   2.0000      -0.758999       -20.6534 
  25   0.0000      -0.147302        -4.0083 
  26   0.0000      -0.060152        -1.6368 
  27   0.0000      -0.029909        -0.8139 
  28   0.0000      -0.015177        -0.4130 
  29   0.0000      -0.012524        -0.3408 
  30   0.0000      -0.004566        -0.1243 
  31   0.0000       0.016851         0.4585 
  32   0.0000       0.029318         0.7978 
  33   0.0000       0.038738         1.0541 
  34   0.0000       0.044991         1.2243 
  35   0.0000       0.054690         1.4882 
*Only the first 10 virtual orbitals were printed.

                    ********************************
                    * MULLIKEN POPULATION ANALYSIS *
                    ********************************

-----------------------
MULLIKEN ATOMIC CHARGES
-----------------------
   0 C :   -0.358147
   1 C :   -0.197310
   2 C :    0.206370
   3 C :   -0.361191
   4 C :   -0.344845
   5 O :   -0.448027
   6 H :    0.114079
   7 H :    0.114704
   8 H :    0.121537
   9 H :    0.092016
  10 H :    0.086964
  11 H :    0.127762
  12 H :    0.116257
  13 H :    0.105113
  14 H :    0.125318
  15 H :    0.100092
  16 H :    0.106948
  17 H :    0.292359
Sum of atomic charges:   -0.0000000

--------------------------------
MULLIKEN REDUCED ORBITAL CHARGES
--------------------------------
  0 C s       :     3.237722  s :     3.237722
      pz      :     1.056760  p :     3.059799
      px      :     0.972352
      py      :     1.030686
      dz2     :     0.015757  d :     0.057286
      dxz     :     0.007270
      dyz     :     0.007192
      dx2y2   :     0.013262
      dxy     :     0.013805
      f0      :     0.000806  f :     0.003340
      f+1     :     0.000375
      f-1     :     0.000257
      f+2     :     0.000160
      f-2     :     0.000260
      f+3     :     0.000727
      f-3     :     0.000755

  1 C s       :     3.194736  s :     3.194736
      pz      :     1.018064  p :     2.904017
      px      :     0.906513
      py      :     0.979441
      dz2     :     0.022806  d :     0.093166
      dxz     :     0.013027
      dyz     :     0.008185
      dx2y2   :     0.030231
      dxy     :     0.018917
      f0      :     0.001051  f :     0.005391
      f+1     :     0.000696
      f-1     :     0.000240
      f+2     :     0.000398
      f-2     :     0.000616
      f+3     :     0.001361
      f-3     :     0.001028

  2 C s       :     3.081444  s :     3.081444
      pz      :     0.664334  p :     2.481868
      px      :     0.850802
      py      :     0.966732
      dz2     :     0.048998  d :     0.215676
      dxz     :     0.049019
      dyz     :     0.040455
      dx2y2   :     0.035124
      dxy     :     0.042080
      f0      :     0.002389  f :     0.014642
      f+1     :     0.003850
      f-1     :     0.003065
      f+2     :     0.000806
      f-2     :     0.000874
      f+3     :     0.002356
      f-3     :     0.001301

  3 C s       :     3.243725  s :     3.243725
      pz      :     1.028352  p :     3.062647
      px      :     1.089575
      py      :     0.944720
      dz2     :     0.014629  d :     0.051501
      dxz     :     0.002776
      dyz     :     0.006886
      dx2y2   :     0.007782
      dxy     :     0.019427
      f0      :     0.000862  f :     0.003318
      f+1     :     0.000100
      f-1     :     0.000449
      f+2     :     0.000279
      f-2     :     0.000146
      f+3     :     0.000692
      f-3     :     0.000789

  4 C s       :     3.250109  s :     3.250109
      pz      :     1.034261  p :     3.037968
      px      :     0.981381
      py      :     1.022327
      dz2     :     0.016093  d :     0.053463
      dxz     :     0.005356
      dyz     :     0.004128
      dx2y2   :     0.018519
      dxy     :     0.009367
      f0      :     0.000923  f :     0.003305
      f+1     :     0.000354
      f-1     :     0.000174
      f+2     :     0.000194
      f-2     :     0.000243
      f+3     :     0.000595
      f-3     :     0.000822

  5 O s       :     3.776294  s :     3.776294
      pz      :     1.330671  p :     4.641652
      px      :     1.900763
      py      :     1.410217
      dz2     :     0.010259  d :     0.028573
      dxz     :     0.003494
      dyz     :     0.006319
      dx2y2   :     0.006939
      dxy     :     0.001561
      f0      :     0.000445  f :     0.001508
      f+1     :     0.000208
      f-1     :     0.000162
      f+2     :     0.000228
      f-2     :     0.000038
      f+3     :     0.000070
      f-3     :     0.000357

  6 H s       :     0.864951  s :     0.864951
      pz      :     0.004519  p :     0.020970
      px      :     0.009775
      py      :     0.006676

  7 H s       :     0.864224  s :     0.864224
      pz      :     0.005919  p :     0.021072
      px      :     0.004430
      py      :     0.010724

  8 H s       :     0.857369  s :     0.857369
      pz      :     0.012498  p :     0.021094
      px      :     0.004195
      py      :     0.004401

  9 H s       :     0.886848  s :     0.886848
      pz      :     0.012648  p :     0.021136
      px      :     0.004170
      py      :     0.004318

 10 H s       :     0.892080  s :     0.892080
      pz      :     0.005079  p :     0.020956
      px      :     0.004113
      py      :     0.011765

 11 H s       :     0.850818  s :     0.850818
      pz      :     0.005767  p :     0.021420
      px      :     0.008739
      py      :     0.006915

 12 H s       :     0.862634  s :     0.862634
      pz      :     0.004552  p :     0.021109
      px      :     0.010587
      py      :     0.005969

 13 H s       :     0.874097  s :     0.874097
      pz      :     0.012322  p :     0.020790
      px      :     0.004275
      py      :     0.004193

 14 H s       :     0.853620  s :     0.853620
      pz      :     0.004788  p :     0.021062
      px      :     0.010736
      py      :     0.005539

 15 H s       :     0.879014  s :     0.879014
      pz      :     0.004866  p :     0.020894
      px      :     0.004223
      py      :     0.011806

 16 H s       :     0.872041  s :     0.872041
      pz      :     0.012619  p :     0.021011
      px      :     0.004206
      py      :     0.004185

 17 H s       :     0.660741  s :     0.660741
      pz      :     0.011921  p :     0.046900
      px      :     0.016874
      py      :     0.018105


------------------------
MULLIKEN OVERLAP CHARGES
------------------------
B(  0-C ,  1-C ) :   0.5804 B(  0-C ,  2-C ) :  -0.0870 B(  0-C ,  6-H ) :   0.8244 
B(  0-C ,  7-H ) :   0.8362 B(  0-C ,  8-H ) :   0.8152 B(  0-C ,  9-H ) :  -0.0683 
B(  0-C , 10-H ) :  -0.0610 B(  1-C ,  2-C ) :   0.7291 B(  1-C ,  3-C ) :  -0.1610 
B(  1-C ,  4-C ) :  -0.1283 B(  1-C ,  6-H ) :  -0.0805 B(  1-C ,  7-H ) :  -0.0735 
B(  1-C ,  8-H ) :  -0.0668 B(  1-C ,  9-H ) :   0.8083 B(  1-C , 10-H ) :   0.8005 
B(  2-C ,  3-C ) :   0.5321 B(  2-C ,  4-C ) :   0.7316 B(  2-C ,  5-O ) :   0.5780 
B(  2-C ,  9-H ) :  -0.0674 B(  2-C , 10-H ) :  -0.0640 B(  2-C , 11-H ) :  -0.0727 
B(  2-C , 12-H ) :  -0.0669 B(  2-C , 13-H ) :  -0.0527 B(  2-C , 14-H ) :  -0.0926 
B(  2-C , 16-H ) :  -0.0638 B(  2-C , 17-H ) :  -0.0661 B(  3-C ,  4-C ) :  -0.1556 
B(  3-C ,  5-O ) :  -0.1581 B(  3-C , 11-H ) :   0.8293 B(  3-C , 12-H ) :   0.8098 
B(  3-C , 13-H ) :   0.7885 B(  4-C ,  5-O ) :  -0.0686 B(  4-C , 14-H ) :   0.8463 
B(  4-C , 15-H ) :   0.7841 B(  4-C , 16-H ) :   0.8084 B(  5-O , 17-H ) :   0.5816 
B(  9-H , 10-H ) :  -0.0522 


                     *******************************
                     * LOEWDIN POPULATION ANALYSIS *
                     *******************************

----------------------
LOEWDIN ATOMIC CHARGES
----------------------
   0 C :   -0.305440
   1 C :   -0.258962
   2 C :   -0.423565
   3 C :   -0.255939
   4 C :   -0.267567
   5 O :   -0.015909
   6 H :    0.116263
   7 H :    0.116332
   8 H :    0.120794
   9 H :    0.138152
  10 H :    0.132717
  11 H :    0.124847
  12 H :    0.124589
  13 H :    0.123816
  14 H :    0.123546
  15 H :    0.117360
  16 H :    0.123081
  17 H :    0.165884

-------------------------------
LOEWDIN REDUCED ORBITAL CHARGES
-------------------------------
  0 C s       :     2.825555  s :     2.825555
      pz      :     1.078092  p :     3.191569
      px      :     1.045348
      py      :     1.068130
      dz2     :     0.066469  d :     0.263508
      dxz     :     0.035146
      dyz     :     0.034590
      dx2y2   :     0.060573
      dxy     :     0.066729
      f0      :     0.003624  f :     0.024808
      f+1     :     0.003332
      f-1     :     0.001212
      f+2     :     0.004497
      f-2     :     0.003446
      f+3     :     0.004433
      f-3     :     0.004262

  1 C s       :     2.777284  s :     2.777284
      pz      :     1.024981  p :     3.049804
      px      :     1.011571
      py      :     1.013252
      dz2     :     0.096167  d :     0.394516
      dxz     :     0.057781
      dyz     :     0.036748
      dx2y2   :     0.122603
      dxy     :     0.081218
      f0      :     0.005167  f :     0.037357
      f+1     :     0.004611
      f-1     :     0.001512
      f+2     :     0.005955
      f-2     :     0.005585
      f+3     :     0.008553
      f-3     :     0.005974

  2 C s       :     2.718186  s :     2.718186
      pz      :     0.801808  p :     2.850176
      px      :     1.012138
      py      :     1.036230
      dz2     :     0.194649  d :     0.757587
      dxz     :     0.153626
      dyz     :     0.133439
      dx2y2   :     0.133360
      dxy     :     0.142513
      f0      :     0.018970  f :     0.097617
      f+1     :     0.022294
      f-1     :     0.018737
      f+2     :     0.008065
      f-2     :     0.008293
      f+3     :     0.014103
      f-3     :     0.007155

  3 C s       :     2.822339  s :     2.822339
      pz      :     1.060214  p :     3.154870
      px      :     1.068759
      py      :     1.025897
      dz2     :     0.069250  d :     0.254310
      dxz     :     0.014609
      dyz     :     0.039286
      dx2y2   :     0.043397
      dxy     :     0.087768
      f0      :     0.003697  f :     0.024420
      f+1     :     0.000927
      f-1     :     0.003081
      f+2     :     0.003919
      f-2     :     0.003891
      f+3     :     0.004462
      f-3     :     0.004443

  4 C s       :     2.828363  s :     2.828363
      pz      :     1.063744  p :     3.156498
      px      :     1.042266
      py      :     1.050488
      dz2     :     0.075697  d :     0.258485
      dxz     :     0.029918
      dyz     :     0.021510
      dx2y2   :     0.082954
      dxy     :     0.048405
      f0      :     0.003730  f :     0.024222
      f+1     :     0.002499
      f-1     :     0.001310
      f+2     :     0.004327
      f-2     :     0.003989
      f+3     :     0.003853
      f-3     :     0.004513

  5 O s       :     3.372471  s :     3.372471
      pz      :     1.355520  p :     4.576621
      px      :     1.783561
      py      :     1.437540
      dz2     :     0.021108  d :     0.062844
      dxz     :     0.010845
      dyz     :     0.018860
      dx2y2   :     0.011205
      dxy     :     0.000825
      f0      :     0.001136  f :     0.003973
      f+1     :     0.000749
      f-1     :     0.000987
      f+2     :     0.000443
      f-2     :     0.000033
      f+3     :     0.000005
      f-3     :     0.000620

  6 H s       :     0.823535  s :     0.823535
      pz      :     0.014348  p :     0.060202
      px      :     0.025413
      py      :     0.020441

  7 H s       :     0.823180  s :     0.823180
      pz      :     0.018171  p :     0.060488
      px      :     0.012976
      py      :     0.029341

  8 H s       :     0.817995  s :     0.817995
      pz      :     0.034952  p :     0.061211
      px      :     0.012636
      py      :     0.013624

  9 H s       :     0.804072  s :     0.804072
      pz      :     0.032485  p :     0.057776
      px      :     0.012410
      py      :     0.012881

 10 H s       :     0.809989  s :     0.809989
      pz      :     0.015772  p :     0.057294
      px      :     0.012274
      py      :     0.029247

 11 H s       :     0.814149  s :     0.814149
      pz      :     0.017428  p :     0.061003
      px      :     0.025110
      py      :     0.018466

 12 H s       :     0.815107  s :     0.815107
      pz      :     0.014055  p :     0.060304
      px      :     0.030266
      py      :     0.015984

 13 H s       :     0.816094  s :     0.816094
      pz      :     0.033720  p :     0.060090
      px      :     0.013766
      py      :     0.012604

 14 H s       :     0.815983  s :     0.815983
      pz      :     0.014835  p :     0.060472
      px      :     0.028733
      py      :     0.016905

 15 H s       :     0.822799  s :     0.822799
      pz      :     0.015179  p :     0.059841
      px      :     0.012670
      py      :     0.031992

 16 H s       :     0.816616  s :     0.816616
      pz      :     0.034559  p :     0.060303
      px      :     0.012828
      py      :     0.012917

 17 H s       :     0.678158  s :     0.678158
      pz      :     0.031500  p :     0.155958
      px      :     0.046203
      py      :     0.078254


---------------------------------
LOEWDIN BOND ORDERS (THRESH 0.050000)
---------------------------------
B(  0-C ,  1-C ) :   1.2772 B(  0-C ,  2-C ) :   0.1297 B(  0-C ,  6-H ) :   0.9066 
B(  0-C ,  7-H ) :   0.9053 B(  0-C ,  8-H ) :   0.9042 B(  0-C ,  9-H ) :   0.0739 
B(  0-C , 10-H ) :   0.0739 B(  1-C ,  2-C ) :   1.1217 B(  1-C ,  3-C ) :   0.1305 
B(  1-C ,  4-C ) :   0.1488 B(  1-C ,  5-O ) :   0.1081 B(  1-C ,  6-H ) :   0.0827 
B(  1-C ,  7-H ) :   0.0759 B(  1-C ,  8-H ) :   0.0766 B(  1-C ,  9-H ) :   0.8389 
B(  1-C , 10-H ) :   0.8387 B(  2-C ,  3-C ) :   1.1871 B(  2-C ,  4-C ) :   1.1885 
B(  2-C ,  5-O ) :   1.4116 B(  2-C ,  9-H ) :   0.0761 B(  2-C , 10-H ) :   0.0792 
B(  2-C , 11-H ) :   0.0785 B(  2-C , 12-H ) :   0.0806 B(  2-C , 13-H ) :   0.0801 
B(  2-C , 14-H ) :   0.0782 B(  2-C , 15-H ) :   0.0800 B(  2-C , 16-H ) :   0.0782 
B(  2-C , 17-H ) :   0.0896 B(  3-C ,  4-C ) :   0.1463 B(  3-C ,  5-O ) :   0.1153 
B(  3-C , 11-H ) :   0.8932 B(  3-C , 12-H ) :   0.8943 B(  3-C , 13-H ) :   0.8942 
B(  4-C ,  5-O ) :   0.1166 B(  4-C , 14-H ) :   0.8978 B(  4-C , 15-H ) :   0.8961 
B(  4-C , 16-H ) :   0.8953 B(  5-O , 17-H ) :   1.0266 

------------------------------------------
LOEWDIN REDUCED ORBITAL POPULATIONS PER MO
-------------------------------------------
THRESHOLD FOR PRINTING IS 0.1%%
                      0         1         2         3         4         5   
                 -21.66308 -12.10202 -12.04351 -12.03592 -12.03154 -12.03106
                   2.00000   2.00000   2.00000   2.00000   2.00000   2.00000
                  --------  --------  --------  --------  --------  --------
 0 C  s               0.0       0.0       0.3       0.1      96.6       2.6
 1 C  s               0.0       0.0      99.1       0.0       0.3       0.0
 2 C  s               0.0      99.2       0.0       0.0       0.0       0.0
 3 C  s               0.0       0.0       0.0       0.1       2.6      96.8
 4 C  s               0.0       0.0       0.1      99.3       0.1       0.1
 5 O  s              99.9       0.0       0.0       0.0       0.0       0.0

                      6         7         8         9        10        11   
                  -1.66125  -1.32026  -1.24024  -1.18649  -1.12024  -1.08325
                   2.00000   2.00000   2.00000   2.00000   2.00000   2.00000
                  --------  --------  --------  --------  --------  --------
 0 C  s               0.0       4.3      20.0       0.0      13.3       3.0
 0 C  pz              0.0       0.2       0.2       0.0       0.2       0.4
 0 C  px              0.1       1.9       1.2       0.0       2.7       1.5
 0 C  py              0.0       0.3       0.6       0.1       0.6       0.6
 0 C  dxz             0.0       0.1       0.1       0.0       0.1       0.1
 0 C  dx2y2           0.0       0.2       0.1       0.0       0.2       0.0
 0 C  dxy             0.0       0.1       0.2       0.0       0.2       0.1
 1 C  s               0.3      13.5      13.1       0.2       5.1       3.5
 1 C  pz              0.4       0.1       0.3       0.0       0.1       1.2
 1 C  px              0.5       1.0       6.4       0.3       7.7       0.7
 1 C  py              0.2       1.2       0.1       0.7       0.9       1.0
 1 C  dz2             0.0       0.3       0.0       0.0       0.1       0.0
 1 C  dxz             0.2       0.0       0.2       0.0       0.6       0.1
 1 C  dyz             0.1       0.0       0.0       0.0       0.0       0.2
 1 C  dx2y2           0.0       0.3       0.0       0.3       0.1       0.1
 1 C  dxy             0.0       0.1       0.7       0.1       0.7       0.0
 1 C  f-3             0.0       0.1       0.1       0.0       0.0       0.0
 2 C  s               5.5      19.2       2.2       0.0       2.3       1.8
 2 C  pz              9.2       3.2       0.3       0.1       0.5       9.2
 2 C  px              0.0       0.2       8.0       3.2       6.1       1.0
 2 C  py              0.0       0.0       1.5      16.5       2.2       0.5
 2 C  dz2             3.9       1.2       0.0       0.0       0.0       0.5
 2 C  dxz             0.1       0.0       0.2       0.2       0.3       0.0
 2 C  dyz             0.0       0.0       0.0       0.6       0.2       0.4
 2 C  dx2y2           0.0       0.0       0.5       1.3       0.0       0.1
 2 C  dxy             0.0       0.0       0.7       0.5       1.0       0.1
 2 C  f0              0.6       0.0       0.0       0.0       0.0       0.0
 2 C  f-3             0.0       0.2       0.0       0.0       0.0       0.0
 3 C  s               0.3       8.0       4.9      19.0       3.8       3.7
 3 C  pz              0.5       0.1       0.0       0.0       0.2       1.7
 3 C  px              0.0       0.0       0.4       0.1       0.2       0.0
 3 C  py              0.7       3.4       0.3       0.4       0.8       1.3
 3 C  dz2             0.0       0.2       0.0       0.0       0.0       0.0
 3 C  dyz             0.2       0.1       0.0       0.0       0.1       0.7
 3 C  dx2y2           0.0       0.5       0.1       0.0       0.1       0.1
 3 C  dxy             0.0       0.0       0.1       0.1       0.2       0.0
 4 C  s               0.4       8.0       6.0      18.9       5.6       0.3
 4 C  pz              0.5       0.2       0.0       0.0       0.2       0.6
 4 C  px              0.4       2.4       0.1       0.1       1.8       0.1
 4 C  py              0.2       0.8       0.4       0.6       0.0       0.2
 4 C  dz2             0.0       0.2       0.0       0.0       0.0       0.0
 4 C  dxz             0.2       0.1       0.0       0.0       0.1       0.2
 4 C  dyz             0.1       0.0       0.0       0.0       0.0       0.2
 4 C  dx2y2           0.0       0.1       0.0       0.1       0.3       0.0
 4 C  dxy             0.0       0.4       0.1       0.1       0.0       0.0
 5 O  s              58.5       2.3       0.1       0.0       0.2       0.0
 5 O  pz              0.3       6.0       1.4       0.2       4.6      26.0
 5 O  px              0.0       0.0       0.1       0.1       0.6       0.0
 5 O  py              0.7       0.3       0.3       1.3       0.2      11.0
 5 O  dz2             0.0       0.2       0.1       0.0       0.1       0.5
 5 O  dyz             0.0       0.0       0.0       0.1       0.1       0.1
 5 O  dx2y2           0.0       0.0       0.0       0.0       0.0       0.2
 6 H  s               0.0       0.7       4.4       0.0       5.3       1.3
 6 H  px              0.0       0.0       0.3       0.0       0.2       0.0
 6 H  py              0.0       0.0       0.1       0.0       0.2       0.1
 7 H  s               0.0       0.7       4.1       0.0       5.3       1.4
 7 H  pz              0.0       0.0       0.1       0.0       0.1       0.1
 7 H  py              0.0       0.1       0.3       0.0       0.3       0.1
 8 H  s               0.0       0.7       4.1       0.0       4.9       1.6
 8 H  pz              0.0       0.1       0.4       0.0       0.5       0.1
 9 H  s               0.0       2.4       2.7       0.1       1.9       2.6
 9 H  pz              0.0       0.2       0.3       0.0       0.2       0.2
10 H  s               0.1       2.4       2.9       0.1       2.3       1.9
10 H  py              0.0       0.2       0.3       0.0       0.2       0.1
11 H  s               0.1       1.4       0.9       5.4       1.4       1.4
11 H  pz              0.0       0.0       0.0       0.1       0.0       0.1
11 H  px              0.0       0.1       0.0       0.3       0.1       0.1
11 H  py              0.0       0.1       0.0       0.2       0.0       0.0
12 H  s               0.1       1.4       1.1       4.9       1.7       1.3
12 H  px              0.0       0.1       0.1       0.4       0.1       0.1
13 H  s               0.0       1.4       1.0       5.0       1.5       2.6
13 H  pz              0.0       0.1       0.1       0.5       0.1       0.2
14 H  s               0.1       1.3       1.4       4.9       2.5       0.1
14 H  px              0.0       0.1       0.1       0.4       0.2       0.0
15 H  s               0.1       1.4       1.2       5.6       1.9       0.2
15 H  py              0.0       0.1       0.1       0.5       0.1       0.0
16 H  s               0.0       1.4       1.3       5.1       2.2       0.4
16 H  pz              0.0       0.1       0.1       0.5       0.2       0.0
17 H  s              11.7       1.5       0.3       0.2       0.9       9.9
17 H  pz              0.4       0.0       0.0       0.0       0.0       0.1
17 H  py              2.7       0.3       0.0       0.0       0.1       0.5

                     12        13        14        15        16        17   
                  -0.98737  -0.93771  -0.92911  -0.86744  -0.86195  -0.84764
                   2.00000   2.00000   2.00000   2.00000   2.00000   2.00000
                  --------  --------  --------  --------  --------  --------
 0 C  s               0.6       0.1       0.0       0.1       0.0       0.1
 0 C  pz              0.8       0.0       1.1      12.6       0.5      10.2
 0 C  px              1.5       0.3       0.5       4.9       0.2      14.3
 0 C  py              1.6       2.5       1.0       0.9       9.5       0.2
 0 C  dxz             0.1       0.0       0.1       0.4       0.0       0.0
 0 C  dyz             0.1       0.0       0.0       0.0       0.2       0.0
 0 C  dx2y2           0.0       0.0       0.1       0.0       0.0       0.1
 0 C  dxy             0.2       0.1       0.0       0.0       0.0       0.2
 1 C  s               2.1       0.3       0.2       0.1       0.0       0.3
 1 C  pz              1.5       1.0       3.7       7.5       1.5      15.7
 1 C  px              2.4       2.8       1.5       4.9       4.7       0.4
 1 C  py              2.3       6.1       2.6       9.1       2.4       2.0
 1 C  dz2             0.2       0.2       0.0       0.2       0.0       0.3
 1 C  dxz             0.1       0.2       0.1       0.2       0.1       0.6
 1 C  dyz             0.0       0.0       0.1       0.2       0.0       0.0
 1 C  dx2y2           0.4       0.1       0.0       0.1       0.0       0.3
 1 C  dxy             0.1       0.2       0.1       0.0       0.1       0.0
 2 C  s               3.0       1.8       0.1       0.1       0.1       0.0
 2 C  pz              0.3      13.0       0.5       0.8       0.1       0.7
 2 C  px              0.0       0.4      11.7       0.4       2.2       1.3
 2 C  py              1.6       1.4       0.0       5.9       4.5       1.1
 2 C  dz2             0.1       0.1       0.0       0.1       0.0       1.0
 2 C  dxz             0.0       0.0       1.9       0.4       2.4       0.3
 2 C  dyz             2.2       0.4       0.0       0.3       0.4       0.2
 2 C  dx2y2           0.0       0.1       0.0       0.4       0.1       0.3
 2 C  dxy             0.1       0.0       0.1       0.2       0.4       0.0
 2 C  f+1             0.0       0.0       0.2       0.0       0.1       0.3
 2 C  f-1             0.3       0.0       0.0       0.1       0.0       0.0
 3 C  s               0.1       1.1       0.0       0.1       0.1       0.0
 3 C  pz              0.3       0.0       0.0       1.1       0.4       1.2
 3 C  px              0.0       0.2       3.1       1.6       8.7       1.9
 3 C  py              1.0      14.1       0.6       2.3       5.3       0.8
 3 C  dz2             0.2       0.1       0.0       0.0       0.1       0.0
 3 C  dxz             0.0       0.0       0.2       0.0       0.0       0.0
 3 C  dx2y2           0.1       0.7       0.0       0.0       0.0       0.0
 3 C  dxy             0.0       0.0       0.1       0.0       0.0       0.0
 4 C  s               1.2       0.1       0.6       0.1       0.0       0.0
 4 C  pz              1.2       1.4       2.5       0.3       0.5       0.4
 4 C  px              4.1       2.9       2.3       9.4       2.0       3.4
 4 C  py              1.1       2.3       4.7       0.3      12.8       0.0
 4 C  dz2             0.0       0.2       0.0       0.1       0.0       0.0
 4 C  dxz             0.2       0.1       0.0       0.1       0.0       0.0
 4 C  dyz             0.0       0.0       0.2       0.0       0.1       0.0
 4 C  dx2y2           0.1       0.0       0.0       0.0       0.0       0.0
 4 C  dxy             0.3       0.4       0.2       0.1       0.0       0.0
 5 O  s               4.9       1.6       0.0       0.4       0.1       0.0
 5 O  pz              2.2      18.3       0.0       2.6       0.1       0.9
 5 O  px              0.0       0.1      48.1       0.2      14.8      15.6
 5 O  py             41.6       8.4       0.0       5.0       0.9       0.0
 5 O  dyz             0.0       0.0       0.0       0.1       0.1       0.0
 5 O  dx2y2           0.2       0.0       0.0       0.0       0.0       0.0
 6 H  s               0.3       0.0       0.4       1.6       0.6       5.7
 6 H  pz              0.0       0.0       0.0       0.2       0.0       0.0
 6 H  py              0.0       0.0       0.0       0.0       0.0       0.2
 7 H  s               0.8       0.9       0.0       1.2       4.3       3.0
 7 H  px              0.0       0.0       0.0       0.1       0.0       0.1
 7 H  py              0.0       0.0       0.0       0.1       0.1       0.2
 8 H  s               0.9       0.1       0.6       5.3       0.0       3.2
 8 H  pz              0.1       0.0       0.0       0.1       0.0       0.1
 8 H  px              0.0       0.0       0.0       0.1       0.0       0.1
 9 H  s               2.6       0.0       2.0       3.3       0.2       7.6
 9 H  pz              0.2       0.0       0.1       0.1       0.0       0.1
 9 H  py              0.0       0.1       0.0       0.1       0.0       0.0
10 H  s               1.8       3.8       0.5       5.9       1.5       0.2
10 H  pz              0.1       0.0       0.1       0.0       0.0       0.1
10 H  px              0.0       0.0       0.0       0.1       0.1       0.0
10 H  py              0.1       0.1       0.0       0.2       0.0       0.1
11 H  s               0.3       2.6       1.2       0.0       4.6       0.4
11 H  pz              0.0       0.1       0.0       0.0       0.1       0.0
11 H  px              0.0       0.2       0.0       0.0       0.0       0.0
12 H  s               0.3       3.3       0.3       1.2       0.9       0.9
12 H  px              0.0       0.2       0.0       0.0       0.0       0.0
12 H  py              0.0       0.0       0.0       0.0       0.2       0.0
13 H  s               0.0       0.6       0.0       0.7       0.9       0.6
13 H  py              0.0       0.2       0.0       0.0       0.1       0.0
14 H  s               1.6       0.8       0.2       3.6       2.7       1.6
14 H  px              0.0       0.0       0.0       0.0       0.1       0.0
15 H  s               1.0       1.8       2.1       0.1       5.6       0.0
15 H  px              0.0       0.0       0.0       0.1       0.0       0.0
15 H  py              0.0       0.1       0.1       0.0       0.1       0.0
16 H  s               1.6       0.1       1.7       0.3       0.1       0.0
16 H  px              0.0       0.0       0.0       0.1       0.0       0.0
16 H  py              0.0       0.0       0.0       0.0       0.2       0.0
17 H  s               6.8       0.1       0.0       0.7       0.4       0.1
17 H  pz              0.3       0.5       0.0       0.1       0.0       0.0
17 H  px              0.0       0.0       1.1       0.0       0.4       0.5
17 H  py              0.0       0.1       0.0       0.0       0.0       0.0

                     18        19        20        21        22        23   
                  -0.81865  -0.81454  -0.80987  -0.80102  -0.78023  -0.76648
                   2.00000   2.00000   2.00000   2.00000   2.00000   2.00000
                  --------  --------  --------  --------  --------  --------
 0 C  s               0.0       0.1       0.0       0.2       0.0       0.0
 0 C  pz              0.6       0.0       0.4       3.0       8.7      15.2
 0 C  px              0.5       6.3       3.6       5.1       2.0       2.6
 0 C  py              2.5       2.5      11.1       7.9       1.0       1.8
 0 C  dz2             0.0       0.1       0.2       0.1       0.6       1.9
 0 C  dxz             0.0       0.0       0.0       0.0       0.1       0.7
 0 C  dyz             0.0       0.0       0.1       0.0       0.1       1.0
 0 C  dx2y2           0.0       0.0       0.1       0.3       0.0       0.0
 0 C  dxy             0.0       0.3       0.4       0.0       0.0       0.1
 1 C  pz              0.2       0.3       0.0       1.1       4.6      11.9
 1 C  px              0.0       0.4       0.3       7.3       2.2       2.2
 1 C  py              0.2       2.2       0.2       5.4       0.4       1.1
 1 C  dz2             0.0       0.0       0.1       0.3       0.9       2.1
 1 C  dxz             0.0       0.0       0.0       0.1       0.0       0.6
 1 C  dyz             0.0       0.0       0.1       0.0       0.2       0.7
 1 C  dx2y2           0.0       0.0       0.1       1.0       0.7       0.4
 1 C  dxy             0.1       0.3       0.5       0.1       0.2       0.0
 1 C  f+3             0.0       0.1       0.1       0.0       0.0       0.0
 2 C  s               0.1       0.1       0.1       0.1       0.0       0.0
 2 C  pz              1.5       0.3       0.1       0.1       0.1       0.1
 2 C  px              0.6       0.3       0.0       0.3       2.9       4.3
 2 C  py              0.3       3.1       0.9       0.3       6.5       0.5
 2 C  dz2             1.9       0.4       0.0       0.0       0.0       0.2
 2 C  dxz             0.0       0.0       0.2       0.1       0.9       0.0
 2 C  dyz             0.1       0.4       0.7       0.0       0.3       0.3
 2 C  dx2y2           0.0       1.4       0.0       0.2       0.7       0.1
 2 C  dxy             0.0       0.0       1.0       0.2       0.8       1.4
 2 C  f+1             0.3       0.0       0.0       0.0       0.0       0.1
 2 C  f-1             0.0       0.2       0.1       0.0       0.0       0.0
 2 C  f-2             0.0       0.0       0.0       0.0       0.2       0.0
 2 C  f+3             0.0       0.0       0.1       0.5       0.0       0.0
 3 C  s               0.0       0.1       0.1       0.1       0.1       0.0
 3 C  pz              8.1      33.1       5.7       0.0       0.3       0.1
 3 C  px              2.4       3.6      13.5       4.7       7.3       2.5
 3 C  py              0.7       0.2       4.2       0.5       7.4       1.5
 3 C  dz2             0.7       1.2       0.6       0.0       0.1       0.0
 3 C  dxz             0.0       0.3       0.0       0.1       0.1       0.0
 3 C  dyz             0.1       0.1       0.1       0.0       0.2       0.1
 3 C  dx2y2           0.0       0.0       0.2       0.0       0.0       0.0
 3 C  dxy             0.0       0.2       0.4       0.3       1.4       0.6
 4 C  s               0.0       0.0       0.0       0.0       0.4       0.2
 4 C  pz             31.3       2.4      11.1       0.0       0.1       0.5
 4 C  px              0.2       0.2       1.3       9.9       4.8       3.2
 4 C  py              0.0       1.7       0.9      13.8      11.1       0.6
 4 C  dz2             2.2       0.1       0.7       0.0       0.2       0.0
 4 C  dxz             0.1       0.0       0.1       0.1       0.1       0.0
 4 C  dyz             0.0       0.0       0.1       0.1       0.1       0.0
 4 C  dx2y2           0.0       0.1       0.0       1.7       0.6       0.0
 4 C  dxy             0.0       0.0       0.0       0.5       0.0       0.0
 5 O  s               0.1       0.2       0.0       0.0       0.1       0.0
 5 O  pz              3.9       0.3       0.2       0.1       0.5       0.2
 5 O  px              4.1       0.6       0.2       0.1       0.6       2.2
 5 O  py              0.6       0.9       0.1       0.0       0.6       0.0
 5 O  dyz             0.0       0.2       0.0       0.0       0.1       0.0
 6 H  s               0.9       4.7       7.1       0.1       0.0       1.0
 6 H  pz              0.0       0.0       0.0       0.0       0.1       0.2
 6 H  px              0.0       0.0       0.1       0.1       0.0       0.0
 6 H  py              0.0       0.0       0.0       0.1       0.0       0.1
 7 H  s               1.3       0.6       3.0       2.4       0.2       7.2
 7 H  pz              0.0       0.0       0.1       0.2       0.1       0.0
 7 H  py              0.0       0.0       0.0       0.0       0.0       0.2
 8 H  s               0.1       0.1       0.9       2.5       5.8       9.9
 8 H  py              0.0       0.0       0.1       0.1       0.0       0.1
 9 H  s               0.1       0.1       0.1       1.4       4.1       8.9
 9 H  px              0.0       0.0       0.0       0.1       0.0       0.0
10 H  s               0.1       0.6       0.0       2.6       0.0       5.3
10 H  px              0.0       0.0       0.0       0.1       0.0       0.0
10 H  py              0.0       0.0       0.0       0.0       0.0       0.1
11 H  s               0.2       7.5       0.1       2.2       8.4       2.4
11 H  pz              0.1       0.1       0.1       0.0       0.1       0.0
11 H  px              0.1       0.2       0.1       0.0       0.0       0.0
11 H  py              0.0       0.3       0.1       0.0       0.0       0.0
12 H  s               3.3       0.2      11.9       1.5       1.1       0.7
12 H  pz              0.0       0.5       0.0       0.0       0.0       0.0
12 H  px              0.1       0.0       0.2       0.0       0.0       0.0
12 H  py              0.0       0.0       0.0       0.1       0.2       0.0
13 H  s               5.0      16.6       4.5       0.1       0.0       0.0
13 H  pz              0.1       0.2       0.1       0.0       0.0       0.0
13 H  px              0.0       0.1       0.1       0.1       0.1       0.0
13 H  py              0.0       0.0       0.1       0.0       0.1       0.0
14 H  s               2.4       0.9       1.3      11.7       0.2       0.6
14 H  pz              0.2       0.0       0.1       0.1       0.0       0.0
14 H  px              0.1       0.0       0.0       0.2       0.1       0.0
14 H  py              0.0       0.0       0.1       0.0       0.2       0.0
15 H  s               2.2       0.3       2.4       7.7       6.4       0.2
15 H  pz              0.2       0.1       0.1       0.1       0.0       0.0
15 H  px              0.0       0.0       0.0       0.1       0.1       0.0
15 H  py              0.2       0.0       0.1       0.1       0.0       0.0
16 H  s              18.5       1.4       6.2       0.1       0.2       0.1
16 H  pz              0.3       0.0       0.1       0.0       0.0       0.0
16 H  px              0.0       0.0       0.0       0.1       0.1       0.1
16 H  py              0.0       0.0       0.0       0.2       0.2       0.0
17 H  s               0.1       0.6       0.0       0.0       0.2       0.0
17 H  pz              0.1       0.0       0.0       0.0       0.0       0.0
17 H  px              0.1       0.0       0.0       0.0       0.0       0.0

                     24        25        26        27        28        29   
                  -0.75900  -0.14730  -0.06015  -0.02991  -0.01518  -0.01252
                   2.00000   0.00000   0.00000   0.00000   0.00000   0.00000
                  --------  --------  --------  --------  --------  --------
 0 C  s               0.0       0.2       0.5       5.6       1.5       0.9
 0 C  pz              0.0       0.0       0.1       1.3       0.2       0.3
 0 C  px              2.9       0.2       0.1       4.7       0.1       0.8
 0 C  py              8.8       0.1       0.1       2.2       0.1       0.1
 0 C  dz2             0.1       0.0       0.0       2.2       1.0       0.0
 0 C  dxz             0.0       0.0       0.0       0.5       0.1       0.6
 0 C  dyz             0.1       0.0       0.1       0.1       0.2       0.1
 0 C  dx2y2           1.8       0.0       0.3       2.6       1.4       0.4
 0 C  dxy             1.1       0.0       0.8       0.5       0.2       0.8
 0 C  f+3             0.1       0.0       0.0       0.1       0.0       0.0
 0 C  f-3             0.0       0.0       0.0       0.3       0.0       0.0
 1 C  s               0.3       0.1       1.1       5.1       2.6       4.2
 1 C  pz              0.1       0.1       0.4       1.2       2.1       2.4
 1 C  px              4.6       0.2       0.6       0.7       9.8       0.6
 1 C  py             12.4       0.0       4.4       3.8       1.3       0.4
 1 C  dz2             0.0       1.2       0.5       1.5       2.1       0.2
 1 C  dxz             0.0       2.4       0.1       0.1       1.5       0.1
 1 C  dyz             0.1       0.8       1.1       0.4       0.0       0.2
 1 C  dx2y2           2.2       0.0       1.0       5.5       0.0       0.1
 1 C  dxy             0.4       0.0       0.4       1.4       7.7       0.1
 1 C  f0              0.0       0.2       0.0       0.1       0.0       0.1
 1 C  f+1             0.0       0.0       0.0       0.0       0.1       0.0
 1 C  f+2             0.1       0.1       0.1       0.2       0.0       0.0
 1 C  f-2             0.0       0.2       0.0       0.0       0.2       0.0
 1 C  f-3             0.0       0.0       0.0       0.4       0.4       0.0
 2 C  s               0.1       5.2       2.9       1.1       9.8       2.4
 2 C  pz              0.0      28.6       0.3       0.3       1.5       0.7
 2 C  px              7.7       0.1       0.0       0.0       5.8       8.5
 2 C  py              4.7       0.0       1.1       8.0       0.2       0.8
 2 C  dz2             0.0       6.8       0.0       0.4       1.9       0.1
 2 C  dxz             0.5       0.1       0.0       0.2       0.3       0.9
 2 C  dyz             0.2       0.1       0.3       0.5       0.1       0.1
 2 C  dx2y2           1.2       0.0       0.4       8.0       0.2       0.7
[...]
 5 O  dxz             0.1       0.0       1.0      14.5       0.8       0.2
 5 O  dyz             0.0       0.8       0.0       0.3       2.4       5.6
 5 O  dx2y2           0.0       3.8       0.0       0.0       0.3       0.7
 5 O  dxy             4.1       0.0       0.2       0.1       0.0       0.0
 5 O  f0              0.0       0.0       0.0       0.0      17.2      15.1
 5 O  f+1             0.0       0.4       0.0      61.7       2.0       0.7
 5 O  f-1             0.3       1.9       0.9       3.1      24.0      40.2
 5 O  f+2             1.0      36.0       0.0       0.2      18.7       0.1
 5 O  f-2            23.1       1.6      61.2       0.1       0.2       0.3
 5 O  f+3            61.9       1.2      26.6       0.0       0.0       0.0
 5 O  f-3             1.4      38.6       0.1       0.3       2.6       2.9
 9 H  s               0.0       0.0       0.0       0.1       0.0       0.1
11 H  s               0.1       0.0       0.0       0.0       0.0       0.0
12 H  s               0.1       0.0       0.0       0.0       0.0       0.0
13 H  s               0.0       0.1       0.0       0.0       0.2       0.0
16 H  s               0.0       0.0       0.0       0.1       0.0       0.1
17 H  s               0.0       0.3       0.0       0.1       0.6       0.5
17 H  pz              0.0       0.9       0.0       0.0       0.4       1.7
17 H  px              0.7       0.0       2.3       0.0       0.0       0.0
17 H  py              0.0       0.0       0.0       0.0       0.3       0.1

                    246       247       248       249       250       251   
                   5.86256   6.03145   6.31406   6.39800   6.57433   6.77971
                   0.00000   0.00000   0.00000   0.00000   0.00000   0.00000
                  --------  --------  --------  --------  --------  --------
 1 C  s               0.0       0.3       0.1       0.0       0.0       0.0
 1 C  pz              0.1       0.1       0.0       0.2       0.0       0.0
 1 C  px              0.0       0.1       0.1       0.0       0.1       0.0
 2 C  s               0.1       0.0       0.2       0.0       0.8       0.0
 2 C  pz              0.1       0.0       0.5       0.0       3.1       0.0
 2 C  px              0.0       0.2       0.0       0.7       0.0       0.0
 2 C  py              0.2       0.0       0.2       0.0       0.1       0.3
 2 C  dz2             0.7       0.0       0.4       0.0       1.9       0.0
 2 C  dxz             0.0       0.0       0.0       2.3       0.0       0.0
 2 C  dyz             0.1       0.0       1.1       0.0       0.1       0.7
 2 C  dx2y2           1.2       0.0       0.0       0.0       0.0       0.3
 2 C  dxy             0.0       1.1       0.0       0.1       0.0       0.0
 2 C  f0              0.2       0.0       0.0       0.0       0.2       0.1
 2 C  f+1             0.0       0.0       0.0       1.3       0.0       0.0
 2 C  f-1             0.2       0.0       0.4       0.0       0.0       0.7
 2 C  f+2             0.2       0.0       0.0       0.0       0.0       0.0
 3 C  s               0.1       0.0       0.1       0.0       0.1       0.0
 3 C  pz              0.1       0.0       0.1       0.0       0.0       0.0
 3 C  py              0.0       0.0       0.0       0.0       0.2       0.0
 3 C  dz2             0.1       0.0       0.0       0.0       0.0       0.1
 3 C  dyz             0.2       0.0       0.0       0.0       0.0       0.0
 4 C  s               0.1       0.1       0.1       0.0       0.1       0.0
 4 C  pz              0.1       0.1       0.0       0.2       0.0       0.0
 5 O  s               4.5       0.0       1.8       0.0       2.5       3.5
 5 O  pz              0.0       0.0       0.1       0.0       3.1       0.5
 5 O  px              0.0       0.0       0.0       1.1       0.0       0.0
 5 O  py              3.0       0.0       3.4       0.0       0.1       1.9
 5 O  dz2             0.7       0.0       0.5       1.5      73.7       3.1
 5 O  dxz             0.2       0.4       0.2      79.1       1.4       0.0
 5 O  dyz             6.5       0.7      42.9       0.0       3.3      35.5
 5 O  dx2y2          42.4       0.4      34.7       0.3       0.1      16.1
 5 O  dxy             0.0      91.8       0.9       0.4       0.0       0.1
 5 O  f0              8.8       0.0       2.6       0.4       7.6       4.1
 5 O  f+1             0.0       0.2       0.0      10.6       0.3       0.0
 5 O  f-1             0.0       0.0       0.9       0.0       0.0       7.8
 5 O  f+2            15.8       0.0       0.4       0.1       0.0       6.3
 5 O  f-2             0.0       0.1       0.1       0.5       0.0       0.0
 5 O  f+3             0.0       2.9       0.0       0.0       0.0       0.0
 5 O  f-3             6.8       0.0       5.2       0.0       0.3       9.7
17 H  s               4.6       0.0       2.0       0.0       0.0       8.0
17 H  pz              0.0       0.0       0.2       0.0       0.1       0.1
17 H  px              0.0       0.4       0.0       0.0       0.0       0.0
17 H  py              1.9       0.0       0.2       0.0       0.1       0.5

                    252       253       254       255       256       257   
                  20.73332  20.78643  20.83326  20.89487  21.00888  41.70508
                   0.00000   0.00000   0.00000   0.00000   0.00000   0.00000
                  --------  --------  --------  --------  --------  --------
 0 C  s              85.2       0.9      11.5       1.0       0.0       0.0
 1 C  s               1.0       5.0       0.3      86.1       6.3       0.0
 2 C  s               0.1       3.9       0.3       4.1      90.3       0.2
 2 C  py              0.0       0.0       0.1       0.0       0.0       0.0
 3 C  s               8.1      16.2      71.3       1.9       0.9       0.0
 4 C  s               4.1      72.4      15.0       5.6       1.3       0.0
 5 O  s               0.0       0.0       0.0       0.0       0.2      99.7
 5 O  pz              0.0       0.0       0.0       0.0       0.3       0.0
 5 O  dz2             0.0       0.0       0.0       0.0       0.1       0.0
 6 H  s               0.2       0.0       0.0       0.0       0.0       0.0
 7 H  s               0.2       0.0       0.0       0.0       0.0       0.0
 8 H  s               0.2       0.0       0.0       0.0       0.0       0.0
 8 H  pz              0.1       0.0       0.0       0.0       0.0       0.0
 9 H  s               0.0       0.0       0.0       0.2       0.0       0.0
10 H  s               0.0       0.0       0.0       0.2       0.0       0.0
11 H  s               0.0       0.1       0.2       0.0       0.0       0.0
12 H  s               0.0       0.0       0.2       0.0       0.0       0.0
13 H  s               0.0       0.0       0.2       0.0       0.0       0.0
14 H  s               0.0       0.2       0.0       0.0       0.0       0.0
15 H  s               0.0       0.2       0.0       0.0       0.0       0.0
16 H  s               0.0       0.2       0.0       0.0       0.0       0.0



                      *****************************
                      * MAYER POPULATION ANALYSIS *
                      *****************************

  NA   - Mulliken gross atomic population
  ZA   - Total nuclear charge
  QA   - Mulliken gross atomic charge
  VA   - Mayer's total valence
  BVA  - Mayer's bonded valence
  FA   - Mayer's free valence

  ATOM       NA         ZA         QA         VA         BVA        FA
  0 C      6.3581     6.0000    -0.3581     3.9038     3.9038    -0.0000
  1 C      6.1973     6.0000    -0.1973     3.8958     3.8958    -0.0000
  2 C      5.7936     6.0000     0.2064     3.9134     3.9134    -0.0000
  3 C      6.3612     6.0000    -0.3612     3.8530     3.8530    -0.0000
  4 C      6.3448     6.0000    -0.3448     3.9077     3.9077    -0.0000
  5 O      8.4480     8.0000    -0.4480     1.9541     1.9541    -0.0000
  6 H      0.8859     1.0000     0.1141     0.9718     0.9718     0.0000
  7 H      0.8853     1.0000     0.1147     0.9701     0.9701    -0.0000
  8 H      0.8785     1.0000     0.1215     0.9941     0.9941     0.0000
  9 H      0.9080     1.0000     0.0920     0.9785     0.9785    -0.0000
 10 H      0.9130     1.0000     0.0870     0.9776     0.9776     0.0000
 11 H      0.8722     1.0000     0.1278     0.9788     0.9788    -0.0000
 12 H      0.8837     1.0000     0.1163     0.9846     0.9846    -0.0000
 13 H      0.8949     1.0000     0.1051     0.9750     0.9750    -0.0000
 14 H      0.8747     1.0000     0.1253     0.9803     0.9803    -0.0000
 15 H      0.8999     1.0000     0.1001     0.9823     0.9823    -0.0000
 16 H      0.8931     1.0000     0.1069     0.9787     0.9787    -0.0000
 17 H      0.7076     1.0000     0.2924     0.9327     0.9327    -0.0000

  Mayer bond orders larger than 0.100000
B(  0-C ,  1-C ) :   0.9779 B(  0-C ,  6-H ) :   0.9825 B(  0-C ,  7-H ) :   0.9828 
B(  0-C ,  8-H ) :   0.9766 B(  1-C ,  2-C ) :   0.9930 B(  1-C ,  9-H ) :   0.9670 
B(  1-C , 10-H ) :   0.9662 B(  2-C ,  3-C ) :   0.9363 B(  2-C ,  4-C ) :   0.9926 
B(  2-C ,  5-O ) :   0.9876 B(  3-C , 11-H ) :   0.9861 B(  3-C , 12-H ) :   0.9793 
B(  3-C , 13-H ) :   0.9730 B(  4-C , 14-H ) :   0.9861 B(  4-C , 15-H ) :   0.9653 
B(  4-C , 16-H ) :   0.9727 B(  5-O , 17-H ) :   0.9036 

-------
TIMINGS
-------

Total SCF time: 0 days 0 hours 1 min 41 sec 

Total time                  ....     101.961 sec
Sum of individual times     ....      99.564 sec  ( 97.6%)

SCF preparation             ....       0.223 sec  (  0.2%)
Fock matrix formation       ....      98.322 sec  ( 96.4%)
  Startup                   ....       0.052 sec  (  0.1% of F)
  Split-RI-J                ....       3.597 sec  (  3.7% of F)
  Chain of spheres X        ....      83.573 sec  ( 85.0% of F)
  XC integration            ....      12.639 sec  ( 12.9% of F)
    Basis function eval.    ....       2.896 sec  ( 22.9% of XC)
    Density eval.           ....       2.496 sec  ( 19.7% of XC)
    XC-Functional eval.     ....       2.788 sec  ( 22.1% of XC)
    XC-Potential eval.      ....       3.823 sec  ( 30.2% of XC)
Diagonalization             ....       0.000 sec  (  0.0%)
Density matrix formation    ....       0.171 sec  (  0.2%)
Total Energy calculation    ....       0.037 sec  (  0.0%)
Population analysis         ....       0.144 sec  (  0.1%)
Orbital Transformation      ....       0.066 sec  (  0.1%)
Orbital Orthonormalization  ....       0.000 sec  (  0.0%)
DIIS solution               ....       0.279 sec  (  0.3%)
  MO trafo                  ....       0.000 sec  (  0.0 % of DIIS)
  Orb grad                  ....       0.000 sec  (  0.0 % of DIIS)
  Energy W gradient         ....       0.000 sec  (  0.0 % of DIIS)
  DIIS error                ....       0.010 sec  (  3.5 % of DIIS)
  DIIS work                 ....       0.225 sec  ( 80.8 % of DIIS)
  Form Q                    ....       0.000 sec  (  0.0 % of DIIS)
  Form QpQm                 ....       0.000 sec  (  0.0 % of DIIS)
  Exp/Cayley                ....       0.000 sec  (  0.0 % of DIIS)
  Orb update                ....       0.000 sec  (  0.0 % of DIIS)
  Wake-sleep                ....       0.012 sec  (  4.1 % of DIIS)
SOSCF solution              ....       0.138 sec  (  0.1%)
  MO trafo                  ....       0.064 sec  ( 46.1 % of SOSCF)
  Orb grad                  ....       0.002 sec  (  1.3 % of SOSCF)
  Rot update                ....       0.032 sec  ( 23.4 % of SOSCF)
  Step                      ....       0.040 sec  ( 29.1 % of SOSCF)
Grid generation             ....       0.185 sec  (  0.2%)
Finished LeanSCF after 102.1 sec

Maximum memory used throughout the entire LEANSCF-calculation: 33.2 MB
------------------   -----------------
gCP correction             0.013094464
------------------   -----------------

-------------------------   --------------------
FINAL SINGLE POINT ENERGY      -273.000599697324
-------------------------   --------------------


------------------------------------------------------------------------------
                              ORCA PROPERTY CALCULATIONS
------------------------------------------------------------------------------

GBWName                                 ... sp_gas.gbw
Number of atoms                         ...     18
Number of basis functions               ...    258
Max core memory                         ...   1024 MB

Electric properties:
Dipole moment                           ... YES
Quadrupole moment                       ...  NO
Static polarizability (Dipole/Dipole)   ...  NO
Static polarizability (Dipole/Quad.)    ...  NO
Static polarizability (Quad./Quad.)     ...  NO
Static polarizability (Velocity)        ...  NO

Atomic electric properties:
Dipole moment                           ...  NO
Quadrupole moment                       ...  NO
Static polarizability                   ...  NO

Choice of electric origin               ... Center of mass
Position of electric origin             ...    -0.095817     0.052929     0.000262

General magnetic properties:
Magnetizability                         ...  NO

EPR properties:
g-Tensor (aka g-matrix)                 ...  NO
Zero-Field splitting spin-orbit         ...  NO
Zero-field splitting spin-spin          ...  NO
Hyperfine couplings                     ...  NO (   0 nuclei)
Quadrupole couplings                    ...  NO (   0 nuclei)
Contact density                         ...  NO (   0 nuclei)

NMR properties:
Chemical shifts                         ...  NO (   0 nuclei)
Spin-rotation constants                 ...  NO (   0 nuclei)
Spin-spin couplings                     ...  NO (   0 nuclei,    0 pairs)

Choice of magnetic origin               ... GIAO
Position of magnetic origin             ...     0.000000     0.000000     0.000000

Properties with geometric perturbations:
SCF Hessian                             ...  NO
IR spectrum                             ...  NO
VCD spectrum                            ...  NO
X-ray spectroscopy properties:
SCF XES/XAS/RIXS spectra                ...  NO


-------------
DIPOLE MOMENT
-------------

Method             : SCF
Type of density    : Electron Density
Multiplicity       :   1
Irrep              :   0
Energy             :  -273.0136941617237767 Eh
Relativity type    : 
Basis              : AO
                                X                 Y                 Z
Electronic contribution:     -1.422349959      -0.097096768      -2.889360315
Nuclear contribution   :      1.475673707      -0.397771608       3.289980611
                        -----------------------------------------
Total Dipole Moment    :      0.053323748      -0.494868376       0.400620296
                        -----------------------------------------
Magnitude (a.u.)       :      0.638932511
Magnitude (Debye)      :      1.624037378



--------------------
Rotational spectrum 
--------------------
 
Rotational constants in cm-1:             0.150065             0.086344             0.084407 
Rotational constants in MHz :          4498.830005          2588.520608          2530.469322 

Dipole components along the rotational axes: 
x,y,z [a.u.] :    -0.051133     0.519013    -0.369115 
x,y,z [Debye]:    -0.129970     1.319226    -0.938216 

 

Dipole moment calculation done in   0.0 sec 

Maximum memory used throughout the entire PROP-calculation: 19.5 MB

--------------------------------
SUGGESTED CITATIONS FOR THIS RUN
--------------------------------

Below you find a list of papers that are relevant to this ORCA run
We neither can nor want to force you to cite these papers, but we appreciate if you do
You receive ORCA, which is the product of decades of hard work by many enthusiastic individuals, for free
The only thing we kindly ask in return is that you cite our papers,
We deeply appreciate it, if you show your appreciation for ORCA by not just citing the generic ORCA reference.

Please note that relegating all ORCA citations to the supporting information does *not* help us.
SI sections are not indexed - citations you put there will not count into any citation statistics
But we need these citations in order to attract the funding resources that allow us to do what we are doing

Therefore, if you are a happy ORCA user, please consider citing a few of the papers listed below in the main body of your paper

In addition to the list printed below, the program has created the file sp_gas.bibtex that contains the list in bibtex format
You can import this file easily into all common literature databanks and citation aid programs


List of essential papers. We consider these as the minimum necessary citations

  1. Neese,F.
     Software update: the ORCA program system, version 5.0
     WIRES Comput. Molec. Sci., 2022 12(1)e1606
     doi.org/10.1002/wcms.1606

List of papers to cite with high priority. The work reported in these papers was absolutely
necessary for this run to complete.
Our perspective: the developers of density functionals and basis sets usually get cited in chemistry papers
Good! But without the algorithms to do something with them, the functionals or basis sets would not do anything.
Hence, in our opinion, the algorithm design and method developments papers are equally worthy of getting cited

  1. Neese,F.
     An improvement of the resolution of the identity approximation for the formation of the Coulomb matrix
     J. Comp. Chem., 2003 24(14)1740-1747
     doi.org/10.1002/jcc.10318
  2. Neese,F.; Wennmohs,F.; Hansen,A.; Becker,U.
     Efficient, approximate and parallel Hartree-Fock and hybrid DFT calculations. A 'chain-of-spheres' algorithm for the Hartree-Fock exchange
     Chem. Phys., 2009 356(1-3)98-109
     doi.org/10.1016/j.chemphys.2008.10.036
  3. Helmich-Paris,B.; de Souza,B.; Neese,F.; Izsák,R.
     An improved chain of spheres for exchange algorithm
     J. Chem. Phys., 2021 155 104109
     doi.org/doi: 10.1063/5.0058766.
  4. Neese,F.
     The SHARK Integral Generation and Digestion System
     J. Comp. Chem., 2022  1-16
     doi.org/10.1002/jcc.26942

List of suggested additional citations. These are papers that are important in the 'surrounding' of 
of this run, or papers that preceded the highly important papers. If you like your results we are grateful for a citation.

  1. Izsak,R.; Neese,F.
     An overlap fitted chain of spheres exchange method
     J. Chem. Phys., 2011 135 144105
     doi.org/10.1063/1.3646921
  2. Izsak,R.; Hansen,A.; Neese,F.
     The resolution of identity and chain of spheres approximations for the LPNO-CCSD singles Fock term
     Molec. Phys., 2012 110 2413-2417
     doi.org/10.1080/00268976.2012.687466
  3. Neese,F.
     The ORCA program system
     WIRES Comput. Molec. Sci., 2012 2(1)73-78
     doi.org/10.1002/wcms.81
  4. Izsak,R.; Neese,F.; Klopper,W.
     Robust fitting techniques in the chain of spheres approximation to the Fock exchange: The role of the complementary space
     J. Chem. Phys., 2013 139 
     doi.org/10.1063/1.4819264
  5. Neese,F.
     Software update: the ORCA program system, version 4.0
     WIRES Comput. Molec. Sci., 2018 8(1)1-6
     doi.org/10.1002/wcms.1327
  6. Neese,F.; Wennmohs,F.; Becker,U.; Riplinger,C.
     The ORCA quantum chemistry program package
     J. Chem. Phys., 2020 152 Art. No. L224108
     doi.org/10.1063/5.0004608

List of optional additional citations

  1. Neese,F.
     Approximate second-order SCF convergence for spin unrestricted wavefunctions
     Chem. Phys. Lett., 2000 325(1-3)93-98
     doi.org/10.1016/s0009-2614(00)00662-x

Timings for individual modules:

Sum of individual times          ...      104.580 sec (=   1.743 min)
Startup calculation              ...        2.083 sec (=   0.035 min)   2.0 %
SCF iterations                   ...      102.388 sec (=   1.706 min)  97.9 %
Property calculations            ...        0.109 sec (=   0.002 min)   0.1 %
                             ****ORCA TERMINATED NORMALLY****
TOTAL RUN TIME: 0 days 0 hours 1 minutes 45 seconds 228 msec
