
                                 *****************
                                 * O   R   C   A *
                                 *****************

                                            #,                                       
                                            ###                                      
                                            ####                                     
                                            #####                                    
                                            ######                                   
                                           ########,                                 
                                     ,,################,,,,,                         
                               ,,#################################,,                 
                          ,,##########################################,,             
                       ,#########################################, ''#####,          
                    ,#############################################,,   '####,        
                  ,##################################################,,,,####,       
                ,###########''''           ''''###############################       
              ,#####''   ,,,,##########,,,,          '''####'''          '####       
            ,##' ,,,,###########################,,,                        '##       
           ' ,,###''''                  '''############,,,                           
         ,,##''                                '''############,,,,        ,,,,,,###''
      ,#''                                            '''#######################'''  
     '                                                          ''''####''''         
             ,#######,   #######,   ,#######,      ##                                
            ,#'     '#,  ##    ##  ,#'     '#,    #''#        ,####,   ,####,        
            ##       ##  ##   ,#'  ##            #'  '#       #'       #'  '#        
            ##       ##  #######   ##           ,######,      #####,   #    #        
            '#,     ,#'  ##    ##  '#,     ,#' ,#      #,     #,   #   #,  ,#        
             '#######'   ##     ##  '#######'  #'      '#     '####' # '####'        



                #########################################################
                #                        -***-                          #
                #          Department of theory and spectroscopy        #
                #                                                       #
                #                      Frank Neese                      #
                #                                                       #
                #     Directorship, Architecture, Infrastructure        #
                #                    SHARK, DRIVERS                     #
                #        Core code/Algorithms in most modules           #
                #                                                       #
                #        Max Planck Institute fuer Kohlenforschung      #
                #                Kaiser Wilhelm Platz 1                 #
                #                 D-45470 Muelheim/Ruhr                 #
                #                      Germany                          #
                #                                                       #
                #                  All rights reserved                  #
                #                        -***-                          #
                #########################################################


                         Program Version 6.0.0  -   RELEASE  -


 With contributions from (in alphabetic order):
   Daniel Aravena         : Magnetic Suceptibility
   Michael Atanasov       : Ab Initio Ligand Field Theory (pilot matlab implementation)
   Alexander A. Auer      : GIAO ZORA, VPT2 properties, NMR spectrum
   Ute Becker             : All parallelization in ORCA, NUMFREQ, NUMCALC
   Giovanni Bistoni       : ED, misc. LED, open-shell LED, HFLD
   Martin Brehm           : Molecular dynamics
   Dmytro Bykov           : pre 5.0 version of the SCF Hessian
   Marcos Casanova-Páez   : Triplet and SCS-CIS(D). UHF-(DLPNO)-IP/EA/STEOM-CCSD. UHF-CVS-IP/STEOM-CCSD
   Vijay G. Chilkuri      : MRCI spin determinant printing, contributions to CSF-ICE
   Pauline Colinet        : FMM embedding
   Dipayan Datta          : RHF DLPNO-CCSD density
   Achintya Kumar Dutta   : EOM-CC, STEOM-CC
   Nicolas Foglia         : Exact transition moments, OPA infrastructure, MCD improvements
   Dmitry Ganyushin       : Spin-Orbit,Spin-Spin,Magnetic field MRCI
   Miquel Garcia          : C-PCM and meta-GGA Hessian, CCSD/C-PCM, Gaussian charge scheme
   Tiago L. C. Gouveia    : GS-ROHF, GS-ROCIS
   Yang Guo               : DLPNO-NEVPT2, F12-NEVPT2, CIM, IAO-localization
   Andreas Hansen         : Spin unrestricted coupled pair/coupled cluster methods
   Ingolf Harden          : AUTO-CI MPn and infrastructure 
   Benjamin Helmich-Paris : MC-RPA, TRAH-(SCF,CASSCF), AVAS, COSX integrals, SCF dyn. polar.
   Lee Huntington         : MR-EOM, pCC
   Robert Izsak           : Overlap fitted RIJCOSX, COSX-SCS-MP3, EOM
   Riya Kayal             : Wick's Theorem for AUTO-CI, AUTO-CI UHF-CCSDT
   Emily Kempfer          : AUTO-CI, RHF CISDT and CCSDT
   Christian Kollmar      : KDIIS, OOCD, Brueckner-CCSD(T), CCSD density, CASPT2, CASPT2-K, improved NEVPT2
   Axel Koslowski         : Symmetry handling
   Simone Kossmann        : Meta GGA functionals, TD-DFT gradient, OOMP2, (MP2 Hessian; deprecated post 5.0)
   Lucas Lang             : DCDCAS
   Marvin Lechner         : AUTO-CI (C++ implementation), FIC-MRCC
   Spencer Leger          : CASSCF response
   Dagmar Lenk            : GEPOL surface, SMD, ORCA-2-JSON
   Dimitrios Liakos       : Extrapolation schemes; Compound Job, initial MDCI parallelization
   Dimitrios Manganas     : Further ROCIS development; embedding schemes. LFT, Crystal Embedding
   Dimitrios Pantazis     : SARC Basis sets
   Anastasios Papadopoulos: AUTO-CI, single reference methods and gradients
   Taras Petrenko         : pre 6.0 DFT Hessian and TD-DFT gradient, (ASA, deprecated), ECA, 1-Electron XAS/XES, NRVS
   Peter Pinski           : DLPNO-MP2, DLPNO-MP2 Gradient
   Christoph Reimann      : Effective Core Potentials
   Marius Retegan         : Local ZFS, SOC
   Christoph Riplinger    : Optimizer, TS searches, QM/MM, DLPNO-CCSD(T), (RO)-DLPNO pert. Triples
   Michael Roemelt        : Original ROCIS implementation
   Masaaki Saitow         : Open-shell DLPNO-CCSD energy and density
   Barbara Sandhoefer     : DKH picture change effects
   Kantharuban Sivalingam : CASSCF convergence/infrastructure, NEVPT2 and variants, FIC-MRCI
   Bernardo de Souza      : ESD, SOC TD-DFT
   Georgi Stoychev        : AutoAux, RI-MP2 NMR, DLPNO-MP2 response, X2C
   Van Anh Tran           : RI-MP2 g-tensors
   Willem Van den Heuvel  : Paramagnetic NMR
   Zikuan Wang            : NOTCH, Electric field optimization 
   Frank Wennmohs         : Technical directorship and infrastructure
   Hang Xu                : AUTO-CI-Response properties 


 We gratefully acknowledge several colleagues who have allowed us to
 interface, adapt or use parts of their codes:
   Stefan Grimme, W. Hujo, H. Kruse, P. Pracht,  : VdW corrections, initial TS optimization,
                  C. Bannwarth, S. Ehlert,         DFT functionals, gCP, sTDA/sTD-DF
                  L. Wittmann, M. Mueller
   Ed Valeev, F. Pavosevic, A. Kumar             : LibInt (2-el integral package), F12 methods
   Garnet Chan, S. Sharma, J. Yang, R. Olivares  : DMRG
   Ulf Ekstrom                                   : XCFun DFT Library
   Mihaly Kallay                                 : mrcc  (arbitrary order and MRCC methods)
   Frank Weinhold                                : gennbo (NPA and NBO analysis)
   Simon Mueller                                 : openCOSMO-RS
   Christopher J. Cramer and Donald G. Truhlar   : smd solvation model
   Lars Goerigk                                  : TD-DFT with DH, B97 family of functionals
   V. Asgeirsson, H. Jonsson                     : NEB implementation
   FAccTs GmbH                                   : IRC, NEB, NEB-TS, DLPNO-Multilevel, CI-OPT
                                                   MM, QMMM, 2- and 3-layer-ONIOM, Crystal-QMMM,
                                                   LR-CPCM, SF, NACMEs, symmetry and pop. for TD-DFT,
                                                   nearIR, NL-DFT gradient (VV10), updates on ESD,
                                                   ML-optimized integration grids, MBIS, APM,
                                                   GOAT, DOCKER, SOLVATOR, interface openCOSMO-RS
   S Lehtola, MJT Oliveira, MAL Marques          : LibXC Library
   Liviu Ungur et al                             : ANISO software


 Your calculation uses the libint2 library for the computation of 2-el integrals
 For citations please refer to: http://libint.valeyev.net

 Your ORCA version has been built with support for libXC version: 6.2.2
 For citations please refer to: https://libxc.gitlab.io

 This ORCA versions uses:
   CBLAS   interface :  Fast vector & matrix operations
   LAPACKE interface :  Fast linear algebra routines
   SCALAPACK package :  Parallel linear algebra routines
   Shared memory     :  Shared parallel matrices
   BLAS/LAPACK       :  OpenBLAS 0.3.27  USE64BITINT DYNAMIC_ARCH NO_AFFINITY SkylakeX SINGLE_THREADED
        Core in use  :  SkylakeX
   Copyright (c) 2011-2014, The OpenBLAS Project


Your calculation utilizes the geometrical counterpoise correction gCP
Please cite in your paper:
H.Kruse, S. Grimme J.Chem.Phys., 136, (2012), 154101 
   

Your calculation utilizes the atom-pairwise dispersion correction
based on EEQ partial charges (D4)


================================================================================

----- Orbital basis set information -----
Your calculation utilizes the basis: def2-SV(P)
   F. Weigend and R. Ahlrichs, Phys. Chem. Chem. Phys. 7, 3297 (2005).

----- AuxJ basis set information -----
Your calculation utilizes the auxiliary basis: def2/J
   F. Weigend, Phys. Chem. Chem. Phys. 8, 1057 (2006).

================================================================================
                                        WARNINGS
                       Please study these warnings very carefully!
================================================================================


================================================================================
                                       INPUT FILE
================================================================================
NAME = sp.inp
|  1> ! pbe def2-sv(p) def2/J RI DEFGRID1 loosescf d4 GCP(DFT/SV(P)) printgap
|  2> %output
|  3>     printlevel normal
|  4> end
|  5> * xyz 0 1
|  6> C -1.9545647692 -1.251589654 -0.3504933745
|  7> C -1.2660007495 -0.4113272454 0.7386225874
|  8> H -1.9410968307 -0.3433843118 1.59767987
|  9> C -0.9835224722 1.0256703855 0.2575139572
| 10> H -1.3911069254 1.1430436619 -0.7583117105
| 11> C 0.5275686654 1.2804147073 0.2007171167
| 12> H 0.9044431182 1.4301770193 1.2191950803
| 13> C 1.2438112049 0.074706834 -0.4197950485
| 14> H 0.8220772033 -0.1383887911 -1.4138696598
| 15> C 1.0191586278 -1.158134556 0.4652863982
| 16> H 1.8631132514 -1.2266012659 1.1687685927
| 17> O -0.1142018256 -1.0340411999 1.2928734603
| 18> O 0.9536986562 -2.2858294977 -0.3449740995
| 19> O 2.6276561686 0.3025180422 -0.5143585012
| 20> O 0.8371109669 2.4617217925 -0.4980572978
| 21> O -1.6288942981 1.917710554 1.1356213786
| 22> O -1.3979205976 -0.9881600917 -1.6204491695
| 23> H -3.0202166388 -0.9874733677 -0.3510598126
| 24> H -1.8431708637 -2.3066496157 -0.0829084694
| 25> H 1.0117290146 -3.0879419774 0.1959969032
| 26> H 2.763182329 1.2345383135 -0.7558723541
| 27> H 0.492373416 2.3997999381 -1.402604425
| 28> H -1.3469257958 2.8223403762 0.930669958
| 29> H -1.7475550626 -1.6285482221 -2.2554644563
| 30> *
| 31> 
| 32>                          ****END OF INPUT****
================================================================================

                       ****************************
                       * Single Point Calculation *
                       ****************************

---------------------------------
CARTESIAN COORDINATES (ANGSTROEM)
---------------------------------
  C     -1.954565   -1.251590   -0.350493
  C     -1.266001   -0.411327    0.738623
  H     -1.941097   -0.343384    1.597680
  C     -0.983522    1.025670    0.257514
  H     -1.391107    1.143044   -0.758312
  C      0.527569    1.280415    0.200717
  H      0.904443    1.430177    1.219195
  C      1.243811    0.074707   -0.419795
  H      0.822077   -0.138389   -1.413870
  C      1.019159   -1.158135    0.465286
  H      1.863113   -1.226601    1.168769
  O     -0.114202   -1.034041    1.292873
  O      0.953699   -2.285829   -0.344974
  O      2.627656    0.302518   -0.514359
  O      0.837111    2.461722   -0.498057
  O     -1.628894    1.917711    1.135621
  O     -1.397921   -0.988160   -1.620449
  H     -3.020217   -0.987473   -0.351060
  H     -1.843171   -2.306650   -0.082908
  H      1.011729   -3.087942    0.195997
  H      2.763182    1.234538   -0.755872
  H      0.492373    2.399800   -1.402604
  H     -1.346926    2.822340    0.930670
  H     -1.747555   -1.628548   -2.255464

----------------------------
CARTESIAN COORDINATES (A.U.)
----------------------------
  NO LB      ZA    FRAG     MASS         X           Y           Z
   0 C     6.0000    0    12.011   -3.693592   -2.365162   -0.662336
   1 C     6.0000    0    12.011   -2.392395   -0.777296    1.395794
   2 H     1.0000    0     1.008   -3.668141   -0.648902    3.019177
   3 C     6.0000    0    12.011   -1.858588    1.938236    0.486631
   4 H     1.0000    0     1.008   -2.628811    2.160039   -1.433001
   5 C     6.0000    0    12.011    0.996960    2.419633    0.379300
   6 H     1.0000    0     1.008    1.709150    2.702643    2.303945
   7 C     6.0000    0    12.011    2.350463    0.141175   -0.793298
   8 H     1.0000    0     1.008    1.553501   -0.261517   -2.671826
   9 C     6.0000    0    12.011    1.925931   -2.188557    0.879264
  10 H     1.0000    0     1.008    3.520774   -2.317940    2.208653
  11 O     8.0000    0    15.999   -0.215810   -1.954055    2.443177
  12 O     8.0000    0    15.999    1.802229   -4.319592   -0.651907
  13 O     8.0000    0    15.999    4.965551    0.571676   -0.971997
  14 O     8.0000    0    15.999    1.581910    4.651980   -0.941192
  15 O     8.0000    0    15.999   -3.078164    3.623948    2.146013
  16 O     8.0000    0    15.999   -2.641687   -1.867352   -3.062205
  17 H     1.0000    0     1.008   -5.707382   -1.866054   -0.663407
  18 H     1.0000    0     1.008   -3.483088   -4.358936   -0.156674
  19 H     1.0000    0     1.008    1.911891   -5.835365    0.370380
  20 H     1.0000    0     1.008    5.221658    2.332939   -1.428392
  21 H     1.0000    0     1.008    0.930451    4.534965   -2.650538
  22 H     1.0000    0     1.008   -2.545321    5.333450    1.758711
  23 H     1.0000    0     1.008   -3.302400   -3.077510   -4.262210

--------------------------------
INTERNAL COORDINATES (ANGSTROEM)
--------------------------------
 C      0   0   0     0.000000000000     0.00000000     0.00000000
 C      1   0   0     1.538289603097     0.00000000     0.00000000
 H      2   1   0     1.094691909108   108.26801573     0.00000000
 C      2   1   3     1.541499815897   111.73136139   241.85211562
 H      4   2   1     1.100819403745   108.63590332     2.83499326
 C      4   2   1     1.533465675101   110.30370885   244.34978706
 H      6   4   2     1.096248359455   109.09003610   283.91246882
 C      6   4   2     1.533548238005   110.15808798    43.31096172
 H      8   6   4     1.100660550021   109.79788799    56.07088495
 C      8   6   4     1.534188984639   109.26693366   297.76854042
 H     10   8   6     1.100833454724   107.84156321   266.98324525
 O     10   8   6     1.408831226128   112.70012655    21.54759320
 O     10   8   6     1.390144943360   108.81469089   146.51135268
 O      8   6   4     1.405655390459   111.07575710   178.40948712
 O      6   4   2     1.406978517363   112.00379224   167.21716271
 O      4   2   1     1.408301494496   108.17344878   121.93412946
 O      1   2   3     1.411394909061   111.01213111   158.60124352
 H      1   2   3     1.097894184666   107.66383519    38.48963235
 H      1   2   3     1.094148895901   107.93853114   280.57681464
 H     13  10   8     0.969227309948   110.07177116   167.37283154
 H     14   8   6     0.972295257321   108.01644192   322.00238752
 H     15   6   4     0.969991649644   109.35084406   300.99112140
 H     16   4   2     0.969467088822   109.02323261   171.12701708
 H     17   1   2     0.967256755543   108.94064864   170.90878135

---------------------------
INTERNAL COORDINATES (A.U.)
---------------------------
 C      0   0   0     0.000000000000     0.00000000     0.00000000
 C      1   0   0     2.906946064512     0.00000000     0.00000000
 H      2   1   0     2.068667909233   108.26801573     0.00000000
 C      2   1   3     2.913012487536   111.73136139   241.85211562
 H      4   2   1     2.080247195984   108.63590332     2.83499326
 C      4   2   1     2.897830161710   110.30370885   244.34978706
 H      6   4   2     2.071609174130   109.09003610   283.91246882
 C      6   4   2     2.897986182987   110.15808798    43.31096172
 H      8   6   4     2.079947005952   109.79788799    56.07088495
 C      8   6   4     2.899197018646   109.26693366   297.76854042
 H     10   8   6     2.080273748486   107.84156321   266.98324525
 O     10   8   6     2.662305186299   112.70012655    21.54759320
 O     10   8   6     2.626993229407   108.81469089   146.51135268
 O      8   6   4     2.656303726637   111.07575710   178.40948712
 O      6   4   2     2.658804074127   112.00379224   167.21716271
 O      4   2   1     2.661304138590   108.17344878   121.93412946
 O      1   2   3     2.667149844936   111.01213111   158.60124352
 H      1   2   3     2.074719333043   107.66383519    38.48963235
 H      1   2   3     2.067641762986   107.93853114   280.57681464
 H     13  10   8     1.831574177319   110.07177116   167.37283154
 H     14   8   6     1.837371757648   108.01644192   322.00238752
 H     15   6   4     1.833018570017   109.35084406   300.99112140
 H     16   4   2     1.832027293723   109.02323261   171.12701708
 H     17   1   2     1.827850369161   108.94064864   170.90878135

---------------------
BASIS SET INFORMATION
---------------------
There are 3 groups of distinct atoms

 Group   1 Type C   : 7s4p1d contracted to 3s2p1d pattern {511/31/1}
 Group   2 Type H   : 4s contracted to 2s pattern {31}
 Group   3 Type O   : 7s4p1d contracted to 3s2p1d pattern {511/31/1}

Atom   0C    basis set group =>   1
Atom   1C    basis set group =>   1
Atom   2H    basis set group =>   2
Atom   3C    basis set group =>   1
Atom   4H    basis set group =>   2
Atom   5C    basis set group =>   1
Atom   6H    basis set group =>   2
Atom   7C    basis set group =>   1
Atom   8H    basis set group =>   2
Atom   9C    basis set group =>   1
Atom  10H    basis set group =>   2
Atom  11O    basis set group =>   3
Atom  12O    basis set group =>   3
Atom  13O    basis set group =>   3
Atom  14O    basis set group =>   3
Atom  15O    basis set group =>   3
Atom  16O    basis set group =>   3
Atom  17H    basis set group =>   2
Atom  18H    basis set group =>   2
Atom  19H    basis set group =>   2
Atom  20H    basis set group =>   2
Atom  21H    basis set group =>   2
Atom  22H    basis set group =>   2
Atom  23H    basis set group =>   2
---------------------------------
AUXILIARY/J BASIS SET INFORMATION
---------------------------------
There are 3 groups of distinct atoms

 Group   1 Type C   : 12s5p4d2f1g contracted to 6s4p3d1f1g pattern {711111/2111/211/2/1}
 Group   2 Type H   : 5s2p1d contracted to 3s1p1d pattern {311/2/1}
 Group   3 Type O   : 12s5p4d2f1g contracted to 6s4p3d1f1g pattern {711111/2111/211/2/1}

Atom   0C    basis set group =>   1
Atom   1C    basis set group =>   1
Atom   2H    basis set group =>   2
Atom   3C    basis set group =>   1
Atom   4H    basis set group =>   2
Atom   5C    basis set group =>   1
Atom   6H    basis set group =>   2
Atom   7C    basis set group =>   1
Atom   8H    basis set group =>   2
Atom   9C    basis set group =>   1
Atom  10H    basis set group =>   2
Atom  11O    basis set group =>   3
Atom  12O    basis set group =>   3
Atom  13O    basis set group =>   3
Atom  14O    basis set group =>   3
Atom  15O    basis set group =>   3
Atom  16O    basis set group =>   3
Atom  17H    basis set group =>   2
Atom  18H    basis set group =>   2
Atom  19H    basis set group =>   2
Atom  20H    basis set group =>   2
Atom  21H    basis set group =>   2
Atom  22H    basis set group =>   2
Atom  23H    basis set group =>   2
------------------------------------------------------------------------------
                             ORCA STARTUP CALCULATIONS
                           -- RI-GTO INTEGRALS CHOSEN --
------------------------------------------------------------------------------
------------------------------------------------------------------------------
                   ___                                                        
                  /   \      - P O W E R E D   B Y -                         
                 /     \                                                     
                 |  |  |   _    _      __       _____    __    __             
                 |  |  |  | |  | |    /  \     |  _  \  |  |  /  |          
                  \  \/   | |  | |   /    \    | | | |  |  | /  /          
                 / \  \   | |__| |  /  /\  \   | |_| |  |  |/  /          
                |  |  |   |  __  | /  /__\  \  |    /   |      \           
                |  |  |   | |  | | |   __   |  |    \   |  |\   \          
                \     /   | |  | | |  |  |  |  | |\  \  |  | \   \       
                 \___/    |_|  |_| |__|  |__|  |_| \__\ |__|  \__/        
                                                                              
                      - O R C A' S   B I G   F R I E N D -                    
                                      &                                       
                       - I N T E G R A L  F E E D E R -                       
                                                                              
 v1 FN, 2020, v2 2021, v3 2022-2024                                           
------------------------------------------------------------------------------


----------------------
SHARK INTEGRAL PACKAGE
----------------------

Number of atoms                             ...     24
Number of basis functions                   ...    192
Number of shells                            ...     96
Maximum angular momentum                    ...      2
Integral batch strategy                     ... SHARK/LIBINT Hybrid
RI-J (if used) integral strategy            ... SPLIT-RIJ (Revised 2003 algorithm where possible)
Printlevel                                  ...      1
Contraction scheme used                     ... SEGMENTED contraction
Prescreening option                         ... SCHWARTZ
   Thresh                                   ... 1.000e-09
   Tcut                                     ... 1.000e-10
   Tpresel                                  ... 1.000e-10 
Coulomb Range Separation                    ... NOT USED
Exchange Range Separation                   ... NOT USED
Multipole approximations                    ... NOT USED
Finite Nucleus Model                        ... NOT USED
CABS basis                                  ... NOT available
Auxiliary Coulomb fitting basis             ... AVAILABLE
   # of basis functions in Aux-J            ...    720
   # of shells in Aux-J                     ...    240
   Maximum angular momentum in Aux-J        ...      4
Auxiliary J/K fitting basis                 ... NOT available
Auxiliary Correlation fitting basis         ... NOT available
Auxiliary 'external' fitting basis          ... NOT available

Checking pre-screening integrals            ... done (  0.0 sec) Dimension = 96
Check shell pair data                       ... done (  0.0 sec)
Shell pair information
Shell pair cut-off parameter TPreSel        ...   1.0e-10
Total number of shell pairs                 ...      4656
Shell pairs after pre-screening             ...      4247
Total number of primitive shell pairs       ...     18720
Primitive shell pairs kept                  ...     11448
          la=0 lb=0:   1644 shell pairs
          la=1 lb=0:   1350 shell pairs
          la=1 lb=1:    291 shell pairs
          la=2 lb=0:    625 shell pairs
          la=2 lb=1:    269 shell pairs
          la=2 lb=2:     68 shell pairs

Calculating one electron integrals          ... done (  0.0 sec)
Calculating RI/J V-Matrix + Cholesky decomp.... done (  0.1 sec)
Calculating Nuclear repulsion               ... done (  0.0 sec) ENN=    851.749156548600 Eh

Diagonalization of the overlap matrix:
Smallest eigenvalue                        ... 7.704e-04
Time for diagonalization                   ...    0.003 sec
Threshold for overlap eigenvalues          ... 1.000e-07
Number of eigenvalues below threshold      ... 0
Time for construction of square roots      ...    0.015 sec
Total time needed                          ...    0.027 sec

-------------------
DFT GRID GENERATION
-------------------

General Integration Accuracy     IntAcc      ... 4.159
Radial Grid Type                 RadialGrid  ... OptM3 with GC (2021)
Angular Grid (max. ang.)         AngularGrid ... 3 (Lebedev-194)
Angular grid pruning method      GridPruning ... 4 (adaptive)
Weight generation scheme         WeightScheme... mBecke (2022)
Basis function cutoff            BFCut       ... 1.0000e-10
Integration weight cutoff        WCut        ... 1.0000e-14
Partially contracted basis set               ... off
Rotationally invariant grid construction     ... off
Angular grids for H and He will be reduced by one unit

Total number of grid points                  ...    55700
Total number of batches                      ...      883
Average number of points per batch           ...       63
Average number of grid points per atom       ...     2321
Initializing property integral containers    ... done (  0.0 sec)

SHARK setup successfully completed in   0.9 seconds

Maximum memory used throughout the entire STARTUP-calculation: 28.2 MB
-------------------------------------------------------------------------------
                                 ORCA GUESS
                   Start orbitals & Density for SCF / CASSCF
-------------------------------------------------------------------------------

------------
SCF SETTINGS
------------
Hamiltonian:
 Density Functional     Method          .... DFT(GTOs)
 Exchange Functional    Exchange        .... PBE
   PBE kappa parameter   XKappa         ....  0.804000
   PBE mue parameter    XMuePBE         ....  0.219520
 Correlation Functional Correlation     .... PBE
   PBE beta parameter  CBetaPBE         ....  0.066725
 LDA part of GGA corr.  LDAOpt          .... PW91-LDA
 Gradients option       PostSCFGGA      .... off
   NL short-range parameter             ....  6.400000
 RI-approximation to the Coulomb term is turned on
   Number of AuxJ basis functions       .... 720


General Settings:
 Integral files         IntName         .... sp
 Hartree-Fock type      HFTyp           .... RHF
 Total Charge           Charge          ....    0
 Multiplicity           Mult            ....    1
 Number of Electrons    NEL             ....   96
 Basis Dimension        Dim             ....  192
 Nuclear Repulsion      ENuc            ....    851.7491565486 Eh

Convergence Acceleration:
 AO-DIIS                CNVDIIS         .... on
   Start iteration      DIISMaxIt       ....    12
   Startup error        DIISStart       ....  0.200000
   # of expansion vecs  DIISMaxEq       ....     5
   Bias factor          DIISBfac        ....   1.050
   Max. coefficient     DIISMaxC        ....  10.000
 MO-DIIS                CNVKDIIS        .... off
 Trust-Rad. Augm. Hess. CNVTRAH         .... auto
   Auto Start mean grad. ratio tolernc. ....  1.125000
   Auto Start start iteration           ....    50
   Auto Start num. interpolation iter.  ....    10
   Max. Number of Micro iterations      ....    24
   Max. Number of Macro iterations      .... Maxiter - #DIIS iter
   Number of Davidson start vectors     ....     2
   Converg. threshold    (grad. norm)   ....   1.000e-04
   Grad. Scal. Fac. for Micro threshold ....   0.100
   Minimum threshold for Micro iter.    ....   1.000e-02
   NR start threshold (gradient norm)   ....   1.000e-04
   Initial trust radius                 ....   0.400
   Minimum AH scaling param. (alpha)    ....   1.000
   Maximum AH scaling param. (alpha)    .... 1000.000
   Quad. conv. algorithm                .... NR
   White noise on init. David. guess    .... on
   Maximum white noise                  ....   0.010
   Pseudo random numbers                .... off
   Inactive MOs                         .... canonical
   Orbital update algorithm             .... Taylor
   Preconditioner                       .... Diag
   Full preconditioner red. dimension   ....   250
 SOSCF                  CNVSOSCF        .... on
   Start iteration      SOSCFMaxIt      ....   150
   Startup grad/error   SOSCFStart      ....  0.003300
   Hessian update       SOSCFHessUp     .... L-BFGS
 Level Shifting         CNVShift        .... on
   Level shift para.    LevelShift      ....    0.2500
   Turn off err/grad.   ShiftErr        ....    0.0010
 Zerner damping         CNVZerner       .... off
 Static damping         CNVDamp         .... on
   Fraction old density DampFac         ....    0.7000
   Max. Damping (<1)    DampMax         ....    0.9800
   Min. Damping (>=0)   DampMin         ....    0.0000
   Turn off err/grad.   DampErr         ....    0.1000

SCF Procedure:
 Maximum # iterations   MaxIter         ....   125
 SCF integral mode      SCFMode         .... Direct
   Integral package                     .... SHARK and LIBINT hybrid scheme
 Reset frequency        DirectResetFreq ....    20
 Integral Threshold     Thresh          ....  1.000e-09 Eh
 Primitive CutOff       TCut            ....  1.000e-10 Eh

Convergence Tolerance:
 Convergence Check Mode ConvCheckMode   .... Total+1el-Energy
 Convergence forced     ConvForced      .... 0
 Energy Change          TolE            ....  1.000e-05 Eh
 1-El. energy change                    ....  1.000e-02 Eh
 Orbital Gradient       TolG            ....  1.000e-04
 Orbital Rotation angle TolX            ....  1.000e-04
 DIIS Error             TolErr          ....  5.000e-04

------------------------------
INITIAL GUESS: MODEL POTENTIAL
------------------------------
Loading Hartree-Fock densities                     ... done
Calculating cut-offs                               ... done
Initializing the effective Hamiltonian             ... done
Setting up the integral package (SHARK)            ... done
Starting the Coulomb interaction                   ... done (   0.2 sec)
Making the grid                                    ... done (   0.3 sec)
Mapping shells                                     ... done
Starting the XC term evaluation                    ... done (   0.3 sec)
  promolecular density results
     # of electrons  =     95.996708273
     EX              =    -83.234426223
     EC              =     -3.270124368
     EX+EC           =    -86.504550591
Transforming the Hamiltonian                       ... done (   0.0 sec)
Diagonalizing the Hamiltonian                      ... done (   0.0 sec)
Back transforming the eigenvectors                 ... done (   0.0 sec)
Now organizing SCF variables                       ... done
                      ------------------
                      INITIAL GUESS DONE (   0.8 sec)
                      ------------------
             **** ENERGY FILE WAS UPDATED (sp.en.tmp) ****
Finished Guess after   1.0 sec
Maximum memory used throughout the entire GUESS-calculation: 22.0 MB

-------------------------------------------------------------------------------------------
                                      ORCA LEAN-SCF
                              memory conserving SCF solver
-------------------------------------------------------------------------------------------

----------------------------------------D-I-I-S--------------------------------------------
Iteration    Energy (Eh)           Delta-E    RMSDP     MaxDP     DIISErr   Damp  Time(sec)
-------------------------------------------------------------------------------------------
               ***  Starting incremental Fock matrix formation  ***
    1    -685.5126404920389405     0.00e+00  4.99e-03  1.48e-01  2.23e-01  0.700   1.2
    2    -685.6655779043513803    -1.53e-01  3.26e-03  1.04e-01  8.93e-02  0.700   1.2
                               ***Turning on AO-DIIS***
    3    -685.7137228439065666    -4.81e-02  1.12e-03  2.83e-02  1.92e-02  0.700   1.1
    4    -685.7457531686683296    -3.20e-02  1.42e-03  2.28e-02  1.18e-02  0.000   1.0
    5    -685.8199599740995609    -7.42e-02  4.62e-04  1.63e-02  6.23e-03  0.000   1.1
                              *** Initializing SOSCF ***
---------------------------------------S-O-S-C-F--------------------------------------
Iteration    Energy (Eh)           Delta-E    RMSDP     MaxDP     MaxGrad    Time(sec)
--------------------------------------------------------------------------------------
    6    -685.8202987422888555    -3.39e-04  1.43e-04  3.38e-03  1.17e-03     1.0
               *** Restarting incremental Fock matrix formation ***
    7    -685.8203294999772197    -3.08e-05  9.87e-05  2.19e-03  1.67e-04     1.2
    8    -685.8203283022345431     1.20e-06  4.24e-05  1.02e-03  2.89e-04     1.0
                 **** Energy Check signals convergence ****

               *****************************************************
               *                     SUCCESS                       *
               *           SCF CONVERGED AFTER   8 CYCLES          *
               *****************************************************

             **** ENERGY FILE WAS UPDATED (sp.en.tmp) ****

----------------
TOTAL SCF ENERGY
----------------

Total Energy       :       -685.82032830223454 Eh          -18662.11990 eV

Components:
Nuclear Repulsion  :        851.74915654860013 Eh           23177.27286 eV
Electronic Energy  :      -1537.56948485083467 Eh          -41839.39276 eV
One Electron Energy:      -2633.23365295849135 Eh          -71653.93051 eV
Two Electron Energy:       1095.66416810765668 Eh           29814.53776 eV

Virial components:
Potential Energy   :      -1366.93132906242181 Eh          -37196.09248 eV
Kinetic Energy     :        681.11100076018727 Eh           18533.97258 eV
Virial Ratio       :          2.00691418511343

DFT components:
N(Alpha)           :       48.000118938135 electrons
N(Beta)            :       48.000118938135 electrons
N(Total)           :       96.000237876270 electrons
E(X)               :      -84.600272153104 Eh       
E(C)               :       -3.283001794763 Eh       
E(XC)              :      -87.883273947867 Eh       

---------------
SCF CONVERGENCE
---------------

  Last Energy change         ...   -1.1977e-06  Tolerance :   1.0000e-05
  Last MAX-Density change    ...    1.0153e-03  Tolerance :   1.0000e-03
  Last RMS-Density change    ...    4.2414e-05  Tolerance :   1.0000e-04
  Last DIIS Error            ...    1.1656e-03  Tolerance :   5.0000e-04
  Last Orbital Gradient      ...    2.8948e-04  Tolerance :   1.0000e-04
  Last Orbital Rotation      ...    1.8746e-04  Tolerance :   1.0000e-04


----------------
ORBITAL ENERGIES
----------------

  NO   OCC          E(Eh)            E(eV) 
   0   2.0000     -18.768357      -510.7130 
   1   2.0000     -18.758381      -510.4415 
   2   2.0000     -18.757938      -510.4294 
   3   2.0000     -18.751598      -510.2569 
   4   2.0000     -18.745276      -510.0849 
   5   2.0000     -18.737273      -509.8671 
   6   2.0000      -9.975582      -271.4494 
   7   2.0000      -9.942701      -270.5546 
   8   2.0000      -9.938685      -270.4454 
   9   2.0000      -9.938020      -270.4273 
  10   2.0000      -9.935458      -270.3576 
  11   2.0000      -9.928045      -270.1558 
  12   2.0000      -0.971259       -26.4293 
  13   2.0000      -0.950117       -25.8540 
  14   2.0000      -0.931202       -25.3393 
  15   2.0000      -0.922095       -25.0915 
  16   2.0000      -0.908823       -24.7303 
  17   2.0000      -0.903212       -24.5777 
  18   2.0000      -0.700640       -19.0654 
  19   2.0000      -0.686405       -18.6780 
  20   2.0000      -0.619879       -16.8678 
  21   2.0000      -0.579681       -15.7739 
  22   2.0000      -0.564401       -15.3581 
  23   2.0000      -0.517370       -14.0783 
  24   2.0000      -0.499512       -13.5924 
  25   2.0000      -0.471915       -12.8415 
  26   2.0000      -0.468981       -12.7616 
  27   2.0000      -0.460679       -12.5357 
  28   2.0000      -0.455349       -12.3907 
  29   2.0000      -0.416867       -11.3435 
  30   2.0000      -0.405261       -11.0277 
  31   2.0000      -0.396832       -10.7983 
  32   2.0000      -0.389498       -10.5988 
  33   2.0000      -0.373896       -10.1742 
  34   2.0000      -0.354845        -9.6558 
  35   2.0000      -0.347693        -9.4612 
  36   2.0000      -0.323967        -8.8156 
  37   2.0000      -0.313415        -8.5285 
  38   2.0000      -0.298957        -8.1350 
  39   2.0000      -0.288964        -7.8631 
  40   2.0000      -0.282404        -7.6846 
  41   2.0000      -0.253336        -6.8936 
  42   2.0000      -0.248861        -6.7719 
  43   2.0000      -0.240575        -6.5464 
  44   2.0000      -0.228123        -6.2075 
  45   2.0000      -0.219705        -5.9785 
  46   2.0000      -0.212610        -5.7854 
  47   2.0000      -0.197549        -5.3756 
  48   0.0000       0.015488         0.4214 
  49   0.0000       0.019007         0.5172 
  50   0.0000       0.039856         1.0845 
  51   0.0000       0.053426         1.4538 
  52   0.0000       0.060233         1.6390 
  53   0.0000       0.067334         1.8322 
  54   0.0000       0.078301         2.1307 
  55   0.0000       0.088736         2.4146 
  56   0.0000       0.107610         2.9282 
  57   0.0000       0.112111         3.0507 
  58   0.0000       0.120522         3.2796 
*Only the first 10 virtual orbitals were printed.

                    ********************************
                    * MULLIKEN POPULATION ANALYSIS *
                    ********************************

-----------------------
MULLIKEN ATOMIC CHARGES
-----------------------
   0 C :    0.028721
   1 C :    0.033634
   2 H :    0.086891
   3 C :    0.082774
   4 H :    0.056518
   5 C :    0.006191
   6 H :    0.070018
   7 C :    0.007955
   8 H :    0.070838
   9 C :    0.219427
  10 H :    0.063689
  11 O :   -0.312833
  12 O :   -0.384589
  13 O :   -0.415777
  14 O :   -0.424597
  15 O :   -0.416951
  16 O :   -0.424319
  17 H :    0.078994
  18 H :    0.072523
  19 H :    0.298011
  20 H :    0.296058
  21 H :    0.300255
  22 H :    0.299968
  23 H :    0.306599
Sum of atomic charges:    0.0000000

--------------------------------
MULLIKEN REDUCED ORBITAL CHARGES
--------------------------------
  0 C s       :     3.011065  s :     3.011065
      pz      :     0.819109  p :     2.897932
      px      :     1.010539
      py      :     1.068283
      dz2     :     0.019122  d :     0.062282
      dxz     :     0.013382
      dyz     :     0.013041
      dx2y2   :     0.013019
      dxy     :     0.003717

  1 C s       :     3.042704  s :     3.042704
      pz      :     1.026744  p :     2.858389
      px      :     0.870448
      py      :     0.961197
      dz2     :     0.007840  d :     0.065273
      dxz     :     0.018321
      dyz     :     0.009973
      dx2y2   :     0.015035
      dxy     :     0.014103

  2 H s       :     0.913109  s :     0.913109

  3 C s       :     3.030074  s :     3.030074
      pz      :     0.937019  p :     2.820031
      px      :     0.938675
      py      :     0.944336
      dz2     :     0.016989  d :     0.067121
      dxz     :     0.011792
      dyz     :     0.013053
      dx2y2   :     0.013869
      dxy     :     0.011419

  4 H s       :     0.943482  s :     0.943482

  5 C s       :     3.051974  s :     3.051974
      pz      :     1.002277  p :     2.874063
      px      :     1.020444
      py      :     0.851343
      dz2     :     0.013661  d :     0.067773
      dxz     :     0.008854
      dyz     :     0.014681
      dx2y2   :     0.016684
      dxy     :     0.013892

  6 H s       :     0.929982  s :     0.929982

  7 C s       :     3.081415  s :     3.081415
      pz      :     1.097986  p :     2.844162
      px      :     0.762073
      py      :     0.984103
      dz2     :     0.010157  d :     0.066468
      dxz     :     0.017882
      dyz     :     0.008197
      dx2y2   :     0.016749
      dxy     :     0.013483

  8 H s       :     0.929162  s :     0.929162

  9 C s       :     2.973342  s :     2.973342
      pz      :     0.935664  p :     2.706934
      px      :     0.881307
      py      :     0.889964
      dz2     :     0.012322  d :     0.100297
      dxz     :     0.026709
      dyz     :     0.024289
      dx2y2   :     0.021824
      dxy     :     0.015153

 10 H s       :     0.936311  s :     0.936311

 11 O s       :     3.748862  s :     3.748862
      pz      :     1.599315  p :     4.548930
      px      :     1.232799
      py      :     1.716816
      dz2     :     0.002445  d :     0.015041
      dxz     :     0.005655
      dyz     :     0.002136
      dx2y2   :     0.002463
      dxy     :     0.002343

 12 O s       :     3.772862  s :     3.772862
      pz      :     1.550204  p :     4.596328
      px      :     1.866885
      py      :     1.179240
      dz2     :     0.002265  d :     0.015398
      dxz     :     0.001733
      dyz     :     0.008333
      dx2y2   :     0.002371
      dxy     :     0.000697

 13 O s       :     3.772799  s :     3.772799
      pz      :     1.865950  p :     4.627593
      px      :     1.370212
      py      :     1.391431
      dz2     :     0.002219  d :     0.015385
      dxz     :     0.001968
      dyz     :     0.001730
      dx2y2   :     0.007766
      dxy     :     0.001701

 14 O s       :     3.795245  s :     3.795245
      pz      :     1.286797  p :     4.613880
      px      :     1.785238
      py      :     1.541844
      dz2     :     0.004980  d :     0.015472
      dxz     :     0.003052
      dyz     :     0.002121
      dx2y2   :     0.002817
      dxy     :     0.002502

 15 O s       :     3.775356  s :     3.775356
      pz      :     1.660177  p :     4.626297
      px      :     1.761157
      py      :     1.204963
      dz2     :     0.002949  d :     0.015298
      dxz     :     0.002846
      dyz     :     0.003054
      dx2y2   :     0.003270
      dxy     :     0.003179

 16 O s       :     3.788355  s :     3.788355
      pz      :     1.236834  p :     4.620853
      px      :     1.743033
      py      :     1.640986
      dz2     :     0.001514  d :     0.015111
      dxz     :     0.003814
      dyz     :     0.005207
      dx2y2   :     0.001779
      dxy     :     0.002796

 17 H s       :     0.921006  s :     0.921006

 18 H s       :     0.927477  s :     0.927477

 19 H s       :     0.701989  s :     0.701989

 20 H s       :     0.703942  s :     0.703942

 21 H s       :     0.699745  s :     0.699745

 22 H s       :     0.700032  s :     0.700032

 23 H s       :     0.693401  s :     0.693401


------------------------
MULLIKEN OVERLAP CHARGES
------------------------
B(  0-C ,  1-C ) :   0.4687 B(  0-C ,  3-C ) :  -0.0518 B(  0-C , 11-O ) :  -0.1257 
B(  0-C , 16-O ) :   0.6390 B(  0-C , 17-H ) :   0.6550 B(  0-C , 18-H ) :   0.6595 
B(  1-C ,  2-H ) :   0.5493 B(  1-C ,  3-C ) :   0.0605 B(  1-C ,  4-H ) :  -0.1142 
B(  1-C ,  7-C ) :   0.0906 B(  1-C ,  9-C ) :  -0.1645 B(  1-C , 11-O ) :   0.6815 
B(  1-C , 15-O ) :  -0.0962 B(  1-C , 16-O ) :  -0.1463 B(  3-C ,  4-H ) :   0.6296 
B(  3-C ,  5-C ) :   0.3928 B(  3-C ,  7-C ) :  -0.1295 B(  3-C , 11-O ) :  -0.1297 
B(  3-C , 14-O ) :  -0.1102 B(  3-C , 15-O ) :   0.5706 B(  3-C , 22-H ) :  -0.1078 
B(  4-H , 15-O ) :  -0.0655 B(  5-C ,  6-H ) :   0.5301 B(  5-C ,  7-C ) :   0.3359 
B(  5-C ,  8-H ) :  -0.0748 B(  5-C , 14-O ) :   0.6118 B(  5-C , 21-H ) :  -0.1243 
B(  6-H , 14-O ) :  -0.0849 B(  7-C ,  8-H ) :   0.5885 B(  7-C ,  9-C ) :   0.1756 
B(  7-C , 11-O ) :  -0.1512 B(  7-C , 12-O ) :  -0.1307 B(  7-C , 13-O ) :   0.5910 
B(  7-C , 14-O ) :  -0.0948 B(  7-C , 20-H ) :  -0.0975 B(  8-H , 13-O ) :  -0.0621 
B(  8-H , 16-O ) :   0.0590 B(  9-C , 10-H ) :   0.6203 B(  9-C , 11-O ) :   0.6490 
B(  9-C , 12-O ) :   0.7002 B(  9-C , 13-O ) :  -0.0965 B( 10-H , 11-O ) :  -0.0679 
B( 10-H , 12-O ) :  -0.0573 B( 11-O , 12-O ) :  -0.1361 B( 12-O , 19-H ) :   0.4891 
B( 13-O , 20-H ) :   0.5221 B( 14-O , 20-H ) :   0.0683 B( 14-O , 21-H ) :   0.5247 
B( 15-O , 22-H ) :   0.5240 B( 16-O , 17-H ) :  -0.0677 B( 16-O , 18-H ) :  -0.0589 
B( 16-O , 23-H ) :   0.5055 B( 17-H , 18-H ) :  -0.0852 


                     *******************************
                     * LOEWDIN POPULATION ANALYSIS *
                     *******************************

----------------------
LOEWDIN ATOMIC CHARGES
----------------------
   0 C :   -0.135863
   1 C :   -0.053436
   2 H :    0.130826
   3 C :   -0.074390
   4 H :    0.100711
   5 C :   -0.087553
   6 H :    0.121501
   7 C :   -0.093462
   8 H :    0.108500
   9 C :    0.001532
  10 H :    0.102031
  11 O :   -0.148990
  12 O :   -0.302893
  13 O :   -0.322104
  14 O :   -0.311625
  15 O :   -0.323337
  16 O :   -0.333202
  17 H :    0.101935
  18 H :    0.102302
  19 H :    0.283529
  20 H :    0.276406
  21 H :    0.284846
  22 H :    0.282676
  23 H :    0.290061

-------------------------------
LOEWDIN REDUCED ORBITAL CHARGES
-------------------------------
  0 C s       :     2.926797  s :     2.926797
      pz      :     0.898745  p :     3.068128
      px      :     1.066619
      py      :     1.102764
      dz2     :     0.040254  d :     0.140939
      dxz     :     0.031325
      dyz     :     0.030197
      dx2y2   :     0.031414
      dxy     :     0.007747

  1 C s       :     2.896311  s :     2.896311
      pz      :     1.070530  p :     3.006725
      px      :     0.920908
      py      :     1.015287
      dz2     :     0.016330  d :     0.150400
      dxz     :     0.043542
      dyz     :     0.025041
      dx2y2   :     0.034340
      dxy     :     0.031146

  2 H s       :     0.869174  s :     0.869174

  3 C s       :     2.892634  s :     2.892634
      pz      :     1.015865  p :     3.025003
      px      :     1.025660
      py      :     0.983478
      dz2     :     0.040743  d :     0.156753
      dxz     :     0.024993
      dyz     :     0.029491
      dx2y2   :     0.037016
      dxy     :     0.024510

  4 H s       :     0.899289  s :     0.899289

  5 C s       :     2.895241  s :     2.895241
      pz      :     1.046233  p :     3.032880
      px      :     1.059659
      py      :     0.926988
      dz2     :     0.031258  d :     0.159432
      dxz     :     0.018568
      dyz     :     0.033551
      dx2y2   :     0.042652
      dxy     :     0.033404

  6 H s       :     0.878499  s :     0.878499

  7 C s       :     2.898448  s :     2.898448
      pz      :     1.104037  p :     3.038714
      px      :     0.879499
      py      :     1.055179
      dz2     :     0.023710  d :     0.156300
      dxz     :     0.039082
      dyz     :     0.023240
      dx2y2   :     0.039766
      dxy     :     0.030502

  8 H s       :     0.891500  s :     0.891500

  9 C s       :     2.884572  s :     2.884572
      pz      :     0.989305  p :     2.889553
      px      :     0.952170
      py      :     0.948077
      dz2     :     0.020943  d :     0.224343
      dxz     :     0.063521
      dyz     :     0.060461
      dx2y2   :     0.050245
      dxy     :     0.029172

 10 H s       :     0.897969  s :     0.897969

 11 O s       :     3.472098  s :     3.472098
      pz      :     1.627431  p :     4.647513
      px      :     1.300273
      py      :     1.719809
      dz2     :     0.003741  d :     0.029379
      dxz     :     0.011787
      dyz     :     0.002914
      dx2y2   :     0.005599
      dxy     :     0.005337

 12 O s       :     3.539092  s :     3.539092
      pz      :     1.618395  p :     4.736348
      px      :     1.863825
      py      :     1.254127
      dz2     :     0.003112  d :     0.027453
      dxz     :     0.001931
      dyz     :     0.015675
      dx2y2   :     0.005254
      dxy     :     0.001482

 13 O s       :     3.533131  s :     3.533131
      pz      :     1.872074  p :     4.761998
      px      :     1.438463
      py      :     1.451460
      dz2     :     0.003502  d :     0.026975
      dxz     :     0.003071
      dyz     :     0.002591
      dx2y2   :     0.014531
      dxy     :     0.003280

 14 O s       :     3.539353  s :     3.539353
      pz      :     1.360759  p :     4.745253
      px      :     1.793759
      py      :     1.590735
      dz2     :     0.009095  d :     0.027019
      dxz     :     0.005242
      dyz     :     0.004495
      dx2y2   :     0.004614
      dxy     :     0.003574

 15 O s       :     3.537916  s :     3.537916
      pz      :     1.710866  p :     4.758427
      px      :     1.768687
      py      :     1.278873
      dz2     :     0.004685  d :     0.026995
      dxz     :     0.004143
      dyz     :     0.006037
      dx2y2   :     0.006127
      dxy     :     0.006003

 16 O s       :     3.541268  s :     3.541268
      pz      :     1.305438  p :     4.765517
      px      :     1.775427
      py      :     1.684651
      dz2     :     0.004103  d :     0.026417
      dxz     :     0.007039
      dyz     :     0.009289
      dx2y2   :     0.002287
      dxy     :     0.003699

 17 H s       :     0.898065  s :     0.898065

 18 H s       :     0.897698  s :     0.897698

 19 H s       :     0.716471  s :     0.716471

 20 H s       :     0.723594  s :     0.723594

 21 H s       :     0.715154  s :     0.715154

 22 H s       :     0.717324  s :     0.717324

 23 H s       :     0.709939  s :     0.709939


---------------------------------
LOEWDIN BOND ORDERS (THRESH 0.050000)
---------------------------------
B(  0-C ,  1-C ) :   1.0702 B(  0-C ,  3-C ) :   0.0572 B(  0-C , 11-O ) :   0.0636 
B(  0-C , 16-O ) :   1.2156 B(  0-C , 17-H ) :   0.9042 B(  0-C , 18-H ) :   0.9066 
B(  1-C ,  2-H ) :   0.8712 B(  1-C ,  3-C ) :   1.0077 B(  1-C ,  5-C ) :   0.0540 
B(  1-C ,  9-C ) :   0.0615 B(  1-C , 11-O ) :   1.1456 B(  1-C , 15-O ) :   0.0620 
B(  1-C , 16-O ) :   0.0543 B(  3-C ,  4-H ) :   0.8577 B(  3-C ,  5-C ) :   1.0262 
B(  3-C ,  7-C ) :   0.0595 B(  3-C , 11-O ) :   0.0560 B(  3-C , 14-O ) :   0.0736 
B(  3-C , 15-O ) :   1.2196 B(  5-C ,  6-H ) :   0.8642 B(  5-C ,  7-C ) :   1.0217 
B(  5-C ,  9-C ) :   0.0566 B(  5-C , 13-O ) :   0.0773 B(  5-C , 14-O ) :   1.2083 
B(  5-C , 15-O ) :   0.0786 B(  7-C ,  8-H ) :   0.8559 B(  7-C ,  9-C ) :   1.0127 
B(  7-C , 11-O ) :   0.0561 B(  7-C , 12-O ) :   0.0627 B(  7-C , 13-O ) :   1.2252 
B(  7-C , 14-O ) :   0.0769 B(  9-C , 10-H ) :   0.8801 B(  9-C , 11-O ) :   1.1851 
B(  9-C , 12-O ) :   1.2762 B(  9-C , 13-O ) :   0.0658 B( 11-O , 12-O ) :   0.0968 
B( 12-O , 19-H ) :   0.8779 B( 13-O , 20-H ) :   0.8670 B( 14-O , 21-H ) :   0.8792 
B( 15-O , 22-H ) :   0.8772 B( 16-O , 23-H ) :   0.8831 

------------------------------------------
LOEWDIN REDUCED ORBITAL POPULATIONS PER MO
-------------------------------------------
THRESHOLD FOR PRINTING IS 0.1%%
                      0         1         2         3         4         5   
                 -18.76836 -18.75838 -18.75794 -18.75160 -18.74528 -18.73727
                   2.00000   2.00000   2.00000   2.00000   2.00000   2.00000
                  --------  --------  --------  --------  --------  --------
11 O  s               0.0      99.9       0.0       0.0       0.0       0.0
12 O  s               0.0       0.0       0.0      99.9       0.0       0.0
13 O  s               0.0       0.0       0.0       0.0       0.0      99.9
14 O  s              99.9       0.0       0.0       0.0       0.0       0.0
15 O  s               0.0       0.0       0.0       0.0      99.9       0.0
16 O  s               0.0       0.0      99.9       0.0       0.0       0.0

                      6         7         8         9        10        11   
                  -9.97558  -9.94270  -9.93868  -9.93802  -9.93546  -9.92805
                   2.00000   2.00000   2.00000   2.00000   2.00000   2.00000
                  --------  --------  --------  --------  --------  --------
 0 C  s               0.0       0.0       0.0       0.0      99.6       0.0
 1 C  s               0.0      99.6       0.0       0.0       0.0       0.0
 3 C  s               0.0       0.0       0.1      99.4       0.0       0.0
 3 C  px              0.0       0.0       0.1       0.0       0.0       0.0
 5 C  s               0.0       0.0      99.4       0.1       0.0       0.0
 5 C  px              0.0       0.0       0.0       0.1       0.0       0.0
 7 C  s               0.0       0.0       0.0       0.0       0.0      99.6
 9 C  s              99.6       0.0       0.0       0.0       0.0       0.0
13 O  px              0.0       0.0       0.0       0.0       0.0       0.1

                     12        13        14        15        16        17   
                  -0.97126  -0.95012  -0.93120  -0.92209  -0.90882  -0.90321
                   2.00000   2.00000   2.00000   2.00000   2.00000   2.00000
                  --------  --------  --------  --------  --------  --------
 0 C  s               0.9       0.0       9.2       0.4       0.0       0.0
 0 C  pz              0.0       0.0       6.3       1.0       0.0       0.7
 0 C  px              0.4       0.0       1.1       0.0       0.0       0.0
 0 C  py              0.1       0.0       0.2       0.0       0.0       0.0
 0 C  dz2             0.0       0.0       0.5       0.0       0.0       0.0
 0 C  dxz             0.0       0.0       0.3       0.0       0.0       0.0
 1 C  s               4.9       0.1       0.8       1.0       0.1       3.3
 1 C  pz              0.2       0.1       0.9       0.1       0.1       0.6
 1 C  px              2.9       0.2       0.1       0.2       0.2       2.4
 1 C  py              0.5       0.6       0.0       0.8       0.3       0.8
 1 C  dxy             0.1       0.0       0.0       0.0       0.0       0.1
 2 H  s               0.6       0.0       0.1       0.3       0.0       0.4
 3 C  s               1.4       2.0       0.7       7.0       0.6       0.1
 3 C  pz              0.1       0.1       0.1       2.9       0.4       0.0
 3 C  px              0.1       0.4       0.1       1.5       0.5       0.2
 3 C  py              0.2       1.2       0.0       2.3       0.4       1.4
 3 C  dxz             0.0       0.0       0.0       0.1       0.0       0.0
 3 C  dyz             0.0       0.0       0.0       0.3       0.1       0.1
 3 C  dxy             0.0       0.0       0.0       0.2       0.0       0.0
 4 H  s               0.2       0.3       0.3       0.6       0.1       0.0
 5 C  s               1.7       9.1       0.0       0.0       0.2       0.0
 5 C  pz              0.1       2.3       0.0       0.5       0.2       0.0
 5 C  px              0.0       0.1       0.2       2.1       0.0       0.0
 5 C  py              0.1       4.2       0.0       0.0       2.5       0.3
 5 C  dyz             0.0       0.4       0.0       0.0       0.2       0.0
 5 C  dx2y2           0.0       0.2       0.0       0.1       0.1       0.0
 6 H  s               0.3       1.1       0.0       0.0       0.0       0.0
 7 C  s               2.8       1.3       0.3       1.6       5.8       0.2
 7 C  pz              0.5       0.0       0.0       0.0       0.1       0.0
 7 C  px              0.0       0.2       0.2       1.4       7.2       0.1
 7 C  py              0.4       2.2       0.0       0.1       0.1       0.2
 7 C  dz2             0.0       0.0       0.0       0.0       0.1       0.0
 7 C  dx2y2           0.0       0.0       0.0       0.1       0.4       0.0
 8 H  s               0.5       0.1       0.0       0.3       0.6       0.0
 9 C  s              14.3       1.1       0.8       0.1       0.0       0.2
 9 C  pz              0.0       0.0       0.2       0.6       0.5       5.2
 9 C  px              2.7       0.4       0.0       0.3       0.7       2.1
 9 C  py              0.8       0.8       0.3       0.0       0.5       6.3
 9 C  dxz             0.2       0.0       0.0       0.0       0.0       0.2
 9 C  dyz             0.2       0.1       0.0       0.0       0.0       0.3
 9 C  dx2y2           0.0       0.0       0.0       0.0       0.0       0.6
10 H  s               1.7       0.1       0.1       0.0       0.0       0.0
11 O  s              26.6       2.4       0.0       1.5       1.7      21.8
11 O  pz              1.8       0.1       0.0       0.0       0.1       0.5
11 O  px              0.1       0.0       0.1       0.1       0.0       0.2
11 O  py              0.1       0.0       0.0       0.0       0.0       0.4
12 O  s              17.8       3.3       3.4       1.4       0.1      33.9
12 O  pz              1.5       0.2       0.2       0.1       0.0       1.4
12 O  py              0.3       0.0       0.0       0.0       0.0       0.1
13 O  s               1.7       3.2       1.0       8.1      42.3       1.7
13 O  px              0.2       0.2       0.1       0.3       1.4       0.1
13 O  py              0.0       0.1       0.0       0.2       0.9       0.0
14 O  s               2.6      43.0       0.2       2.1      11.4       0.1
14 O  pz              0.0       0.2       0.0       0.0       0.1       0.0
14 O  px              0.0       0.6       0.0       0.0       0.2       0.0
14 O  py              0.2       1.8       0.0       0.1       0.2       0.0
15 O  s               1.0       4.0       2.0      40.6       7.0       3.6
15 O  pz              0.1       0.2       0.1       1.3       0.2       0.1
15 O  px              0.0       0.1       0.1       1.0       0.1       0.1
16 O  s               1.2       0.1      52.5       4.8       0.0       1.0
16 O  pz              0.0       0.0       0.3       0.0       0.0       0.0
16 O  px              0.0       0.0       1.3       0.1       0.0       0.0
16 O  py              0.0       0.0       1.4       0.2       0.0       0.0
17 H  s               0.1       0.0       1.1       0.0       0.0       0.0
18 H  s               0.2       0.0       1.0       0.0       0.0       0.0
19 H  s               3.5       0.6       0.7       0.3       0.0       6.9
20 H  s               0.4       1.1       0.2       1.7       7.9       0.4
21 H  s               0.5       8.6       0.0       0.4       2.3       0.0
22 H  s               0.2       1.0       0.4       8.0       1.3       0.8
23 H  s               0.2       0.0      10.7       1.0       0.0       0.2

                     18        19        20        21        22        23   
                  -0.70064  -0.68641  -0.61988  -0.57968  -0.56440  -0.51737
                   2.00000   2.00000   2.00000   2.00000   2.00000   2.00000
                  --------  --------  --------  --------  --------  --------
 0 C  s               5.4       3.9      13.7       5.0       2.9       0.2
 0 C  pz              2.6       1.6       1.0       0.1       0.4       1.3
 0 C  px              0.1       0.0       0.2       0.2       0.5       0.3
 0 C  py              1.1       0.1       0.0       1.2       0.0       0.0
 1 C  s              13.9       6.4       0.3       0.7       3.0       2.6
 1 C  pz              1.8       0.1       2.5       0.0       5.2       3.1
 1 C  px              0.8       0.7       3.5       0.0       0.7       2.2
 1 C  py              1.6       1.3       2.6       7.0       0.8       0.1
 1 C  dyz             0.0       0.0       0.2       0.1       0.0       0.0
 1 C  dxy             0.1       0.0       0.0       0.0       0.1       0.0
 2 H  s               2.7       1.9       0.1       0.3       2.0       4.1
 3 C  s              12.4       0.5       3.5       6.5       3.8       0.3
 3 C  pz              0.2       0.3       0.0       0.1       1.2       5.1
 3 C  px              0.7       3.2       1.7       3.2       0.0       0.6
 3 C  py              4.6       0.5       0.0       1.3       0.6       0.0
 3 C  dyz             0.1       0.0       0.0       0.0       0.0       0.0
 3 C  dx2y2           0.0       0.1       0.0       0.0       0.0       0.0
 4 H  s               2.6       0.1       0.5       2.7       2.1       1.9
 5 C  s               6.4       9.1       3.6       8.0       0.3       0.3
 5 C  pz              0.0       0.0       0.6       0.7       0.7       3.7
 5 C  px              1.5       0.0       1.3       3.6       2.1       1.6
 5 C  py              1.7       3.5       0.1       0.5       1.4       6.6
 6 H  s               1.1       2.0       1.1       4.0       0.2       2.0
 7 C  s               1.4      12.3       3.3       0.1       7.4       1.8
 7 C  pz              0.0       1.8       0.0       0.1       1.0       2.0
 7 C  px              1.2       3.4       0.0       0.2       0.1       2.0
 7 C  py              0.6       0.2       4.1       4.6       0.1       1.5
 7 C  dyz             0.0       0.0       0.1       0.1       0.0       0.0
 7 C  dx2y2           0.0       0.1       0.0       0.0       0.0       0.1
 8 H  s               0.4       2.4       0.8       0.0       3.3       2.3
 9 C  s               1.0       7.5       6.4       2.2       2.1       3.0
 9 C  pz              2.0       0.2       0.7       0.2       7.6       0.4
 9 C  px              0.5       0.2       0.7       0.4       0.6       3.3
 9 C  py              0.2       4.1       0.9       0.0       1.4       1.0
 9 C  dyz             0.0       0.1       0.0       0.0       0.0       0.1
 9 C  dx2y2           0.1       0.0       0.0       0.0       0.1       0.0
10 H  s               0.3       1.6       1.6       0.7       1.6       2.3
11 O  s               4.3       0.6       1.4       0.4       0.0       0.5
11 O  pz              0.1       0.1       0.5       0.1       0.2       0.2
11 O  px              3.8       6.1       1.2       0.5      16.9       0.5
11 O  py              0.8       0.0       0.3       0.1       2.3       0.0
11 O  dxz             0.1       0.1       0.0       0.0       0.1       0.0
12 O  s               0.4       1.5       1.2       0.3       0.5       0.2
12 O  pz              0.1       0.0       0.0       0.0       1.0       0.1
12 O  px              0.0       0.0       0.0       0.0       0.1       0.4
12 O  py              0.1       2.7       5.7       3.2       0.1      10.9
12 O  dyz             0.0       0.0       0.1       0.0       0.0       0.1
13 O  s               0.4       3.6       0.6       0.2       1.1       0.1
13 O  pz              0.0       0.2       0.1       0.0       0.1       0.3
13 O  px              0.2       1.8       1.1       0.0       4.4       0.3
13 O  py              0.0       1.3       1.7       0.4       2.6       0.1
13 O  dx2y2           0.0       0.1       0.0       0.0       0.1       0.0
14 O  s               1.5       1.9       0.7       0.7       0.0       0.6
14 O  pz              0.8       1.5       2.0      10.9       1.1      11.5
14 O  px              0.0       0.0       0.0       0.3       0.1       0.5
14 O  py              0.5       1.0       0.7       3.7       0.1       0.5
15 O  s               3.6       0.1       0.9       0.5       0.7       0.0
15 O  pz              0.2       0.0       0.2       0.8       0.8       0.1
15 O  px              0.1       0.1       0.3       0.0       0.2       0.0
15 O  py              3.2       0.0       1.4       7.6       1.8       2.4
16 O  s               1.6       0.6       1.8       0.5       0.4       0.0
16 O  pz              1.9       0.9       6.8       2.3       4.0       4.6
16 O  px              0.0       0.0       0.1       0.1       0.2       0.1
16 O  py              0.3       0.0       0.3       0.0       0.3       0.9
17 H  s               1.2       0.9       4.0       1.5       1.3       0.0
18 H  s               0.9       1.0       3.5       2.5       0.6       0.0
19 H  s               0.1       1.2       2.1       1.0       0.1       3.0
20 H  s               0.2       2.0       1.0       0.0       2.2       0.0
21 H  s               0.7       1.1       1.0       4.6       0.3       3.2
22 H  s               2.0       0.0       0.7       2.6       0.8       0.6
23 H  s               1.2       0.4       2.5       0.6       1.3       1.8

                     24        25        26        27        28        29   
                  -0.49951  -0.47191  -0.46898  -0.46068  -0.45535  -0.41687
                   2.00000   2.00000   2.00000   2.00000   2.00000   2.00000
                  --------  --------  --------  --------  --------  --------
 0 C  s               0.3       1.9       0.2       0.1       0.4       0.0
 0 C  pz              0.1       3.7       0.7       0.0       4.9       4.5
 0 C  px              2.7       8.0       0.0       0.0       0.3       3.3
 0 C  py              0.1      12.0       1.4       0.5       3.2       0.7
 0 C  dz2             0.0       0.1       0.0       0.0       0.0       0.1
 0 C  dxz             0.0       0.2       0.0       0.0       0.1       0.1
 0 C  dyz             0.0       0.0       0.1       0.0       0.1       0.1
 0 C  dxy             0.0       0.1       0.0       0.0       0.0       0.0
 1 C  s               0.0       0.6       2.3       0.0       1.6       0.3
 1 C  pz              0.8       0.7       0.2       0.1       0.7      11.0
 1 C  px              2.1       0.3       0.5       2.0       4.5       0.3
 1 C  py              0.9       1.1       1.2       0.7       0.2       0.0
 1 C  dz2             0.0       0.1       0.0       0.0       0.0       0.1
 1 C  dxy             0.0       0.0       0.1       0.0       0.0       0.0
 2 H  s               0.7       0.0       1.1       0.3       1.1       2.4
 3 C  s               0.0       0.4       1.1       0.6       0.2       0.1
 3 C  pz              2.1       0.0       0.8       2.1      13.8       0.0
 3 C  px              1.7       1.3       1.4       8.6       1.1       0.4
 3 C  py              0.0       2.2       6.8       0.6       0.4       1.3
 3 C  dxz             0.0       0.0       0.0       0.2       0.0       0.0
 4 H  s               0.3       0.0       1.7       0.5       5.7       0.0
 5 C  s               0.1       0.2       0.3       0.1       0.1       0.5
 5 C  pz              0.2       0.3       1.1       3.4       7.3       2.4
 5 C  px              1.7       2.2       0.6      10.1       0.0       0.1
 5 C  py              0.5       1.5       5.9       0.3       1.1       1.0
 5 C  dxz             0.0       0.0       0.0       0.1       0.0       0.0
 5 C  dx2y2           0.0       0.1       0.0       0.1       0.0       0.0
 6 H  s               0.1       0.1       0.9       0.4       2.4       0.2
 7 C  s               0.9       0.1       0.5       1.3       0.0       0.1
 7 C  pz              1.6       0.4       6.2       3.2       1.6       0.9
 7 C  px              2.4       1.4       4.7       4.4       0.1       0.6
 7 C  py              0.6       0.2       0.8       3.3       0.3       2.5
 7 C  dx2y2           0.1       0.0       0.2       0.2       0.0       0.1
 8 H  s               0.3       0.3       1.2       3.2       0.4       0.4
 9 C  s               0.1       0.0       1.1       0.1       0.1       0.1
 9 C  pz             10.1       0.4       1.1       0.1       2.3       1.2
 9 C  px              2.4       0.8       0.2       6.7       0.2       7.8
 9 C  py              2.6       0.2       0.8       0.2       0.8       3.8
 9 C  dyz             0.2       0.0       0.0       0.0       0.0       0.0
10 H  s               2.6       0.5       1.3       2.1       1.0       3.5
11 O  s               0.2       0.0       2.6       0.0       0.0       1.7
11 O  pz              1.8       0.0       0.6       0.4       0.1      14.0
11 O  px              3.0       0.0       1.2       2.9       0.8       2.5
11 O  py              0.0       0.4       1.5       1.3       2.1       0.0
12 O  s               0.1       0.0       0.0       0.0       0.4       0.1
12 O  pz              0.5       0.0       0.3       0.0       1.0       1.0
12 O  px              0.4       0.2       0.1       1.2       0.1       3.3
12 O  py             24.3       0.9       0.4       0.2       0.3       2.5
12 O  dyz             0.2       0.0       0.0       0.0       0.0       0.0
13 O  s               0.2       0.0       0.0       1.6       0.0       0.6
13 O  pz              1.1       0.4       0.0       1.3       0.1       0.3
13 O  px              4.6       0.5       6.7       0.1       0.5       0.1
13 O  py              3.4       1.1       9.6       7.5       0.2       2.4
13 O  dx2y2           0.1       0.0       0.2       0.0       0.0       0.0
14 O  s               0.1       0.6       0.0       0.0       0.2       1.7
14 O  pz              0.6       3.8       5.5       0.6       3.1       2.9
14 O  px              0.1       0.7       0.4       4.3       0.1       0.4
14 O  py              0.2       0.1       1.1       2.2       3.2       2.6
15 O  s               0.1       0.1       0.2       1.5       0.2       0.0
15 O  pz              0.0       0.3       3.3       0.1       0.2       0.0
15 O  px              0.0       0.4       0.3       1.7       0.9       0.0
15 O  py              4.9       0.5       7.6      10.8      11.7       0.0
16 O  s               0.1       1.9       0.0       0.0       0.1       0.1
16 O  pz              0.8      15.5       1.3       0.0       9.8       4.3
16 O  px              0.7       1.2       0.0       0.1       0.1       1.6
16 O  py              0.4       8.6       0.0       0.1       0.2       1.6
17 H  s               1.2       4.0       0.0       0.0       0.1       1.2
18 H  s               0.2       8.2       0.7       0.3       0.8       1.1
19 H  s               7.3       0.3       0.2       0.1       0.1       0.4
20 H  s               2.6       0.5       4.4       1.9       0.2       0.6
21 H  s               0.2       1.1       1.6       0.7       1.3       0.5
22 H  s               1.4       0.2       2.6       3.0       3.3       0.0
23 H  s               0.4       6.6       0.3       0.0       1.9       1.6

                     30        31        32        33        34        35   
                  -0.40526  -0.39683  -0.38950  -0.37390  -0.35485  -0.34769
                   2.00000   2.00000   2.00000   2.00000   2.00000   2.00000
                  --------  --------  --------  --------  --------  --------
 0 C  s               0.0       0.1       0.0       0.0       0.0       0.2
 0 C  pz              2.7       0.7       0.4       3.6       0.1       1.0
 0 C  px             24.0       0.6       0.7       0.0       0.1       1.4
 0 C  py              8.1       1.7       0.0       5.2       3.3       4.2
 0 C  dxz             0.0       0.0       0.0       0.0       0.0       0.2
 0 C  dx2y2           0.2       0.0       0.0       0.0       0.1       0.1
 1 C  s               0.2       0.1       0.5       0.2       0.0       0.1
 1 C  pz              0.1       0.5       0.3       0.4       0.0       7.9
 1 C  px              0.0       2.1       2.0       5.9       0.3       7.4
 1 C  py              4.9       0.1       0.4      10.4       1.6       3.0
 1 C  dz2             0.0       0.0       0.0       0.1       0.0       0.1
 1 C  dxz             0.0       0.0       0.1       0.0       0.0       0.4
 1 C  dyz             0.1       0.0       0.1       0.0       0.1       0.0
 1 C  dx2y2           0.1       0.0       0.0       0.1       0.1       0.0
 1 C  dxy             0.0       0.0       0.1       0.0       0.0       0.0
 2 H  s               0.0       0.2       2.0       1.0       0.1      10.6
 3 C  s               0.0       0.0       0.2       0.4       0.9       0.1
 3 C  pz              0.1       0.7       7.6       0.8       1.2       1.4
 3 C  px              0.1       0.9       7.9       0.3       1.0       0.3
 3 C  py              1.2       0.1       0.2      12.2       1.4       0.2
 3 C  dxz             0.0       0.0       0.1       0.0       0.3       0.0
 3 C  dyz             0.0       0.0       0.0       0.2       0.0       0.2
 3 C  dxy             0.0       0.0       0.2       0.0       0.0       0.1
 4 H  s               0.0       0.5       7.4       0.9       2.4       1.0
 5 C  s               0.1       1.5       0.0       0.2       0.5       0.0
 5 C  pz              1.4       3.2       0.0       5.8       8.9       0.1
 5 C  px              0.1       0.1       9.2       0.1       1.2       0.0
 5 C  py              0.3       1.4       1.7       0.2       0.4       0.0
 5 C  dz2             0.0       0.2       0.0       0.0       0.0       0.0
 5 C  dxz             0.0       0.0       0.0       0.1       0.0       0.0
 5 C  dyz             0.0       0.1       0.0       0.1       0.3       0.0
 5 C  dx2y2           0.0       0.3       0.0       0.0       0.0       0.0
 5 C  dxy             0.0       0.1       0.0       0.2       0.1       0.0
 6 H  s               0.2       3.6       0.2       4.0       4.9       0.0
 7 C  s               0.0       0.2       0.2       0.3       0.2       0.1
 7 C  pz              0.5       0.1      14.6       0.4       6.8       1.5
 7 C  px              0.1       4.7       0.7       1.1       0.0       0.0
 7 C  py              1.2       8.4       2.9       2.1       0.0       0.1
 7 C  dz2             0.0       0.1       0.1       0.1       0.2       0.0
 7 C  dyz             0.0       0.2       0.0       0.0       0.1       0.0
 7 C  dx2y2           0.0       0.2       0.1       0.0       0.0       0.0
 8 H  s               0.1       1.0       8.4       0.8       4.5       0.6
 9 C  s               0.5       0.9       0.1       0.0       0.2       0.1
 9 C  pz              1.8       0.4       1.5       0.5       0.6       0.1
 9 C  px              3.7       3.7       0.1       0.1       0.9       2.5
 9 C  py              0.5      10.8       0.2       2.9       1.6       1.9
 9 C  dz2             0.0       0.0       0.1       0.0       0.1       0.2
 9 C  dxz             0.2       0.1       0.0       0.0       0.0       0.1
 9 C  dyz             0.0       0.2       0.1       0.1       0.0       0.0
 9 C  dxy             0.0       0.1       0.0       0.0       0.0       0.0
10 H  s               4.4       1.7       0.3       0.2       0.4       1.7
11 O  s               0.6       0.0       0.2       0.2       0.5       0.3
11 O  pz              0.1       0.1       0.0       0.6       5.6       6.1
11 O  px              1.4       0.8       3.7       0.2       0.0       6.7
11 O  py              1.6       7.8       0.4       1.8       0.0       0.0
11 O  dxz             0.0       0.0       0.0       0.0       0.0       0.1
12 O  s               0.9       0.0       0.6       0.1       0.0       2.8
12 O  pz              2.2       2.4       0.4       1.9       0.1      13.0
12 O  px              0.2       1.7       0.0       0.1       0.6       3.2
12 O  py              0.2       5.1       1.6       0.9       0.2       0.2
13 O  s               0.2       0.0       0.3       0.0       1.1       0.3
13 O  pz              0.2       0.5       5.5       0.0       3.3       0.7
13 O  px              0.0       9.5       0.7       2.1       1.4       0.2
13 O  py              1.0       2.3       1.0       0.6       1.1       0.3
13 O  dx2y2           0.0       0.1       0.0       0.0       0.0       0.0
14 O  s               0.4       0.9       0.0       0.0       2.5       0.1
14 O  pz              0.7       7.1       0.8       0.3       0.8       0.0
14 O  px              0.0       0.2       3.4       0.3      10.0       1.2
14 O  py              1.3       0.3       0.1       4.0      18.5       0.3
15 O  s               0.1       0.0       0.0       0.5       0.6       0.2
15 O  pz              0.5       0.6       3.4       5.4       0.5       0.1
15 O  px              0.0       0.3       3.2       1.3       0.0       1.2
15 O  py              1.5       0.1       0.0       0.9       2.3       1.6
16 O  s               0.2       0.2       0.3       2.1       0.1       0.0
16 O  pz              0.4       0.1       0.1       1.1       0.1       3.2
16 O  px              7.3       0.2       1.7       3.0       0.2       0.7
16 O  py              1.6       0.4       0.0       7.8       0.8       2.5
17 H  s              13.9       0.2       0.4       0.1       0.3       2.4
18 H  s               5.0       0.6       0.0       1.5       2.1       1.6
19 H  s               0.2       1.2       0.6       0.1       0.0       0.8
20 H  s               0.2       2.9       0.0       0.5       0.5       0.1
21 H  s               0.1       2.3       0.1       0.5       0.4       0.0
22 H  s               0.5       0.0       0.0       0.3       0.9       0.5
23 H  s               0.0       0.0       0.1       0.3       0.0       0.2

                     36        37        38        39        40        41   
                  -0.32397  -0.31342  -0.29896  -0.28896  -0.28240  -0.25334
                   2.00000   2.00000   2.00000   2.00000   2.00000   2.00000
                  --------  --------  --------  --------  --------  --------
 0 C  s               0.4       0.1       0.2       0.1       0.0       0.2
 0 C  pz              3.5       0.4       0.5       0.0       0.0       0.3
 0 C  px              0.1       0.3       2.2       1.3       0.1       0.0
 0 C  py              0.0       0.9       2.9       3.8       0.1       0.1
 0 C  dz2             0.3       0.0       0.2       0.1       0.0       0.1
 0 C  dyz             0.0       0.0       0.3       0.1       0.0       0.0
 1 C  s               0.5       0.6       0.6       0.0       0.0       0.0
 1 C  pz              5.2       1.1       2.4       2.8       0.0       3.6
 1 C  px              1.0       0.0       0.2       1.0       0.1       0.2
 1 C  py              0.0       0.0       0.5       1.4       1.0       3.1
 1 C  dxz             0.3       0.0       0.0       0.0       0.0       0.3
 1 C  dx2y2           0.0       0.0       0.0       0.1       0.0       0.1
 2 H  s               5.6       0.5       0.3       0.5       0.1       3.0
 3 C  s               0.0       0.2       0.3       0.3       0.1       0.1
 3 C  pz              0.0       2.6       0.2       0.0       1.4       1.8
 3 C  px              0.0       0.3       2.6       2.2       0.7       2.3
 3 C  py              2.1       0.6       0.1       0.1       0.2       2.0
 3 C  dz2             0.0       0.1       0.0       0.0       0.0       0.1
 3 C  dyz             0.0       0.0       0.0       0.1       0.0       0.0
 3 C  dx2y2           0.0       0.4       0.0       0.1       0.2       0.2
 4 H  s               0.1       2.0       0.1       1.2       0.5       1.5
 5 C  s               0.2       0.6       0.3       0.1       0.0       0.2
[...]
 3 C  dyz             0.3       1.7       0.8       0.7       2.1       1.0
 3 C  dx2y2           0.1       0.2       0.1       0.0       0.1       0.1
 3 C  dxy             0.5       2.8       0.1       0.0       0.7       0.6
 5 C  s               0.0       0.9       0.1       0.2       0.5       0.3
 5 C  pz              0.0       0.5       0.0       0.0       0.4       0.2
 5 C  px              0.0       0.3       0.0       0.0       0.1       0.0
 5 C  py              0.0       1.5       0.3       0.4       0.5       0.3
 5 C  dz2             0.0       0.0       0.0       0.2       0.0       0.0
 5 C  dxz             0.0       0.1       0.0       0.1       0.2       0.1
 5 C  dyz             0.0       2.9       0.5       1.0       1.4       0.9
 5 C  dx2y2           0.0       3.9       0.1       0.7       0.6       0.0
 5 C  dxy             0.0       1.3       0.4       0.5       0.0       0.0
 7 C  s               0.0       0.1       0.5       0.5       0.4       0.5
 7 C  px              0.0       0.1       1.2       1.4       0.5       0.9
 7 C  py              0.0       0.2       0.1       0.1       0.0       0.1
 7 C  dz2             0.0       0.3       1.1       0.1       0.6       1.0
 7 C  dxz             0.0       0.1       0.0       0.4       0.0       0.0
 7 C  dyz             0.0       0.2       0.2       0.0       0.0       0.1
 7 C  dx2y2           0.0       0.0       1.4       5.4       1.2       2.4
 7 C  dxy             0.0       0.0       0.3       0.7       0.2       0.0
 9 C  s               0.1       0.0       1.9       0.2       1.3       0.7
 9 C  pz              0.0       0.0       0.8       0.6       0.1       0.7
 9 C  px              0.0       0.0       0.0       0.1       0.7       1.3
 9 C  py              0.0       0.1       1.4       1.1       0.0       0.0
 9 C  dz2             0.0       0.4       0.0       0.2       0.1       0.1
 9 C  dxz             0.1       0.1       0.0       1.2       1.7       2.3
 9 C  dyz             0.2       0.3       4.7       3.8       0.1       0.4
 9 C  dx2y2           0.0       0.0       2.0       1.9       0.5       2.1
 9 C  dxy             0.0       0.0       0.0       0.2       0.0       0.3
11 O  s               0.2       0.0       0.1       0.3       0.0       0.1
11 O  pz              0.0       0.0       0.0       0.1       0.0       0.1
11 O  px              0.0       0.0       0.1       0.1       2.4       3.6
11 O  py              0.0       0.0       0.0       0.1       0.4       0.3
11 O  dz2             0.0       0.9       0.0       0.1       0.9       1.2
11 O  dxz             0.0       0.0       0.2       1.5      20.5      33.3
11 O  dyz             0.0       0.0       0.0       0.6       3.0       1.3
11 O  dx2y2           1.2       0.6       0.1       1.6       0.4       0.8
11 O  dxy             0.1       0.0       1.6       3.0       3.2       3.0
12 O  s               0.1       0.1       3.1       1.2       0.0       0.0
12 O  pz              0.0       0.0       0.4       0.2       0.0       0.0
12 O  py              0.1       0.1       2.4       1.5       0.0       0.0
12 O  dz2             0.0       0.2       0.0       0.0       0.0       0.1
12 O  dxz             0.0       0.0       0.0       0.1       0.0       0.1
12 O  dyz             0.8       0.3      27.4      17.9       0.2       0.0
12 O  dx2y2           0.3       0.7      10.5       4.9       0.0       0.2
12 O  dxy             0.0       0.1       0.3       0.0       0.1       0.0
13 O  s               0.0       0.1       1.5       1.4       0.8       1.4
13 O  px              0.0       0.1       1.0       1.5       0.6       0.9
13 O  py              0.0       0.0       0.3       0.3       0.1       0.3
13 O  dz2             0.0       0.2       4.3       3.4       2.5       2.9
13 O  dxz             0.1       0.4       0.1       0.1       0.3       0.8
13 O  dx2y2           0.4       0.4      10.8      20.6       6.4       8.1
13 O  dxy             0.0       0.1       1.3       1.1       0.2       1.6
14 O  s               0.0       2.5       0.4       0.5       1.6       0.7
14 O  pz              0.0       1.1       0.1       0.2       0.4       0.2
14 O  py              0.0       1.5       0.2       0.3       0.5       0.2
14 O  dz2             0.0       1.0       0.1       0.0       1.1       0.7
14 O  dxz             0.0       1.5       0.2       0.4       0.7       0.4
14 O  dyz             0.0      17.9       1.9       4.5       4.4       1.2
14 O  dx2y2           0.0      12.3       1.1       1.4       3.5       1.4
14 O  dxy             0.0       3.2       0.3       1.1       1.2       0.5
15 O  s               0.3       1.4       0.7       0.3       1.8       0.9
15 O  pz              0.1       0.4       0.1       0.0       0.3       0.1
15 O  px              0.0       0.2       0.1       0.1       0.1       0.1
15 O  py              0.2       1.2       0.4       0.1       0.9       0.4
15 O  dz2             0.1       0.8       0.0       0.0       0.0       0.0
15 O  dxz             1.3       4.1       2.5       1.1       3.6       2.2
15 O  dyz             2.5      12.1       3.2       1.1       8.1       3.5
15 O  dx2y2           0.0       0.5       0.0       0.0       0.1       0.1
15 O  dxy             1.7       7.2       2.6       1.0       4.2       2.6
16 O  s               3.0       0.3       0.0       0.1       0.2       0.1
16 O  pz              3.9       0.2       0.0       0.1       0.2       0.1
16 O  px              0.2       0.0       0.0       0.0       0.0       0.0
16 O  dz2            29.0       1.5       0.1       0.8       0.9       0.1
16 O  dxz            23.9       1.3       0.2       0.8       0.3       0.2
16 O  dyz             8.6       0.1       0.0       0.1       0.0       0.1
16 O  dx2y2           1.2       0.0       0.0       0.0       0.0       0.0
16 O  dxy             0.4       0.0       0.0       0.0       0.0       0.0
19 H  s               0.0       0.0       0.3       0.3       0.0       0.0
20 H  s               0.0       0.0       0.1       0.4       0.1       0.1
21 H  s               0.0       0.3       0.0       0.0       0.2       0.1
22 H  s               0.1       0.3       0.1       0.0       0.2       0.1
23 H  s               0.8       0.0       0.0       0.0       0.0       0.0



                      *****************************
                      * MAYER POPULATION ANALYSIS *
                      *****************************

  NA   - Mulliken gross atomic population
  ZA   - Total nuclear charge
  QA   - Mulliken gross atomic charge
  VA   - Mayer's total valence
  BVA  - Mayer's bonded valence
  FA   - Mayer's free valence

  ATOM       NA         ZA         QA         VA         BVA        FA
  0 C      5.9713     6.0000     0.0287     3.9834     3.9834     0.0000
  1 C      5.9664     6.0000     0.0336     4.0389     4.0389     0.0000
  2 H      0.9131     1.0000     0.0869     0.9858     0.9858     0.0000
  3 C      5.9172     6.0000     0.0828     4.0405     4.0405    -0.0000
  4 H      0.9435     1.0000     0.0565     1.0015     1.0015     0.0000
  5 C      5.9938     6.0000     0.0062     4.0412     4.0412    -0.0000
  6 H      0.9300     1.0000     0.0700     0.9883     0.9883    -0.0000
  7 C      5.9920     6.0000     0.0080     4.0287     4.0287     0.0000
  8 H      0.9292     1.0000     0.0708     1.0165     1.0165     0.0000
  9 C      5.7806     6.0000     0.2194     4.1239     4.1239     0.0000
 10 H      0.9363     1.0000     0.0637     0.9857     0.9857    -0.0000
 11 O      8.3128     8.0000    -0.3128     2.1868     2.1868    -0.0000
 12 O      8.3846     8.0000    -0.3846     2.0569     2.0569    -0.0000
 13 O      8.4158     8.0000    -0.4158     2.0083     2.0083    -0.0000
 14 O      8.4246     8.0000    -0.4246     2.0239     2.0239    -0.0000
 15 O      8.4170     8.0000    -0.4170     2.0077     2.0077     0.0000
 16 O      8.4243     8.0000    -0.4243     2.0354     2.0354     0.0000
 17 H      0.9210     1.0000     0.0790     0.9432     0.9432     0.0000
 18 H      0.9275     1.0000     0.0725     0.9805     0.9805     0.0000
 19 H      0.7020     1.0000     0.2980     0.8917     0.8917     0.0000
 20 H      0.7039     1.0000     0.2961     0.9104     0.9104     0.0000
 21 H      0.6997     1.0000     0.3003     0.8910     0.8910    -0.0000
 22 H      0.7000     1.0000     0.3000     0.8923     0.8923    -0.0000
 23 H      0.6934     1.0000     0.3066     0.8777     0.8777     0.0000

  Mayer bond orders larger than 0.100000
B(  0-C ,  1-C ) :   1.0589 B(  0-C , 16-O ) :   1.0635 B(  0-C , 17-H ) :   0.9109 
B(  0-C , 18-H ) :   0.9062 B(  1-C ,  2-H ) :   0.8887 B(  1-C ,  3-C ) :   0.9893 
B(  1-C , 11-O ) :   1.0510 B(  3-C ,  4-H ) :   0.8691 B(  3-C ,  5-C ) :   1.0339 
B(  3-C , 15-O ) :   1.0646 B(  5-C ,  6-H ) :   0.8513 B(  5-C ,  7-C ) :   1.0287 
B(  5-C , 14-O ) :   1.0089 B(  7-C ,  8-H ) :   0.8606 B(  7-C ,  9-C ) :   0.9911 
B(  7-C , 13-O ) :   1.0793 B(  9-C , 10-H ) :   0.8858 B(  9-C , 11-O ) :   1.0469 
B(  9-C , 12-O ) :   1.1488 B( 12-O , 19-H ) :   0.8434 B( 13-O , 20-H ) :   0.8294 
B( 14-O , 21-H ) :   0.8449 B( 15-O , 22-H ) :   0.8419 B( 16-O , 23-H ) :   0.8452 


-------
TIMINGS
-------

Total SCF time: 0 days 0 hours 0 min 9 sec 

Total time                  ....       9.247 sec
Sum of individual times     ....       8.843 sec  ( 95.6%)

SCF preparation             ....       0.183 sec  (  2.0%)
Fock matrix formation       ....       7.961 sec  ( 86.1%)
  Startup                   ....       0.054 sec  (  0.7% of F)
  Split-RI-J                ....       3.550 sec  ( 44.6% of F)
  XC integration            ....       3.946 sec  ( 49.6% of F)
    Basis function eval.    ....       1.327 sec  ( 33.6% of XC)
    Density eval.           ....       0.754 sec  ( 19.1% of XC)
    XC-Functional eval.     ....       0.272 sec  (  6.9% of XC)
    XC-Potential eval.      ....       1.001 sec  ( 25.4% of XC)
Diagonalization             ....       0.000 sec  (  0.0%)
Density matrix formation    ....       0.154 sec  (  1.7%)
Total Energy calculation    ....       0.024 sec  (  0.3%)
Population analysis         ....       0.099 sec  (  1.1%)
Orbital Transformation      ....       0.048 sec  (  0.5%)
Orbital Orthonormalization  ....       0.000 sec  (  0.0%)
DIIS solution               ....       0.291 sec  (  3.1%)
  MO trafo                  ....       0.000 sec  (  0.0 % of DIIS)
  Orb grad                  ....       0.000 sec  (  0.0 % of DIIS)
  Energy W gradient         ....       0.000 sec  (  0.0 % of DIIS)
  DIIS error                ....       0.006 sec  (  2.0 % of DIIS)
  DIIS work                 ....       0.247 sec  ( 84.7 % of DIIS)
  Form Q                    ....       0.000 sec  (  0.0 % of DIIS)
  Form QpQm                 ....       0.000 sec  (  0.0 % of DIIS)
  Exp/Cayley                ....       0.000 sec  (  0.0 % of DIIS)
  Orb update                ....       0.000 sec  (  0.0 % of DIIS)
  Wake-sleep                ....       0.012 sec  (  4.2 % of DIIS)
SOSCF solution              ....       0.083 sec  (  0.9%)
  MO trafo                  ....       0.046 sec  ( 54.7 % of SOSCF)
  Orb grad                  ....       0.001 sec  (  1.2 % of SOSCF)
  Rot update                ....       0.018 sec  ( 21.6 % of SOSCF)
  Step                      ....       0.019 sec  ( 22.4 % of SOSCF)
Finished LeanSCF after   9.3 sec

Maximum memory used throughout the entire LEANSCF-calculation: 18.5 MB


-------------------------------------------------------------------------------
                          DFT DISPERSION CORRECTION                            
                                                                               
                                DFTD4 V3.4.0                                   
-------------------------------------------------------------------------------
The PBE functional is recognized
Active option DFTDOPT                   ...         5   

-------------------------   ----------------
Dispersion correction           -0.025220845
-------------------------   ----------------

------------------   -----------------
gCP correction             0.155671504
------------------   -----------------

-------------------------   --------------------
FINAL SINGLE POINT ENERGY      -685.689877642881
-------------------------   --------------------


------------------------------------------------------------------------------
                              ORCA PROPERTY CALCULATIONS
------------------------------------------------------------------------------

GBWName                                 ... sp.gbw
Number of atoms                         ...     24
Number of basis functions               ...    192
Max core memory                         ...   1024 MB

Electric properties:
Dipole moment                           ... YES
Quadrupole moment                       ...  NO
Static polarizability (Dipole/Dipole)   ...  NO
Static polarizability (Dipole/Quad.)    ...  NO
Static polarizability (Quad./Quad.)     ...  NO
Static polarizability (Velocity)        ...  NO

Atomic electric properties:
Dipole moment                           ...  NO
Quadrupole moment                       ...  NO
Static polarizability                   ...  NO

Choice of electric origin               ... Center of mass
Position of electric origin             ...    -0.000009    -0.000002     0.000000

General magnetic properties:
Magnetizability                         ...  NO

EPR properties:
g-Tensor (aka g-matrix)                 ...  NO
Zero-Field splitting spin-orbit         ...  NO
Zero-field splitting spin-spin          ...  NO
Hyperfine couplings                     ...  NO (   0 nuclei)
Quadrupole couplings                    ...  NO (   0 nuclei)
Contact density                         ...  NO (   0 nuclei)

NMR properties:
Chemical shifts                         ...  NO (   0 nuclei)
Spin-rotation constants                 ...  NO (   0 nuclei)
Spin-spin couplings                     ...  NO (   0 nuclei,    0 pairs)

Choice of magnetic origin               ... GIAO
Position of magnetic origin             ...     0.000000     0.000000     0.000000

Properties with geometric perturbations:
SCF Hessian                             ...  NO
IR spectrum                             ...  NO
VCD spectrum                            ...  NO
X-ray spectroscopy properties:
SCF XES/XAS/RIXS spectra                ...  NO


-------------
DIPOLE MOMENT
-------------

Method             : SCF
Type of density    : Electron Density
Multiplicity       :   1
Irrep              :   0
Energy             :  -685.8203283022345431 Eh
Relativity type    : 
Basis              : AO
                                X                 Y                 Z
Electronic contribution:      2.467638137       0.410317656       1.051210289
Nuclear contribution   :     -3.201957533      -0.640942569      -1.797960896
                        -----------------------------------------
Total Dipole Moment    :     -0.734319396      -0.230624913      -0.746750607
                        -----------------------------------------
Magnitude (a.u.)       :      1.072403514
Magnitude (Debye)      :      2.725833106



--------------------
Rotational spectrum 
--------------------
 
Rotational constants in cm-1:             0.034838             0.033158             0.022496 
Rotational constants in MHz :          1044.422813           994.051815           674.422479 

Dipole components along the rotational axes: 
x,y,z [a.u.] :    -0.445088     0.545130    -0.809184 
x,y,z [Debye]:    -1.131324     1.385610    -2.056783 

 

Dipole moment calculation done in   0.0 sec 

Maximum memory used throughout the entire PROP-calculation: 12.0 MB

--------------------------------
SUGGESTED CITATIONS FOR THIS RUN
--------------------------------

Below you find a list of papers that are relevant to this ORCA run
We neither can nor want to force you to cite these papers, but we appreciate if you do
You receive ORCA, which is the product of decades of hard work by many enthusiastic individuals, for free
The only thing we kindly ask in return is that you cite our papers,
We deeply appreciate it, if you show your appreciation for ORCA by not just citing the generic ORCA reference.

Please note that relegating all ORCA citations to the supporting information does *not* help us.
SI sections are not indexed - citations you put there will not count into any citation statistics
But we need these citations in order to attract the funding resources that allow us to do what we are doing

Therefore, if you are a happy ORCA user, please consider citing a few of the papers listed below in the main body of your paper

In addition to the list printed below, the program has created the file sp.bibtex that contains the list in bibtex format
You can import this file easily into all common literature databanks and citation aid programs


List of essential papers. We consider these as the minimum necessary citations

  1. Neese,F.
     Software update: the ORCA program system, version 5.0
     WIRES Comput. Molec. Sci., 2022 12(1)e1606
     doi.org/10.1002/wcms.1606

List of papers to cite with high priority. The work reported in these papers was absolutely
necessary for this run to complete.
Our perspective: the developers of density functionals and basis sets usually get cited in chemistry papers
Good! But without the algorithms to do something with them, the functionals or basis sets would not do anything.
Hence, in our opinion, the algorithm design and method developments papers are equally worthy of getting cited

  1. Neese,F.
     An improvement of the resolution of the identity approximation for the formation of the Coulomb matrix
     J. Comp. Chem., 2003 24(14)1740-1747
     doi.org/10.1002/jcc.10318
  2. Neese,F.
     The SHARK Integral Generation and Digestion System
     J. Comp. Chem., 2022  1-16
     doi.org/10.1002/jcc.26942
  3. Caldeweyher,E.; Bannwarth,C.; Grimme,S.
     Extension of the D3 dispersion coefficient model
     J. Chem. Phys., 2017 147 034112-XXXX
     doi.org/10.1063/1.4993215
  4. Caldeweyher,E.; Ehlert,S.; Hansen,A.; Neugebauer,H.; Spicher,S.; Bannwarth,C.; Grimme,S.
     A generally applicable atomic-charge dependent London dispersion correction
     J. Chem. Phys., 2019 150 154122-XXXX
     doi.org/10.1063/1.5090222
  5. Caldeweyher,E.; Mewes,J.; Ehlert,S.; Grimme,S.
     Extension and evaluation of the D4 London-dispersion model for periodic systems
     Phys. Chem. Chem. Phys., 2020 22(16)8499-8512
     doi.org/10.1039/D0CP00502A

List of suggested additional citations. These are papers that are important in the 'surrounding' of 
of this run, or papers that preceded the highly important papers. If you like your results we are grateful for a citation.

  1. Neese,F.
     The ORCA program system
     WIRES Comput. Molec. Sci., 2012 2(1)73-78
     doi.org/10.1002/wcms.81
  2. Neese,F.
     Software update: the ORCA program system, version 4.0
     WIRES Comput. Molec. Sci., 2018 8(1)1-6
     doi.org/10.1002/wcms.1327
  3. Neese,F.; Wennmohs,F.; Becker,U.; Riplinger,C.
     The ORCA quantum chemistry program package
     J. Chem. Phys., 2020 152 Art. No. L224108
     doi.org/10.1063/5.0004608

List of optional additional citations

  1. Neese,F.
     Approximate second-order SCF convergence for spin unrestricted wavefunctions
     Chem. Phys. Lett., 2000 325(1-3)93-98
     doi.org/10.1016/s0009-2614(00)00662-x

Timings for individual modules:

Sum of individual times          ...       11.384 sec (=   0.190 min)
Startup calculation              ...        0.903 sec (=   0.015 min)   7.9 %
SCF iterations                   ...       10.389 sec (=   0.173 min)  91.3 %
Property calculations            ...        0.092 sec (=   0.002 min)   0.8 %
                             ****ORCA TERMINATED NORMALLY****
TOTAL RUN TIME: 0 days 0 hours 0 minutes 12 seconds 46 msec
