23
 energy: -23.161354601248 gnorm: 0.023505212198 xtb: 6.7.1 (edcfbbe)
C           -3.01251769398352        0.25318478326113       -0.00011951745618
C           -1.64683243262713       -0.43068509559913        0.00001397772544
C           -0.50596414771532        0.58635342892796       -0.00036430681968
C            0.93186843996132        0.02489333816903        0.00000948970906
C            1.18728791457759       -0.82223130721463       -1.25234651531406
C            1.90158293006298        1.21389798826214        0.00049620284116
C            1.18649791142313       -0.82257729146141        1.25230514049538
H           -3.82722239341642       -0.47845011568049        0.00026127165468
H           -3.13407663671187        0.88909380787722        0.88424617895585
H           -3.13428452393698        0.88841047117454       -0.88494529480565
H           -1.57006169210859       -1.08127425502086        0.87962935302817
H           -1.57016441332934       -1.08188448250192       -0.87916373570186
H           -0.61752681461003        1.23689004921878        0.87945541140474
H           -0.61739335569429        1.23617491863258       -0.88072870212557
H            0.56917165737711       -1.72590364723562       -1.26524398039852
H            0.97197427330160       -0.25044277197583       -2.16289188776245
H            2.23617359375420       -1.13809104078490       -1.29292335814463
H            1.75170069114308        1.84101888411713       -0.88601681098753
H            2.94229602406447        0.87021499936495        0.00024234970699
H            1.75184638875079        1.84013960433263        0.88765434974723
H            0.96932867961783       -0.25147100603885        2.16284207307980
H            0.56934617559602       -1.72692994172577        1.26392825363965
H            2.23566979963474       -1.13732633709903        1.29413809038023
23
 energy: -23.162126367177 gnorm: 0.007351489270 xtb: 6.7.1 (edcfbbe)
C           -3.00136439587383        0.25461727781935       -0.00013531163717
C           -1.64166989264656       -0.43276598477782        0.00002592232610
C           -0.50853999331732        0.59058270524121       -0.00034302860261
C            0.92479472175912        0.02345622651235        0.00002101933247
C            1.18457508553049       -0.82066300131092       -1.24964355325759
C            1.89569669948931        1.20915710354373        0.00049476153412
C            1.18381037650940       -0.82101743457813        1.24961144353798
H           -3.80483441307265       -0.48108747162961        0.00022400456031
H           -3.11638988911118        0.88446490944006        0.88218765473027
H           -3.11655187993143        0.88378620766222       -0.88291998738401
H           -1.56842160188374       -1.07291337687260        0.88297181817663
H           -1.56849439390302       -1.07351669685758       -0.88249269588123
H           -0.62239290271362        1.23266060928574        0.87996580930985
H           -0.62225629784456        1.23193999565667       -0.88119355916645
H            0.56887135237529       -1.71835262048777       -1.25474514184627
H            0.96825373186675       -0.24936881909549       -2.15227964355700
H            2.22874586912488       -1.13114740132176       -1.28593403289514
H            1.74661071363080        1.83109471801405       -0.88181331880302
H            2.92850450988702        0.86200093973988        0.00025111118069
H            1.74674436006491        1.83025924889831        0.88341345801817
H            0.96571442434766       -0.25039391187724        2.15224510089044
H            0.56903929603379       -1.71935446259237        1.25345184592567
H            2.22825489480987       -1.13043377941264        1.28711435636006
23
 energy: -23.162187663317 gnorm: 0.001431483131 xtb: 6.7.1 (edcfbbe)
C           -2.99933340916884        0.25392759044231       -0.00015566287736
C           -1.63928819177146       -0.43430363758540        0.00003624651876
C           -0.50709876929520        0.59062301830535       -0.00031946245634
C            0.92531266750670        0.02476065361375        0.00003183237234
C            1.18151897027839       -0.82033246965046       -1.24940806374960
C            1.89683466676307        1.21045038781199        0.00049300323974
C            1.18078194767193       -0.82069673079535        1.24938044656839
H           -3.80046357780507       -0.48144346231095        0.00017922922519
H           -3.11025585196851        0.88216524955318        0.88103241961380
H           -3.11036942491469        0.88149273871882       -0.88180818686398
H           -1.56547188730632       -1.07071719381436        0.88316321917494
H           -1.56551144578455       -1.07132036480113       -0.88266307749984
H           -0.62197263115871        1.22946602686434        0.87959949925427
H           -0.62183786658288        1.22875936724786       -0.88076755370335
H            0.56696779145076       -1.71644615160475       -1.24977706206349
H            0.96318376217706       -0.24951645698595       -2.14907221632586
H            2.22422844735614       -1.12781095240902       -1.28433554365124
H            1.74663177977646        1.82974939413894       -0.88090679195474
H            2.92646830571514        0.86036419855824        0.00026801617316
H            1.74674473183627        1.82895536561397        0.88246890178756
H            0.96075935493477       -0.25053903610246        2.14904985274094
H            0.56712141160747       -1.71742055611815        1.24852400966112
H            2.22374959381347       -1.12716199769114        1.28546497766783
23
 energy: -23.162191084566 gnorm: 0.000472939843 xtb: 6.7.1 (edcfbbe)
C           -2.99906359670002        0.25379286688186       -0.00017974288557
C           -1.63825909611144       -0.43497934699971        0.00004470617913
C           -0.50728819918089        0.59233755892662       -0.00029426147351
C            0.92446339594720        0.02516111009782        0.00003980346393
C            1.18114667872584       -0.82035981536656       -1.24983899506374
C            1.89750414776725        1.21031342746870        0.00049060475103
C            1.18044026022939       -0.82073139455671        1.24981579730823
H           -3.79979333731104       -0.48188070089524        0.00012934590257
H           -3.10917739072571        0.88179769329194        0.88123595575796
H           -3.10924109631765        0.88113158450191       -0.88206139900174
H           -1.56401827575104       -1.07089734761357        0.88313403703012
H           -1.56402162000852       -1.07150615251344       -0.88261002953571
H           -0.62277116559338        1.23071822211545        0.87971812615234
H           -0.62264054357207        1.23004045707396       -0.88081397890794
H            0.56738015521639       -1.71698673084945       -1.24773782409215
H            0.95972617680347       -0.25020019881577       -2.14919724682369
H            2.22427662995049       -1.12659813615678       -1.28651956069808
H            1.74718705826046        1.82933917947223       -0.88112194530458
H            2.92682742872985        0.85909038924877        0.00028927919200
H            1.74727307271416        1.82858651622405        0.88264535833747
H            0.95742971087664       -0.25121439474978        2.14918688228181
H            0.56751155996971       -1.71792748587412        1.24653706195755
H            2.22380842121232       -1.12602231991253        1.28758605832482
23
 energy: -23.162192428436 gnorm: 0.000347654114 xtb: 6.7.1 (edcfbbe)
C           -2.99947868566197        0.25357025801040       -0.00020585112458
C           -1.63820025750111       -0.43471132331294        0.00005176919477
C           -0.50678497032848        0.59232719114413       -0.00026685667479
C            0.92490544194318        0.02545600252729        0.00004768962904
C            1.18060704364002       -0.82040021471493       -1.25003306530504
C            1.89846566139772        1.21044242461102        0.00048790080564
C            1.17993346302572       -0.82077883525458        1.25001312264261
H           -3.80012516851684       -0.48227146618618        0.00007727998822
H           -3.10955826710613        0.88154288431562        0.88128578297896
H           -3.10957242233869        0.88088442380536       -0.88216406749654
H           -1.56383729998014       -1.07053337767410        0.88316866303667
H           -1.56380227511363       -1.07114790900729       -0.88262293273594
H           -0.62241386265066        1.23074544505144        0.87972691852419
H           -0.62228888953838        1.23010548283675       -0.88074002292450
H            0.56843562091496       -1.71825151817595       -1.24651917129546
H            0.95664903066955       -0.25102160346179       -2.14938173459326
H            2.22425990420399       -1.12477766270615       -1.28836361065670
H            1.74845798997581        1.82958153786929       -0.88120205941817
H            2.92770048193846        0.85882988481234        0.00031228650104
H            1.74851423744376        1.82887033838334        0.88268599789321
H            0.95449119733544       -0.25202182789375        2.14938260889403
H            0.56853988465326       -1.71915425449937        1.24537625714331
H            2.22380251672559       -1.12428089948030        1.28936112784555
23
 energy: -23.162192290327 gnorm: 0.000671108034 xtb: 6.7.1 (edcfbbe)
C           -2.99989952433436        0.25334326600054       -0.00023398918391
C           -1.63813144385137       -0.43442398816395        0.00005932418666
C           -0.50625951729455        0.59232856085316       -0.00023729149327
C            0.92536079433113        0.02575950285627        0.00005617096767
C            1.18003655931801       -0.82044221677257       -1.25023440105752
C            1.89947030314927        1.21056203488093        0.00048495259954
C            1.17939835972550       -0.82082838126297        1.25021798831512
H           -3.80045035935184       -0.48268294126731        0.00002120199142
H           -3.10995791155212        0.88128047217700        0.88133598200249
H           -3.10991875330559        0.88063027365687       -0.88227119340244
H           -1.56364197196023       -1.07014830399737        0.88320494803399
H           -1.56356559489353       -1.07076889558130       -0.88263599455750
H           -0.62203636692308        1.23078767534955        0.87973740612783
H           -0.62191749027050        1.23018865348218       -0.88066111849941
H            0.56958541998772       -1.71960749888757       -1.24520744956555
H            0.95334918119305       -0.25190454249683       -2.14956770605586
H            2.22425055644485       -1.12281427313756       -1.29034088912211
H            1.74979436056160        1.82982050287851       -0.88128618600784
H            2.92860927973573        0.85853264065803        0.00033702072931
H            1.74981856054584        1.82915396803020        0.88272753444732
H            0.95134080185925       -0.25288959386329        2.14958071616788
H            0.56966031240646       -1.72046918185047        1.24412693625774
H            2.22380481961016       -1.12240275254243        1.29126406997068
23
 energy: -23.162193508132 gnorm: 0.000237706719 xtb: 6.7.1 (edcfbbe)
C           -2.99938451003932        0.25360241697013       -0.00025096125156
C           -1.63798364092947       -0.43422296325845        0.00006135846512
C           -0.50649096642467        0.59267355251991       -0.00021909406405
C            0.92495899332479        0.02546690649378        0.00006072690039
C            1.18007367560661       -0.82042740380625       -1.25005041522644
C            1.89900274799255        1.20996468736629        0.00048256535069
C            1.17945711886229       -0.82081643730934        1.25003699438036
H           -3.79966449955782       -0.48263163063391       -0.00001020074190
H           -3.11003480252179        0.88151552655341        0.88119705887676
H           -3.10996807350669        0.88086994974811       -0.88216637901395
H           -1.56353988729937       -1.07004303815059        0.88322115062917
H           -1.56343911188739       -1.07066356969757       -0.88264580456360
H           -0.62204450282974        1.23117580291302        0.87979186852504
H           -0.62192928571443        1.23060777098426       -0.88065623941999
H            0.57063808937240       -1.72014260971395       -1.24464066459381
H            0.95230275181874       -0.25229989977832       -2.14924161654154
H            2.22451338730204       -1.12169489201751       -1.29082689771823
H            1.74950743068327        1.82922094549544       -0.88121791544705
H            2.92805759215750        0.85785435119581        0.00035008394980
H            1.74951375422298        1.82857892954703        0.88263434421307
H            0.95038732867094       -0.25327051228243        2.14926347050461
H            0.57069097441368       -1.72097684743203        1.24360011970152
H            2.22407581141430       -1.12133605470720        1.29170447993784
23
 energy: -23.162193826391 gnorm: 0.000047262221 xtb: 6.7.1 (edcfbbe)
C           -2.99917648656934        0.25375033354769       -0.00028483500193
C           -1.63788746119799       -0.43390273352143        0.00006487480924
C           -0.50657437535413        0.59299020407526       -0.00018171563622
C            0.92479607172201        0.02530095340804        0.00007062858380
C            1.17995491472937       -0.82047652419772       -1.24998010737149
C            1.89892265035799        1.20953597888346        0.00047784352679
C            1.17938170239018       -0.82087139096066        1.24997340452154
H           -3.79943358530604       -0.48254117416465       -0.00007369890105
H           -3.10999844034159        0.88169938967759        0.88113837902434
H           -3.10987610372928        0.88106355611493       -0.88217580402529
H           -1.56336357430659       -1.06982011945503        0.88318836881969
H           -1.56321352586640       -1.07043563131883       -0.88260492741527
H           -0.62192336596742        1.23150269897449        0.87985512774304
H           -0.62181417880127        1.23099675294480       -0.88059899514237
H            0.57210946068042       -1.72121942446432       -1.24354491072953
H            0.95009613520828       -0.25309741143448       -2.14907504917134
H            2.22485604992431       -1.11996359023885       -1.29193651502789
H            1.74949939664635        1.82875780629068       -0.88122973687845
H            2.92795075977762        0.85731885125670        0.00037517393607
H            1.74947233106243        1.82816613256194        0.88259588006897
H            0.94837018747146       -0.25403893331467        2.14911602262298
H            0.57211717290361       -1.72199786304266        1.24258711067429
H            2.22443463969743       -1.11971288062264        1.29272151382233
23
 energy: -23.162193860641 gnorm: 0.000025783337 xtb: 6.7.1 (edcfbbe)
C           -2.99905980503431        0.25386965038023       -0.00030492202723
C           -1.63783001139410       -0.43392078163262        0.00006385133481
C           -0.50655758811563        0.59299532825069       -0.00015882817189
C            0.92481802316391        0.02527566536104        0.00007766630779
C            1.17985034668069       -0.82054554995157       -1.24998390373633
C            1.89891485159760        1.20955070226472        0.00047474483207
C            1.17930412193983       -0.82094340755641        1.24998320319017
H           -3.79937249990186       -0.48233514378057       -0.00011053518049
H           -3.10988376641257        0.88182401514167        0.88111174579926
H           -3.10973168516083        0.88119539818615       -0.88218792000737
H           -1.56329651210691       -1.06983608567090        0.88319718073296
H           -1.56311758726070       -1.07044220765215       -0.88261981309296
H           -0.62186588362091        1.23148332899117        0.87989211996253
H           -0.62175888872007        1.23101798554608       -0.88056054424908
H            0.57261648273161       -1.72169710259573       -1.24310290730403
H            0.94916674412091       -0.25347154709532       -2.14904533911408
H            2.22492058530034       -1.11933661237272       -1.29243706339506
H            1.74951023048444        1.82875284577722       -0.88124336046801
H            2.92794311475806        0.85736386588145        0.00038799109505
H            1.74946623896765        1.82819091768008        0.88257955811229
H            0.94755848498796       -0.25439303554204        2.14910034656692
H            0.57259532472140       -1.72244061207939        1.24219867643318
H            2.22451005340491       -1.11915263653142        1.29316608523177
