      -----------------------------------------------------------      
     |                   =====================                   |     
     |                           x T B                           |     
     |                   =====================                   |     
     |                         S. Grimme                         |     
     |          Mulliken Center for Theoretical Chemistry        |     
     |                    University of Bonn                     |     
      -----------------------------------------------------------      

   * xtb version 6.7.1 (edcfbbe) compiled by 'albert@albert-system' on 2024-07-22

   xtb is free software: you can redistribute it and/or modify it under
   the terms of the GNU Lesser General Public License as published by
   the Free Software Foundation, either version 3 of the License, or
   (at your option) any later version.
   
   xtb is distributed in the hope that it will be useful,
   but WITHOUT ANY WARRANTY; without even the implied warranty of
   MERCHANTABILITY or FITNESS FOR A PARTICULAR PURPOSE.  See the
   GNU Lesser General Public License for more details.
   
   Cite this work as:
   * C. Bannwarth, E. Caldeweyher, S. Ehlert, A. Hansen, P. Pracht,
     J. Seibert, S. Spicher, S. Grimme, WIREs Comput. Mol. Sci., 2020, 11,
     e01493. DOI: 10.1002/wcms.1493
   
   for GFN2-xTB:
   * C. Bannwarth, S. Ehlert and S. Grimme., J. Chem. Theory Comput., 2019,
     15, 1652-1671. DOI: 10.1021/acs.jctc.8b01176
   for GFN1-xTB:
   * S. Grimme, C. Bannwarth, P. Shushkov, J. Chem. Theory Comput., 2017,
     13, 1989-2009. DOI: 10.1021/acs.jctc.7b00118
   for GFN0-xTB:
   * P. Pracht, E. Caldeweyher, S. Ehlert, S. Grimme, ChemRxiv, 2019, preprint.
     DOI: 10.26434/chemrxiv.8326202.v1
   for GFN-FF:
   * S. Spicher and S. Grimme, Angew. Chem. Int. Ed., 2020, 59, 15665-15673.
     DOI: 10.1002/anie.202004239
   
   for ALPB and GBSA implicit solvation:
   * S. Ehlert, M. Stahn, S. Spicher, S. Grimme, J. Chem. Theory Comput.,
     2021, 17, 4250-4261. DOI: 10.1021/acs.jctc.1c00471
   
   for ddCOSMO and CPCM-X implicit solvation:
   * M. Stahn, S. Ehlert, S. Grimme, J. Phys. Chem. A,
     2023, XX, XXXX-XXXX. DOI: 10.1021/acs.jpca.3c04382
   
   for DFT-D4:
   * E. Caldeweyher, C. Bannwarth and S. Grimme, J. Chem. Phys., 2017,
     147, 034112. DOI: 10.1063/1.4993215
   * E. Caldeweyher, S. Ehlert, A. Hansen, H. Neugebauer, S. Spicher,
     C. Bannwarth and S. Grimme, J. Chem. Phys., 2019, 150, 154122.
     DOI: 10.1063/1.5090222
   * E. Caldeweyher, J.-M. Mewes, S. Ehlert and S. Grimme, Phys. Chem. Chem. Phys.
     2020, 22, 8499-8512. DOI: 10.1039/D0CP00502A
   
   for sTDA-xTB:
   * S. Grimme and C. Bannwarth, J. Chem. Phys., 2016, 145, 054103.
     DOI: 10.1063/1.4959605
   
   in the mass-spec context:
   * V. Asgeirsson, C. Bauer and S. Grimme, Chem. Sci., 2017, 8, 4879.
     DOI: 10.1039/c7sc00601b
   * J. Koopman and S. Grimme, ACS Omega 2019, 4, 12, 15120-15133.
     DOI: 10.1021/acsomega.9b02011
   
   for metadynamics refer to:
   * S. Grimme, J. Chem. Theory Comput., 2019, 155, 2847-2862
     DOI: 10.1021/acs.jctc.9b00143
   
   for SPH calculations refer to:
   * S. Spicher and S. Grimme, J. Chem. Theory Comput., 2021, 17, 1701-1714
     DOI: 10.1021/acs.jctc.0c01306
   
   for ONIOM refer to:
   * C. Plett, A. Katbashev, S. Ehlert, S. Grimme, M. Bursch,
     Phys. Chem. Chem. Phys., 2023, 25, 17860-17868. DOI: 10.1039/D3CP02178E
   
   for DIPRO refer to:
   * J. Kohn, N. Gildemeister, S. Grimme, D. Fazzi, A. Hansen,
     J. Chem. Phys., 2023, just accepted.
   
   for PTB refer to:
   * S. Grimme, M. Mueller, A. Hansen, J. Chem. Phys., 2023, 158, 124111.
     DOI: 10.1063/5.0137838
   
   with help from (in alphabetical order)
   P. Atkinson, C. Bannwarth, F. Bohle, G. Brandenburg, E. Caldeweyher
   M. Checinski, S. Dohm, S. Ehlert, S. Ehrlich, I. Gerasimov, C. Hölzer
   A. Katbashev, J. Kohn, J. Koopman, C. Lavigne, S. Lehtola, F. März, M. Müller,
   F. Musil, H. Neugebauer, J. Pisarek, C. Plett, P. Pracht, F. Pultar,
   J. Seibert, P. Shushkov, S. Spicher, M. Stahn, M. Steiner, T. Strunk,
   J. Stückrath, T. Rose, and J. Unsleber
   
 * started run on 2025/04/04 at 19:14:44.794     
   ID    Z sym.   atoms
    1    6 C      1-4
    2    8 O      5
    3    1 H      6-15

           -------------------------------------------------
          |                Calculation Setup                |
           -------------------------------------------------

          program call               : /srv/scratch/z5358697/.xtb/bin/xtb xtb_rrho.coord --gfn2 --ohess vtight --chrg 0 --enso --norestart -I rrho-xcontrol-inp --parallel 1 --alpb water
          hostname                   : k139
          coordinate file            : xtb_rrho.coord
          omp threads                :                     1


           -------------------------------------------------
          |                 G F N 2 - x T B                 |
           -------------------------------------------------

        Reference                      10.1021/acs.jctc.8b01176
      * Hamiltonian:
        H0-scaling (s, p, d)           1.850000    2.230000    2.230000
        zeta-weighting                 0.500000
      * Dispersion:
        s8                             2.700000
        a1                             0.520000
        a2                             5.000000
        s9                             5.000000
      * Repulsion:
        kExp                           1.500000    1.000000
        rExp                           1.000000
      * Coulomb:
        alpha                          2.000000
        third order                    shell-resolved
        anisotropic                    true
        a3                             3.000000
        a5                             4.000000
        cn-shift                       1.200000
        cn-exp                         4.000000
        max-rad                        5.000000

      * Solvation model:               ALPB
        Solvent                        water
        Parameter file                 internal GFN2-xTB/ALPB
        Dielectric constant                8.0200E+01
        Reference state                gsolv [1 M gas/solution]
        Free energy shift                  1.0808E-03 Eh       6.7819E-01 kcal/mol
        Temperature                        2.9815E+02 K
        Density                            1.0000E+00 kg/L
        Solvent mass                       1.8000E+01 g/mol
        Interaction kernel             P16
        Born radius scaling (c1)           1.4744E+00
        Born radii integrator          GBOBC
        Born offset                        0.0000E+00 a0       0.0000E+00 AA
        H-bond correction              true
        Ion screening                  false
        Surface tension                    1.0000E-05 Eh       1.5569E+01 dyn/cm
        Grid points                               974 per atom

          ...................................................
          :                      SETUP                      :
          :.................................................:
          :  # basis functions                  30          :
          :  # atomic orbitals                  30          :
          :  # shells                           20          :
          :  # electrons                        32          :
          :  max. iterations                   250          :
          :  Hamiltonian                  GFN2-xTB          :
          :  restarted?                      false          :
          :  GBSA solvation                   true          :
          :  PC potential                    false          :
          :  electronic temp.          300.0000000     K    :
          :  accuracy                    1.0000000          :
          :  -> integral cutoff          0.2500000E+02      :
          :  -> integral neglect         0.1000000E-07      :
          :  -> SCF convergence          0.1000000E-05 Eh   :
          :  -> wf. convergence          0.1000000E-03 e    :
          :  Broyden damping             0.4000000          :
          :  net charge                          0          :
          :  unpaired electrons                  0          :
          ...................................................

 iter      E             dE          RMSdq      gap      omega  full diag
   1    -17.9098585 -0.179099E+02  0.325E+00   12.03       0.0  T
   2    -17.9347418 -0.248833E-01  0.170E+00   11.85       1.0  T
   3    -17.9354765 -0.734677E-03  0.602E-01   11.84       1.0  T
   4    -17.9356202 -0.143742E-03  0.119E-01   11.83       1.0  T
   5    -17.9356341 -0.138663E-04  0.633E-02   11.84       1.0  T
   6    -17.9356361 -0.201653E-05  0.123E-02   11.85       2.1  T
   7    -17.9356364 -0.321128E-06  0.560E-03   11.85       4.6  T
   8    -17.9356365 -0.689386E-07  0.216E-03   11.85      12.0  T
   9    -17.9356365 -0.581614E-08  0.411E-04   11.85      62.9  T
  10    -17.9356365 -0.796099E-09  0.164E-04   11.85     157.3  T

   *** convergence criteria satisfied after 10 iterations ***

         #    Occupation            Energy/Eh            Energy/eV
      -------------------------------------------------------------
         1        2.0000           -0.6822963             -18.5662
       ...           ...                  ...                  ...
        10        2.0000           -0.4831485             -13.1471
        11        2.0000           -0.4616779             -12.5629
        12        2.0000           -0.4559320             -12.4065
        13        2.0000           -0.4449479             -12.1076
        14        2.0000           -0.4334351             -11.7944
        15        2.0000           -0.4286739             -11.6648
        16        2.0000           -0.4072613             -11.0821 (HOMO)
        17                          0.0281194               0.7652 (LUMO)
        18                          0.0813984               2.2150
        19                          0.0998366               2.7167
        20                          0.1060896               2.8868
        21                          0.1303104               3.5459
       ...                                ...                  ...
        30                          0.2810066               7.6466
      -------------------------------------------------------------
                  HL-Gap            0.4353807 Eh           11.8473 eV
             Fermi-level           -0.1895710 Eh           -5.1585 eV

 SCC (total)                   0 d,  0 h,  0 min,  0.007 sec
 SCC setup                      ...        0 min,  0.001 sec ( 18.590%)
 Dispersion                     ...        0 min,  0.000 sec (  0.765%)
 classical contributions        ...        0 min,  0.000 sec (  0.166%)
 integral evaluation            ...        0 min,  0.001 sec ( 12.609%)
 iterations                     ...        0 min,  0.003 sec ( 42.470%)
 molecular gradient             ...        0 min,  0.002 sec ( 23.978%)
 printout                       ...        0 min,  0.000 sec (  1.256%)

         :::::::::::::::::::::::::::::::::::::::::::::::::::::
         ::                     SUMMARY                     ::
         :::::::::::::::::::::::::::::::::::::::::::::::::::::
         :: total energy             -17.728769759356 Eh    ::
         :: total w/o Gsasa/hb       -17.726133433877 Eh    ::
         :: gradient norm              0.028475357956 Eh/a0 ::
         :: HOMO-LUMO gap             11.847311637372 eV    ::
         ::.................................................::
         :: SCC energy               -17.935622367337 Eh    ::
         :: -> isotropic ES            0.035391374793 Eh    ::
         :: -> anisotropic ES          0.004094729747 Eh    ::
         :: -> anisotropic XC          0.006643190411 Eh    ::
         :: -> dispersion             -0.007563010603 Eh    ::
         :: -> Gsolv                  -0.007249027571 Eh    ::
         ::    -> Gelec               -0.004612702092 Eh    ::
         ::    -> Gsasa                0.000631474676 Eh    ::
         ::    -> Ghb                 -0.004348559853 Eh    ::
         ::    -> Gshift               0.001080759698 Eh    ::
         :: repulsion energy           0.206852607981 Eh    ::
         :: add. restraining           0.000000000000 Eh    ::
         :: total charge              -0.000000000000 e     ::
         :::::::::::::::::::::::::::::::::::::::::::::::::::::

      ----------------------------------------------------------- 
     |                   =====================                   |
     |                        A N C O P T                        |
     |                   =====================                   |
     |               Approximate Normal Coordinate               |
     |                Rational Function Optimizer                |
      ----------------------------------------------------------- 
      ----------------------------------------------------------- 
     |                   =====================                   |
     |                        A N C O P T                        |
     |                   =====================                   |
     |               Approximate Normal Coordinate               |
     |                Rational Function Optimizer                |
      ----------------------------------------------------------- 

          ...................................................
          :                      SETUP                      :
          :.................................................:
          :   optimization level         verytight          :
          :   max. optcycles                   300          :
          :   ANC micro-cycles                  20          :
          :   degrees of freedom                39          :
          :.................................................:
          :   RF solver                   davidson          :
          :   write xtbopt.log                true          :
          :   linear?                        false          :
          :   energy convergence         0.1000000E-06 Eh   :
          :   grad. convergence          0.2000000E-03 Eh/α :
          :   maxmium RF displ.          1.0000000          :
          :   Hlow (freq-cutoff)         0.1000000E-01      :
          :   Hmax (freq-cutoff)         5.0000000          :
          :   S6 in model hess.         20.0000000          :
          ...................................................

generating ANC from exact Hessian ...
Using Lindh-Hessian (1995)
 Shifting diagonal of input Hessian by   5.661274941853377E-003
 Lowest  eigenvalues of input Hessian
    0.000000    0.000000    0.000000    0.000000    0.000000    0.000000
    0.010000    0.013721    0.014531    0.015449    0.016821    0.018566
    0.034143    0.054260    0.057140    0.058244    0.062133    0.062612
 Highest eigenvalues
    1.098374    1.138168    1.207940    1.254658    1.275015    1.411148
 

........................................................................
.............................. CYCLE    1 ..............................
........................................................................

 iter      E             dE          RMSdq      gap      omega  full diag
   1    -17.9356365 -0.179356E+02  0.240E-05   11.85       0.0  T
   2    -17.9356365 -0.139266E-11  0.137E-05   11.85    1887.1  T
   3    -17.9356365 -0.216716E-12  0.734E-06   11.85    3515.5  T
     SCC iter.                  ...        0 min,  0.001 sec
     gradient                   ...        0 min,  0.002 sec
 * total energy  :   -17.7287698 Eh     change       -0.4311218E-10 Eh
   gradient norm :     0.0284764 Eh/α   predicted     0.0000000E+00 (-100.00%)
   displ. norm   :     0.1079025 α      lambda       -0.1298434E-02
   maximum displ.:     0.0472303 α      in ANC's #6, #3, #9, ...

........................................................................
.............................. CYCLE    2 ..............................
........................................................................

 iter      E             dE          RMSdq      gap      omega  full diag
   1    -17.9425757 -0.179426E+02  0.108E-01   12.17       0.0  T
   2    -17.9425843 -0.862955E-05  0.625E-02   12.17       1.0  T
   3    -17.9425848 -0.486458E-06  0.134E-02   12.18       1.9  T
   4    -17.9425852 -0.422927E-06  0.349E-03   12.17       7.4  T
   5    -17.9425853 -0.344155E-07  0.188E-03   12.17      13.8  T
   6    -17.9425853 -0.650093E-08  0.821E-04   12.17      31.4  T
   7    -17.9425853 -0.139217E-08  0.233E-04   12.17     110.8  T
     SCC iter.                  ...        0 min,  0.001 sec
     gradient                   ...        0 min,  0.002 sec
 * total energy  :   -17.7296072 Eh     change       -0.8373945E-03 Eh
   gradient norm :     0.0131061 Eh/α   predicted    -0.6567764E-03 ( -21.57%)
   displ. norm   :     0.0767065 α      lambda       -0.3081909E-03
   maximum displ.:     0.0439088 α      in ANC's #3, #2, #6, ...

........................................................................
.............................. CYCLE    3 ..............................
........................................................................

 iter      E             dE          RMSdq      gap      omega  full diag
   1    -17.9454010 -0.179454E+02  0.440E-02   12.42       0.0  T
   2    -17.9454060 -0.498949E-05  0.263E-02   12.42       1.0  T
   3    -17.9454064 -0.348057E-06  0.116E-02   12.42       2.2  T
   4    -17.9454066 -0.185429E-06  0.258E-03   12.42      10.0  T
   5    -17.9454066 -0.159167E-07  0.133E-03   12.42      19.4  T
   6    -17.9454066 -0.315654E-08  0.633E-04   12.42      40.8  T
   7    -17.9454066 -0.722800E-09  0.180E-04   12.42     143.3  T
     SCC iter.                  ...        0 min,  0.001 sec
     gradient                   ...        0 min,  0.002 sec
 * total energy  :   -17.7297891 Eh     change       -0.1819224E-03 Eh
   gradient norm :     0.0035327 Eh/α   predicted    -0.1550036E-03 ( -14.80%)
   displ. norm   :     0.0558191 α      lambda       -0.5473172E-04
   maximum displ.:     0.0390673 α      in ANC's #3, #2, #1, ...

........................................................................
.............................. CYCLE    4 ..............................
........................................................................

 iter      E             dE          RMSdq      gap      omega  full diag
   1    -17.9451063 -0.179451E+02  0.219E-02   12.49       0.0  T
   2    -17.9451068 -0.491345E-06  0.131E-02   12.49       2.0  T
   3    -17.9451068 -0.115517E-07  0.415E-03   12.49       6.2  T
   4    -17.9451068 -0.452048E-07  0.769E-04   12.49      33.6  T
   5    -17.9451068 -0.137056E-08  0.333E-04   12.49      77.5  T
     SCC iter.                  ...        0 min,  0.001 sec
     gradient                   ...        0 min,  0.002 sec
 * total energy  :   -17.7298282 Eh     change       -0.3910640E-04 Eh
   gradient norm :     0.0014657 Eh/α   predicted    -0.2745144E-04 ( -29.80%)
   displ. norm   :     0.1173468 α      lambda       -0.3879809E-04
   maximum displ.:     0.0849398 α      in ANC's #3, #2, #1, ...

........................................................................
.............................. CYCLE    5 ..............................
........................................................................

 iter      E             dE          RMSdq      gap      omega  full diag
   1    -17.9438339 -0.179438E+02  0.375E-02   12.54       0.0  T
   2    -17.9438344 -0.439154E-06  0.224E-02   12.54       1.2  T
   3    -17.9438343  0.118708E-07  0.377E-03   12.54       6.9  T
   4    -17.9438344 -0.748649E-07  0.843E-04   12.54      30.6  T
   5    -17.9438344 -0.121064E-08  0.330E-04   12.54      78.2  T
     SCC iter.                  ...        0 min,  0.001 sec
     gradient                   ...        0 min,  0.002 sec
 * total energy  :   -17.7298568 Eh     change       -0.2857552E-04 Eh
   gradient norm :     0.0034438 Eh/α   predicted    -0.1951920E-04 ( -31.69%)
   displ. norm   :     0.0270770 α      lambda       -0.1452878E-04
   maximum displ.:     0.0191619 α      in ANC's #3, #2, #5, ...

........................................................................
.............................. CYCLE    6 ..............................
........................................................................

 iter      E             dE          RMSdq      gap      omega  full diag
   1    -17.9439773 -0.179440E+02  0.892E-03   12.53       0.0  T
   2    -17.9439774 -0.426025E-07  0.535E-03   12.53       4.8  T
   3    -17.9439774  0.914035E-09  0.126E-03   12.53      20.5  T
   4    -17.9439774 -0.718089E-08  0.250E-04   12.53     103.3  T
   5    -17.9439774 -0.992948E-10  0.108E-04   12.53     239.2  T
     SCC iter.                  ...        0 min,  0.001 sec
     gradient                   ...        0 min,  0.002 sec
 * total energy  :   -17.7298693 Eh     change       -0.1251949E-04 Eh
   gradient norm :     0.0024858 Eh/α   predicted    -0.7270787E-05 ( -41.92%)
   displ. norm   :     0.0796997 α      lambda       -0.3004243E-04
   maximum displ.:     0.0548560 α      in ANC's #3, #2, #5, ...

........................................................................
.............................. CYCLE    7 ..............................
........................................................................

 iter      E             dE          RMSdq      gap      omega  full diag
   1    -17.9443774 -0.179444E+02  0.249E-02   12.49       0.0  T
   2    -17.9443776 -0.191619E-06  0.149E-02   12.49       1.7  T
   3    -17.9443776  0.859912E-08  0.254E-03   12.49      10.2  T
   4    -17.9443776 -0.377701E-07  0.547E-04   12.49      47.2  T
   5    -17.9443776 -0.401634E-09  0.231E-04   12.49     112.0  T
     SCC iter.                  ...        0 min,  0.001 sec
     gradient                   ...        0 min,  0.002 sec
 * total energy  :   -17.7298875 Eh     change       -0.1819085E-04 Eh
   gradient norm :     0.0008880 Eh/α   predicted    -0.1511468E-04 ( -16.91%)
   displ. norm   :     0.0524674 α      lambda       -0.4083905E-05
   maximum displ.:     0.0374938 α      in ANC's #3, #2, #4, ...

........................................................................
.............................. CYCLE    8 ..............................
........................................................................

 iter      E             dE          RMSdq      gap      omega  full diag
   1    -17.9445809 -0.179446E+02  0.146E-02   12.48       0.0  T
   2    -17.9445809 -0.240794E-07  0.874E-03   12.48       3.0  T
   3    -17.9445809 -0.186505E-08  0.572E-04   12.48      45.1  T
   4    -17.9445809 -0.145153E-08  0.196E-04   12.48     131.8  T
     SCC iter.                  ...        0 min,  0.001 sec
     gradient                   ...        0 min,  0.002 sec
 * total energy  :   -17.7298908 Eh     change       -0.3375931E-05 Eh
   gradient norm :     0.0005891 Eh/α   predicted    -0.2043869E-05 ( -39.46%)
   displ. norm   :     0.0121553 α      lambda       -0.9337795E-06
   maximum displ.:     0.0077135 α      in ANC's #3, #1, #2, ...

........................................................................
.............................. CYCLE    9 ..............................
........................................................................

 iter      E             dE          RMSdq      gap      omega  full diag
   1    -17.9446590 -0.179447E+02  0.451E-03   12.49       0.0  T
   2    -17.9446590 -0.145652E-07  0.273E-03   12.49       9.5  T
   3    -17.9446590 -0.408388E-09  0.581E-04   12.49      44.4  T
   4    -17.9446590 -0.118164E-08  0.149E-04   12.49     173.5  T
     SCC iter.                  ...        0 min,  0.001 sec
     gradient                   ...        0 min,  0.002 sec
 * total energy  :   -17.7298917 Eh     change       -0.8651318E-06 Eh
   gradient norm :     0.0001721 Eh/α   predicted    -0.4681569E-06 ( -45.89%)
   displ. norm   :     0.0120726 α      lambda       -0.3533700E-06
   maximum displ.:     0.0079294 α      in ANC's #1, #3, #2, ...

........................................................................
.............................. CYCLE   10 ..............................
........................................................................

 iter      E             dE          RMSdq      gap      omega  full diag
   1    -17.9445846 -0.179446E+02  0.411E-03   12.49       0.0  T
   2    -17.9445846 -0.179291E-08  0.248E-03   12.49      10.4  T
   3    -17.9445846 -0.636987E-09  0.224E-04   12.49     115.5  T
   4    -17.9445846 -0.245727E-09  0.122E-04   12.49     211.7  T
     SCC iter.                  ...        0 min,  0.001 sec
     gradient                   ...        0 min,  0.002 sec
 * total energy  :   -17.7298921 Eh     change       -0.3649895E-06 Eh
   gradient norm :     0.0001656 Eh/α   predicted    -0.1773640E-06 ( -51.41%)
   displ. norm   :     0.0070326 α      lambda       -0.1960063E-06
   maximum displ.:     0.0066150 α      in ANC's #1, #3, #5, ...

........................................................................
.............................. CYCLE   11 ..............................
........................................................................

 iter      E             dE          RMSdq      gap      omega  full diag
   1    -17.9445965 -0.179446E+02  0.268E-03   12.49       0.0  T
   2    -17.9445965 -0.680952E-09  0.161E-03   12.49      16.0  T
   3    -17.9445965 -0.218058E-09  0.125E-04   12.49     206.9  T
   4    -17.9445965 -0.662510E-10  0.700E-05   12.49     369.0  T
     SCC iter.                  ...        0 min,  0.001 sec
     gradient                   ...        0 min,  0.002 sec
 * total energy  :   -17.7298923 Eh     change       -0.2390234E-06 Eh
   gradient norm :     0.0000997 Eh/α   predicted    -0.9641832E-07 ( -59.66%)
   displ. norm   :     0.0054703 α      lambda       -0.1178912E-06
   maximum displ.:     0.0051997 α      in ANC's #1, #2, #7, ...

........................................................................
.............................. CYCLE   12 ..............................
........................................................................

 iter      E             dE          RMSdq      gap      omega  full diag
   1    -17.9446011 -0.179446E+02  0.196E-03   12.49       0.0  T
   2    -17.9446011 -0.497383E-09  0.118E-03   12.49      21.8  T
   3    -17.9446011 -0.587157E-10  0.108E-04   12.49     239.2  T
   4    -17.9446011 -0.763123E-10  0.466E-05   12.49     554.2  T
     SCC iter.                  ...        0 min,  0.001 sec
     gradient                   ...        0 min,  0.002 sec
 * total energy  :   -17.7298925 Eh     change       -0.1395127E-06 Eh
   gradient norm :     0.0000282 Eh/α   predicted    -0.5813795E-07 ( -58.33%)
   displ. norm   :     0.0037812 α      lambda       -0.5185775E-07
   maximum displ.:     0.0036788 α      in ANC's #1, #2, #7, ...

........................................................................
.............................. CYCLE   13 ..............................
........................................................................

 iter      E             dE          RMSdq      gap      omega  full diag
   1    -17.9445990 -0.179446E+02  0.148E-03   12.49       0.0  T
   2    -17.9445990 -0.152472E-09  0.890E-04   12.49      29.0  T
   3    -17.9445990 -0.552269E-10  0.567E-05   12.49     455.2  T
     SCC iter.                  ...        0 min,  0.001 sec
     gradient                   ...        0 min,  0.002 sec
 * total energy  :   -17.7298925 Eh     change       -0.6188022E-07 Eh
   gradient norm :     0.0000257 Eh/α   predicted    -0.2505174E-07 ( -59.52%)
   displ. norm   :     0.0024975 α      lambda       -0.2399926E-07
   maximum displ.:     0.0024358 α      in ANC's #1, #3, #7, ...

   *** GEOMETRY OPTIMIZATION CONVERGED AFTER 13 ITERATIONS ***

------------------------------------------------------------------------
 total energy gain   :        -0.0011228 Eh       -0.7045 kcal/mol
 total RMSD          :         0.1184208 a0        0.0627 Å
 total power (kW/mol):        -0.2267534 (step)  -45.8928 (real)
------------------------------------------------------------------------

 ANCopt (total)                0 d,  0 h,  0 min,  0.064 sec
 optimizer setup                ...        0 min,  0.000 sec (  0.613%)
 model hessian                  ...        0 min,  0.005 sec (  7.655%)
 ANC generation                 ...        0 min,  0.000 sec (  0.311%)
 coordinate transformation      ...        0 min,  0.000 sec (  0.069%)
 single point calculation       ...        0 min,  0.052 sec ( 81.297%)
 optimization log               ...        0 min,  0.005 sec (  7.840%)
 hessian update                 ...        0 min,  0.000 sec (  0.075%)
 rational function              ...        0 min,  0.001 sec (  1.482%)

================
 final structure:
================
$coord
       -2.55646634657803       -1.67506467459961        0.74008129618807      C
       -1.11587671973760        0.15607307498232       -0.96182245679615      C
       -1.34160095484182        2.86251424350630        0.02208725493673      C
        1.66391220197107       -0.65693196016634       -1.19677397229748      C
        2.98078363420189       -0.72727144361139        1.12052025717001      O
       -4.49800365679375       -1.05327211423045        0.98908083262635      H
       -1.65192930455919       -1.77999758184050        2.58297089823797      H
       -2.56852334119258       -3.55989360321131       -0.07779454864599      H
       -1.91429038426851        0.07763276527806       -2.86941277205485      H
       -3.29906614093420        3.47922977332671       -0.06204642439771      H
       -0.20988759134418        4.14776540445732       -1.11554782240470      H
       -0.72795783168614        2.97851990631522        1.98036045601963      H
        1.75964094338921       -2.58566045488631       -1.92972347107431      H
        2.64266869386055        0.59466857338318       -2.53444101468608      H
        3.06360991189806        0.96833488491289        1.79596388645203      H
$end
 
 Bond Distances (Angstroems)
 ---------------------------
C1-C2=1.5268         C1-H6=1.0868         C1-H7=1.0878         C1-H8=1.0873         C2-C1=1.5268         C2-C3=1.5286         
C2-C4=1.5377         C2-H9=1.0951         C3-C2=1.5286         C3-H10=1.0870        C3-H11=1.0880        C3-H12=1.0877        
C4-C2=1.5377         C4-O5=1.4109         C4-H13=1.0930        C4-H14=1.0991        O5-C4=1.4109         O5-H15=0.9668        
H6-C1=1.0868         H7-C1=1.0878         H8-C1=1.0873         H9-C2=1.0951         H10-C3=1.0870        H11-C3=1.0880        
H12-C3=1.0877        H13-C4=1.0930        H14-C4=1.0991        H15-O5=0.9668        
 C  H  Rav=1.0902 sigma=0.0042  Rmin=1.0868  Rmax=1.0991     9
 C  C  Rav=1.5310 sigma=0.0048  Rmin=1.5268  Rmax=1.5377     3
 O  H  Rav=0.9668 sigma=0.0000  Rmin=0.9668  Rmax=0.9668     1
 O  C  Rav=1.4109 sigma=0.0000  Rmin=1.4109  Rmax=1.4109     1
 
 selected bond angles (degree)
 --------------------
H6-C1-C2=110.57                H7-C1-C2=109.97                H7-C1-H6=108.83                H8-C1-C2=110.51                
H8-C1-H6=108.69                H8-C1-H7=108.22                C3-C2-C1=110.77                C4-C2-C1=110.35                
C4-C2-C3=111.37                H9-C2-C1=109.09                H9-C2-C3=108.62                H9-C2-C4=106.50                
H10-C3-C2=109.99               H11-C3-C2=110.75               H11-C3-H10=108.31              H12-C3-C2=110.74               
H12-C3-H10=107.85              H12-C3-H11=109.12              O5-C4-C2=114.18                H13-C4-C2=109.53               
H13-C4-O5=105.12               H14-C4-C2=109.53               H14-C4-O5=110.05               H14-C4-H13=108.20              
H15-O5-C4=108.62               
 
 selected dihedral angles (degree)
 ---------------------------------
C3-C2-C1-H6= 53.27            C3-C2-C1-H7=293.07            C3-C2-C1-H8=173.66            C4-C2-C1-H6=177.09            
C4-C2-C1-H7= 56.88            C4-C2-C1-H8=297.47            H9-C2-C1-H6=293.75            H9-C2-C1-H7=173.55            
H9-C2-C1-H8= 54.14            H10-C3-C2-C1=295.79           H10-C3-C2-C4=172.57           H10-C3-C2-H9= 55.59           
H11-C3-C2-C1=176.10           H11-C3-C2-C4= 52.88           H11-C3-C2-H9=295.90           H12-C3-C2-C1= 54.91           
H12-C3-C2-C4=291.69           H12-C3-C2-H9=174.71           O5-C4-C2-C1=299.81            O5-C4-C2-C3= 63.28            
O5-C4-C2-H9=181.54            H13-C4-C2-C1= 57.37           H13-C4-C2-C3=180.84           H13-C4-C2-H9=299.10           
H14-C4-C2-C1=175.89           H14-C4-C2-C3=299.35           H14-C4-C2-H9= 57.62           H15-O5-C4-C2=295.85           
H15-O5-C4-H13=175.79          H15-O5-C4-H14= 59.49          
           -------------------------------------------------
          |                Final Singlepoint                |
           -------------------------------------------------

          ...................................................
          :                      SETUP                      :
          :.................................................:
          :  # basis functions                  30          :
          :  # atomic orbitals                  30          :
          :  # shells                           20          :
          :  # electrons                        32          :
          :  max. iterations                   250          :
          :  Hamiltonian                  GFN2-xTB          :
          :  restarted?                      false          :
          :  GBSA solvation                   true          :
          :  PC potential                    false          :
          :  electronic temp.          300.0000000     K    :
          :  accuracy                    1.0000000          :
          :  -> integral cutoff          0.2500000E+02      :
          :  -> integral neglect         0.1000000E-07      :
          :  -> SCF convergence          0.1000000E-05 Eh   :
          :  -> wf. convergence          0.1000000E-03 e    :
          :  Broyden damping             0.4000000          :
          :  net charge                          0          :
          :  unpaired electrons                  0          :
          ...................................................

 iter      E             dE          RMSdq      gap      omega  full diag
   1    -17.9445990 -0.179446E+02  0.334E-05   12.49       0.0  T
   2    -17.9445990 -0.126832E-11  0.219E-05   12.49    1178.7  T
   3    -17.9445990 -0.710543E-12  0.704E-06   12.49    3665.6  T

   *** convergence criteria satisfied after 3 iterations ***

         #    Occupation            Energy/Eh            Energy/eV
      -------------------------------------------------------------
         1        2.0000           -0.6860325             -18.6679
       ...           ...                  ...                  ...
        10        2.0000           -0.4831435             -13.1470
        11        2.0000           -0.4637497             -12.6193
        12        2.0000           -0.4562119             -12.4142
        13        2.0000           -0.4436356             -12.0719
        14        2.0000           -0.4320860             -11.7577
        15        2.0000           -0.4289995             -11.6737
        16        2.0000           -0.4054428             -11.0327 (HOMO)
        17                          0.0535907               1.4583 (LUMO)
        18                          0.0865187               2.3543
        19                          0.1036935               2.8216
        20                          0.1119205               3.0455
        21                          0.1368463               3.7238
       ...                                ...                  ...
        30                          0.2954119               8.0386
      -------------------------------------------------------------
                  HL-Gap            0.4590335 Eh           12.4909 eV
             Fermi-level           -0.1759261 Eh           -4.7872 eV

 SCC (total)                   0 d,  0 h,  0 min,  0.004 sec
 SCC setup                      ...        0 min,  0.001 sec ( 14.937%)
 Dispersion                     ...        0 min,  0.000 sec (  0.688%)
 classical contributions        ...        0 min,  0.000 sec (  0.245%)
 integral evaluation            ...        0 min,  0.001 sec ( 19.459%)
 iterations                     ...        0 min,  0.001 sec ( 15.327%)
 molecular gradient             ...        0 min,  0.002 sec ( 47.130%)
 printout                       ...        0 min,  0.000 sec (  1.929%)

         :::::::::::::::::::::::::::::::::::::::::::::::::::::
         ::                     SUMMARY                     ::
         :::::::::::::::::::::::::::::::::::::::::::::::::::::
         :: total energy             -17.729892514979 Eh    ::
         :: total w/o Gsasa/hb       -17.727205732174 Eh    ::
         :: gradient norm              0.000025806228 Eh/a0 ::
         :: HOMO-LUMO gap             12.490937686493 eV    ::
         ::.................................................::
         :: SCC energy               -17.944585450671 Eh    ::
         :: -> isotropic ES            0.034407588509 Eh    ::
         :: -> anisotropic ES          0.003545194509 Eh    ::
         :: -> anisotropic XC          0.006062390669 Eh    ::
         :: -> dispersion             -0.007602791290 Eh    ::
         :: -> Gsolv                  -0.007052627469 Eh    ::
         ::    -> Gelec               -0.004365844665 Eh    ::
         ::    -> Gsasa                0.000581312342 Eh    ::
         ::    -> Ghb                 -0.004348854845 Eh    ::
         ::    -> Gshift               0.001080759698 Eh    ::
         :: repulsion energy           0.214692935692 Eh    ::
         :: add. restraining           0.000000000000 Eh    ::
         :: total charge              -0.000000000000 e     ::
         :::::::::::::::::::::::::::::::::::::::::::::::::::::

           ------------------------------------------------- 
          |                Numerical Hessian                |
           ------------------------------------------------- 
step length          :   0.00500
SCC accuracy         :   0.30000
Hessian scale factor :   1.00000
frozen atoms in %    :   0.00000    0
RMS gradient         :   0.00003
estimated CPU  time      0.01 min
estimated wall time      0.01 min

writing file <hessian>.

 projected vibrational frequencies (cm⁻¹)
eigval :       -0.00    -0.00    -0.00    -0.00     0.00     0.00
eigval :      112.64   189.27   226.42   259.75   321.38   375.15
eigval :      381.71   591.04   833.07   912.30   952.99   973.10
eigval :      993.40  1031.12  1096.30  1142.65  1192.48  1202.17
eigval :     1291.47  1318.01  1329.71  1342.55  1402.81  1415.59
eigval :     1473.77  1490.59  1491.13  1502.79  1507.08  2869.35
eigval :     2931.19  2969.76  3024.39  3027.20  3031.96  3033.97
eigval :     3041.43  3044.06  3500.79
           -------------------------------------------------
          |                Property Printout                |
           -------------------------------------------------

    * Orbital Energies and Occupations

         #    Occupation            Energy/Eh            Energy/eV
      -------------------------------------------------------------
         1        2.0000           -0.6860325             -18.6679
       ...           ...                  ...                  ...
         4        2.0000           -0.5877581             -15.9937
         5        2.0000           -0.5668868             -15.4258
         6        2.0000           -0.5442398             -14.8095
         7        2.0000           -0.5302123             -14.4278
         8        2.0000           -0.5141617             -13.9911
         9        2.0000           -0.4908034             -13.3554
        10        2.0000           -0.4831435             -13.1470
        11        2.0000           -0.4637497             -12.6193
        12        2.0000           -0.4562119             -12.4142
        13        2.0000           -0.4436356             -12.0719
        14        2.0000           -0.4320860             -11.7577
        15        2.0000           -0.4289994             -11.6737
        16        2.0000           -0.4054428             -11.0327 (HOMO)
        17                          0.0535907               1.4583 (LUMO)
        18                          0.0865187               2.3543
        19                          0.1036935               2.8216
        20                          0.1119205               3.0455
        21                          0.1368463               3.7238
        22                          0.1576518               4.2899
        23                          0.1902263               5.1763
        24                          0.1961864               5.3385
        25                          0.2150747               5.8525
        26                          0.2358858               6.4188
        27                          0.2592197               7.0537
       ...                                ...                  ...
        30                          0.2954119               8.0386
      -------------------------------------------------------------
                  HL-Gap            0.4590335 Eh           12.4909 eV
             Fermi-level           -0.1759261 Eh           -4.7872 eV

     #   Z          covCN         q      C6AA      α(0)
     1   6 C        3.756    -0.114    22.739     6.799
     2   6 C        3.848    -0.025    20.980     6.515
     3   6 C        3.755    -0.117    22.787     6.807
     4   6 C        3.677     0.077    19.509     6.328
     5   8 O        1.655    -0.508    23.059     6.482
     6   1 H        0.925     0.042     2.420     2.433
     7   1 H        0.925     0.047     2.362     2.404
     8   1 H        0.925     0.036     2.505     2.475
     9   1 H        0.924     0.032     2.552     2.498
    10   1 H        0.925     0.044     2.398     2.422
    11   1 H        0.925     0.039     2.456     2.451
    12   1 H        0.925     0.044     2.393     2.419
    13   1 H        0.924     0.040     2.453     2.449
    14   1 H        0.923     0.017     2.774     2.604
    15   1 H        0.805     0.344     0.602     1.219

 Mol. C6AA /au·bohr⁶  :       1459.056595
 Mol. C8AA /au·bohr⁸  :      29889.088789
 Mol. α(0) /au        :         56.304456


Wiberg/Mayer (AO) data.
largest (>0.10) Wiberg bond orders for each atom

 ---------------------------------------------------------------------------
     #   Z sym  total        # sym  WBO       # sym  WBO       # sym  WBO
 ---------------------------------------------------------------------------
     1   6 C    3.995 --     2 C    1.010     8 H    0.987     6 H    0.986
                             7 H    0.985
     2   6 C    3.996 --     1 C    1.010     3 C    1.009     4 C    0.983
                             9 H    0.968
     3   6 C    3.996 --     2 C    1.009    11 H    0.986    10 H    0.986
                            12 H    0.984
     4   6 C    3.953 --     5 O    0.997     2 C    0.983    13 H    0.973
                            14 H    0.971
     5   8 O    1.922 --     4 C    0.997    15 H    0.865
     6   1 H    0.998 --     1 C    0.986
     7   1 H    0.998 --     1 C    0.985
     8   1 H    0.999 --     1 C    0.987
     9   1 H    0.999 --     2 C    0.968
    10   1 H    0.998 --     3 C    0.986
    11   1 H    0.998 --     3 C    0.986
    12   1 H    0.998 --     3 C    0.984
    13   1 H    0.998 --     4 C    0.973
    14   1 H    1.000 --     4 C    0.971
    15   1 H    0.882 --     5 O    0.865
 ---------------------------------------------------------------------------

Topologies differ in total number of bonds
Writing topology from bond orders to xtbtopo.mol

molecular dipole:
                 x           y           z       tot (Debye)
 q only:       -0.345       0.609      -0.120
   full:       -0.371       0.759      -0.195       2.204
molecular quadrupole (traceless):
                xx          xy          yy          xz          yz          zz
 q only:       -1.438       2.810       0.520      -0.391       1.794       0.917
  q+dip:       -1.754       3.631       0.827      -0.949       2.296       0.927
   full:       -1.883       3.642       0.844      -0.726       2.372       1.040

           -------------------------------------------------
          |                Geometry Summary                 |
           -------------------------------------------------

      molecular mass/u    :       74.1217560
   center of mass at/Å    :       -0.0000579      -0.0006866      -0.0006776
  moments of inertia/u·Å² :        0.8038281E+02   0.1271845E+03   0.1589881E+03
rotational constants/cm⁻¹ :        0.2097169E+00   0.1325448E+00   0.1060308E+00

 * 14 selected distances

     #   Z          #   Z                                           value/Å
     1   6 C        2   6 C                                       1.5268245
     2   6 C        3   6 C                                       1.5285671
     2   6 C        4   6 C                                       1.5376589 (max)
     4   6 C        5   8 O                                       1.4109250
     1   6 C        6   1 H                                       1.0868371
     1   6 C        7   1 H                                       1.0877702
     1   6 C        8   1 H                                       1.0872817
     2   6 C        9   1 H                                       1.0950924
     3   6 C       10   1 H                                       1.0869521
     3   6 C       11   1 H                                       1.0879528
     3   6 C       12   1 H                                       1.0876941
     4   6 C       13   1 H                                       1.0930262
     4   6 C       14   1 H                                       1.0990874
     5   8 O       15   1 H                                       0.9668410 (min)

 * 4 distinct bonds (by element types)

   Z      Z             #   av. dist./Å        max./Å        min./Å
   1 H    6 C           9     1.0901882     1.0990874     1.0868371
   6 C    6 C           3     1.5310168     1.5376589     1.5268245
   1 H    8 O           1     0.9668410     0.9668410     0.9668410
   6 C    8 O           1     1.4109250     1.4109250     1.4109250

           -------------------------------------------------
          |               Frequency Printout                |
           -------------------------------------------------
 projected vibrational frequencies (cm⁻¹)
eigval :       -0.00    -0.00    -0.00    -0.00     0.00     0.00
eigval :      112.64   189.27   226.42   259.75   321.38   375.15
eigval :      381.71   591.04   833.07   912.30   952.99   973.10
eigval :      993.40  1031.12  1096.30  1142.65  1192.48  1202.17
eigval :     1291.47  1318.01  1329.71  1342.55  1402.81  1415.59
eigval :     1473.77  1490.59  1491.13  1502.79  1507.08  2869.35
eigval :     2931.19  2969.76  3024.39  3027.20  3031.96  3033.97
eigval :     3041.43  3044.06  3500.79
 reduced masses (amu)
   1: 11.85   2: 10.25   3:  9.06   4: 12.19   5: 10.57   6: 10.34   7:  9.12   8:  2.37
   9:  2.21  10:  9.97  11:  4.07  12:  7.55  13:  5.36  14:  8.95  15:  9.46  16:  4.03
  17:  2.77  18:  7.35  19:  4.79  20:  8.45  21:  4.14  22:  6.97  23:  6.77  24:  5.11
  25:  3.63  26:  5.04  27:  4.82  28:  3.26  29:  3.38  30:  3.13  31:  1.79  32:  1.59
  33:  1.55  34:  1.58  35:  1.55  36:  1.75  37:  1.75  38:  1.67  39:  1.87  40:  1.87
  41:  1.94  42:  1.94  43:  1.29  44:  1.37  45:  1.87
 IR intensities (km·mol⁻¹)
   1:  0.49   2:  0.52   3:  1.59   4:  0.64   5:  0.14   6:  0.10   7:  3.82   8:  0.19
   9: 10.49  10:  0.76  11:133.55  12:  1.81  13: 91.45  14: 13.34  15:  6.26  16: 17.74
  17:  4.39  18: 25.35  19:  4.85  20: 84.66  21: 70.68  22:  6.07  23:  6.21  24: 30.07
  25: 27.50  26: 19.74  27: 17.46  28: 51.69  29:  2.68  30:  1.38  31:  3.83  32:  0.06
  33:  0.23  34:  2.02  35:  2.08  36:126.63  37: 84.14  38: 73.28  39: 68.92  40: 41.63
  41: 86.68  42: 58.57  43: 41.81  44: 52.08  45: 65.80
 Raman intensities (Ä⁴*amu⁻¹)
   1:  0.00   2:  0.00   3:  0.00   4:  0.00   5:  0.00   6:  0.00   7:  0.00   8:  0.00
   9:  0.00  10:  0.00  11:  0.00  12:  0.00  13:  0.00  14:  0.00  15:  0.00  16:  0.00
  17:  0.00  18:  0.00  19:  0.00  20:  0.00  21:  0.00  22:  0.00  23:  0.00  24:  0.00
  25:  0.00  26:  0.00  27:  0.00  28:  0.00  29:  0.00  30:  0.00  31:  0.00  32:  0.00
  33:  0.00  34:  0.00  35:  0.00  36:  0.00  37:  0.00  38:  0.00  39:  0.00  40:  0.00
  41:  0.00  42:  0.00  43:  0.00  44:  0.00  45:  0.00
 output can be read by thermo (or use thermo option).
 writing <g98.out> molden fake output.
 recommended (thermochemical) frequency scaling factor: 1.0
           -------------------------------------------------
          |             Thermodynamic Functions             |
           -------------------------------------------------

Molecule has no symmetry elements
It seems to be the C1 point group
c1  symmetry found (for desy threshold:  0.10E+00) used in thermo

          ...................................................
          :                      SETUP                      :
          :.................................................:
          :  # frequencies                          39      :
          :  # imaginary freq.                       0      :
          :  linear?                             false      :
          :  only rotor calc.                    false      :
          :  symmetry                               c1      :
          :  rotational number                       1      :
          :  scaling factor                  1.0000000      :
          :  rotor cutoff                    0.0000000 cm⁻¹ :
          :  imag. cutoff                 -100.0000000 cm⁻¹ :
          :.................................................:

    mode    ω/cm⁻¹     T·S(HO)/kcal·mol⁻¹    T·S(FR)/kcal·mol⁻¹   T·S(vib)
   ------------------------------------------------------------------------
       1    112.64    -0.96089 (100.00%)    -0.81558 (  0.00%)    -0.96089
       2    189.27    -0.66636 (100.00%)    -0.66199 (  0.00%)    -0.66636
       3    226.42    -0.56862 (100.00%)    -0.60894 (  0.00%)    -0.56862
       4    259.75    -0.49595 (100.00%)    -0.56827 (  0.00%)    -0.49595
   ------------------------------------------------------------------------

   temp. (K)  partition function   enthalpy   heat capacity  entropy
                                   cal/mol     cal/K/mol   cal/K/mol   J/K/mol
 298.15  VIB   17.6                 2472.747     17.794     13.994
         ROT  0.974E+05              888.752      2.981     25.808
         INT  0.172E+07             3361.499     20.774     39.802
         TR   0.617E+27             1481.254      4.968     38.808
         TOT                        4842.7529    25.7426    78.6096   328.9027

       T/K    H(0)-H(T)+PV         H(T)/Eh          T*S/Eh         G(T)/Eh
   ------------------------------------------------------------------------
    298.15    0.771742E-02    0.141734E+00    0.373500E-01    0.104384E+00
   ------------------------------------------------------------------------

         :::::::::::::::::::::::::::::::::::::::::::::::::::::
         ::                  THERMODYNAMIC                  ::
         :::::::::::::::::::::::::::::::::::::::::::::::::::::
         :: total free energy         -17.625508368404 Eh   ::
         ::.................................................::
         :: total energy              -17.729892515023 Eh   ::
         :: zero point energy           0.134016705532 Eh   ::
         :: G(RRHO) w/o ZPVE           -0.029632558913 Eh   ::
         :: G(RRHO) contrib.            0.104384146619 Eh   ::
         :::::::::::::::::::::::::::::::::::::::::::::::::::::

optimized geometry written to: xtbopt.coord


           -------------------------------------------------
          | TOTAL ENERGY              -17.729892515023 Eh   |
          | TOTAL ENTHALPY            -17.588158391501 Eh   |
          | TOTAL FREE ENERGY         -17.625508368404 Eh   |
          | GRADIENT NORM               0.000025811232 Eh/α |
          | HOMO-LUMO GAP              12.490936798344 eV   |
           -------------------------------------------------

------------------------------------------------------------------------
 * finished run on 2025/04/04 at 19:14:45.328     
------------------------------------------------------------------------
 total:
 * wall-time:     0 d,  0 h,  0 min,  0.533 sec
 *  cpu-time:     0 d,  0 h,  0 min,  0.444 sec
 * ratio c/w:     0.832 speedup
 SCF:
 * wall-time:     0 d,  0 h,  0 min,  0.008 sec
 *  cpu-time:     0 d,  0 h,  0 min,  0.007 sec
 * ratio c/w:     0.909 speedup
 ANC optimizer:
 * wall-time:     0 d,  0 h,  0 min,  0.079 sec
 *  cpu-time:     0 d,  0 h,  0 min,  0.065 sec
 * ratio c/w:     0.814 speedup
 analytical hessian:
 * wall-time:     0 d,  0 h,  0 min,  0.372 sec
 *  cpu-time:     0 d,  0 h,  0 min,  0.363 sec
 * ratio c/w:     0.974 speedup

