 Entering Gaussian System
 *********************************************
 Gaussian 98:
 frequency output generated by the xtb code
 *********************************************
                         Standard orientation:
 --------------------------------------------------------------------
  Center     Atomic     Atomic              Coordinates (Angstroms)
  Number     Number      Type              X           Y           Z
 --------------------------------------------------------------------
    1          6             0        1.194614   -1.312696    0.014402
    2          6             0        0.489371   -0.021266   -0.415397
    3          6             0        0.961804    1.151274    0.438415
    4          6             0       -0.996976   -0.238535   -0.377780
    5          6             0       -1.882844    0.433449    0.333211
    6          1             0        0.889158   -2.145963   -0.614096
    7          1             0        0.943827   -1.549250    1.046251
    8          1             0        2.273115   -1.198637   -0.062646
    9          1             0        0.761141    0.178975   -1.460370
   10          1             0        2.037969    1.271580    0.338471
   11          1             0        0.482756    2.074682    0.122781
   12          1             0        0.732970    0.975875    1.486922
   13          1             0       -1.332961   -1.052654   -1.009399
   14          1             0       -2.931885    0.192041    0.294440
   15          1             0       -1.612668    1.250184    0.979360
 --------------------------------------------------------------------
     1 basis functions        1 primitive gaussians
     1 alpha electrons        1 beta electrons
 
 Harmonic frequencies (cm**-1), IR intensities (km*mol⁻¹),
 Raman scattering activities (A**4/amu), Raman depolarization ratios,
 reduced masses (AMU), force constants (mDyne/A) and normal coordinates:
                      1                      2                      3
                        a                      a                      a 
 Frequencies --    82.6692               211.2677               263.0097
 Red. masses --     7.3593                 1.2911                 1.6278
 Frc consts  --     0.0000                 0.0000                 0.0000
 IR Inten    --     0.1008                 0.0149                 0.0697
 Raman Activ --     0.0000                 0.0000                 0.0000
 Depolar     --     0.0000                 0.0000                 0.0000
 Atom AN      X      Y      Z        X      Y      Z        X      Y      Z
   1   6    -0.25  -0.01   0.26    -0.05  -0.03  -0.00     0.04  -0.00   0.07
   2   6     0.06   0.05  -0.09    -0.00  -0.01  -0.03    -0.02  -0.03   0.07
   3   6     0.05   0.09  -0.14    -0.01   0.03  -0.08     0.10  -0.04   0.02
   4   6     0.03   0.23  -0.36     0.01  -0.05   0.07    -0.04   0.03  -0.02
   5   6     0.12  -0.34   0.29     0.06   0.05   0.03    -0.11   0.04  -0.12
   6   1    -0.07  -0.01   0.09     0.39   0.10  -0.35    -0.05  -0.03   0.09
   7   1    -0.16   0.05   0.07    -0.45  -0.30  -0.17     0.10   0.05   0.05
   8   1    -0.06  -0.06   0.15     0.00   0.16   0.52     0.01  -0.01  -0.08
   9   1     0.09  -0.04  -0.02    -0.00  -0.01  -0.01    -0.02  -0.01   0.02
  10   1     0.01   0.04  -0.06    -0.02   0.09  -0.13    -0.05   0.30  -0.44
  11   1    -0.01   0.02  -0.04    -0.10  -0.02   0.05    -0.36  -0.09   0.36
  12   1     0.04   0.03  -0.04     0.11  -0.04  -0.00     0.52  -0.24   0.08
  13   1    -0.02   0.24  -0.31    -0.00  -0.06   0.08    -0.00   0.04  -0.05
  14   1     0.03  -0.06   0.03     0.02   0.00   0.06    -0.04   0.04  -0.10
  15   1     0.06  -0.28   0.30     0.03   0.05  -0.04    -0.04  -0.03   0.02
                      4                      5                      6
                        a                      a                      a 
 Frequencies --   283.9237               344.1949               379.4485
 Red. masses --     8.1901                 6.6571                 7.0527
 Frc consts  --     0.0000                 0.0000                 0.0000
 IR Inten    --     0.4355                 0.1507                 1.2532
 Raman Activ --     0.0000                 0.0000                 0.0000
 Depolar     --     0.0000                 0.0000                 0.0000
 Atom AN      X      Y      Z        X      Y      Z        X      Y      Z
   1   6    -0.24   0.03  -0.04     0.39   0.12   0.07     0.07  -0.39  -0.18
   2   6     0.03   0.22   0.08    -0.17  -0.16   0.11     0.14  -0.12   0.36
   3   6     0.51   0.11  -0.03     0.22  -0.19  -0.08    -0.12   0.34  -0.10
   4   6     0.05  -0.01   0.15    -0.26   0.14  -0.04     0.10   0.11   0.13
   5   6    -0.37  -0.29  -0.12    -0.31   0.05   0.01    -0.11   0.03  -0.03
   6   1    -0.11   0.05  -0.05     0.30  -0.00  -0.02    -0.06   0.01  -0.17
   7   1    -0.11  -0.01  -0.03     0.13  -0.04   0.00     0.07  -0.27  -0.07
   8   1    -0.06  -0.07   0.01     0.09   0.24   0.06     0.02  -0.16  -0.10
   9   1    -0.02   0.05   0.01    -0.09  -0.06   0.02     0.02  -0.04   0.09
  10   1     0.16  -0.10  -0.05     0.08  -0.21  -0.01    -0.05   0.19  -0.03
  11   1     0.24   0.08  -0.01     0.19  -0.00  -0.08    -0.12  -0.01  -0.21
  12   1     0.16   0.09   0.00     0.02   0.04  -0.02    -0.04   0.27  -0.00
  13   1     0.12  -0.09   0.10    -0.11   0.19  -0.19     0.03   0.14  -0.10
  14   1    -0.07  -0.25  -0.06    -0.11   0.13  -0.16    -0.04   0.07  -0.20
  15   1    -0.24   0.01  -0.09    -0.07  -0.14   0.19    -0.09  -0.10   0.15
                      7                      8                      9
                        a                      a                      a 
 Frequencies --   521.1761               654.9169               831.8111
 Red. masses --     7.7350                 6.2644                 8.0772
 Frc consts  --     0.0000                 0.0000                 0.0000
 IR Inten    --     1.5017                 0.5451                 6.2885
 Raman Activ --     0.0000                 0.0000                 0.0000
 Depolar     --     0.0000                 0.0000                 0.0000
 Atom AN      X      Y      Z        X      Y      Z        X      Y      Z
   1   6    -0.12   0.10  -0.04     0.14  -0.19   0.05    -0.22   0.26  -0.01
   2   6    -0.26   0.08   0.31    -0.06  -0.07   0.18    -0.23  -0.07   0.31
   3   6     0.13   0.20   0.10     0.04   0.09   0.07    -0.17  -0.32  -0.13
   4   6    -0.17  -0.46  -0.18    -0.22   0.28  -0.47     0.34   0.20   0.01
   5   6     0.26  -0.03  -0.12    -0.04  -0.07   0.12     0.26  -0.05  -0.02
   6   1    -0.06   0.08  -0.07     0.07  -0.03  -0.03    -0.00   0.11  -0.09
   7   1     0.02  -0.06  -0.02     0.15  -0.16   0.02     0.10  -0.08  -0.00
   8   1    -0.04   0.04  -0.06     0.02   0.06  -0.08    -0.09   0.25  -0.13
   9   1    -0.07   0.07   0.09     0.14  -0.04   0.08    -0.02  -0.04   0.09
  10   1     0.04  -0.09  -0.11     0.01   0.02  -0.07    -0.05  -0.18  -0.19
  11   1     0.13   0.09  -0.02     0.01   0.01  -0.03    -0.01  -0.10  -0.13
  12   1     0.14   0.19   0.07     0.08   0.11   0.05     0.06   0.07   0.01
  13   1    -0.02  -0.06  -0.14    -0.02  -0.15   0.14     0.12   0.02   0.04
  14   1     0.01   0.27   0.04     0.02  -0.22   0.40     0.12  -0.18  -0.18
  15   1     0.35  -0.12  -0.01     0.01   0.24  -0.31    -0.15   0.06  -0.02
                     10                     11                     12
                        a                      a                      a 
 Frequencies --   897.2899               943.2610               957.3417
 Red. masses --     3.7560                 2.7634                 5.9126
 Frc consts  --     0.0000                 0.0000                 0.0000
 IR Inten    --    13.2870                 3.2325                 2.3664
 Raman Activ --     0.0000                 0.0000                 0.0000
 Depolar     --     0.0000                 0.0000                 0.0000
 Atom AN      X      Y      Z        X      Y      Z        X      Y      Z
   1   6     0.01   0.02  -0.02    -0.04   0.04  -0.24    -0.04   0.35   0.04
   2   6     0.03  -0.01  -0.01     0.08  -0.13   0.01     0.32  -0.01   0.18
   3   6     0.02   0.02   0.00     0.07  -0.16   0.21     0.10  -0.30  -0.14
   4   6    -0.04   0.11  -0.14    -0.03   0.01  -0.02    -0.10  -0.01  -0.00
   5   6     0.04  -0.30   0.35    -0.03   0.01   0.01    -0.23  -0.05  -0.01
   6   1    -0.02  -0.00   0.01     0.11  -0.23   0.20    -0.20   0.29  -0.16
   7   1    -0.04   0.04  -0.01    -0.18   0.39  -0.01    -0.01  -0.09  -0.03
   8   1     0.01  -0.04   0.02     0.00   0.04   0.14     0.00  -0.09  -0.05
   9   1    -0.03   0.01  -0.01    -0.02   0.32   0.06     0.12  -0.07   0.04
  10   1     0.00   0.03   0.02    -0.01   0.13  -0.10     0.01   0.18   0.11
  11   1    -0.00   0.01   0.01    -0.14  -0.26  -0.35    -0.18  -0.23  -0.18
  12   1    -0.01  -0.02  -0.01     0.09   0.40   0.14    -0.12  -0.06  -0.07
  13   1     0.02  -0.16   0.18    -0.01  -0.01   0.01     0.09  -0.03  -0.03
  14   1    -0.10   0.49  -0.55    -0.01  -0.01   0.04    -0.12   0.20   0.23
  15   1    -0.03   0.23  -0.28    -0.01   0.01  -0.00     0.22  -0.04  -0.08
                     13                     14                     15
                        a                      a                      a 
 Frequencies --   984.7967              1026.0066              1036.8223
 Red. masses --     3.8313                 1.8454                 5.0257
 Frc consts  --     0.0000                 0.0000                 0.0000
 IR Inten    --     0.6433                10.8319                10.4957
 Raman Activ --     0.0000                 0.0000                 0.0000
 Depolar     --     0.0000                 0.0000                 0.0000
 Atom AN      X      Y      Z        X      Y      Z        X      Y      Z
   1   6    -0.34  -0.03  -0.05    -0.01  -0.04  -0.01     0.00  -0.24  -0.03
   2   6    -0.04  -0.14  -0.06    -0.04   0.02   0.03    -0.09   0.21   0.06
   3   6     0.29   0.15   0.07     0.02   0.00  -0.02    -0.15  -0.07  -0.12
   4   6     0.02  -0.01   0.01     0.08  -0.10   0.19     0.24   0.26   0.11
   5   6     0.03  -0.02  -0.03     0.00  -0.11   0.07    -0.20  -0.14  -0.12
   6   1     0.24  -0.17   0.04     0.03  -0.04   0.03     0.15  -0.20   0.11
   7   1     0.19  -0.04   0.04    -0.00   0.02   0.00     0.03   0.06   0.03
   8   1    -0.15   0.49  -0.15    -0.01   0.04   0.01    -0.01   0.09   0.03
   9   1    -0.01  -0.21  -0.05    -0.12  -0.01  -0.02    -0.14   0.10  -0.01
  10   1     0.06   0.35   0.29     0.00   0.04   0.03    -0.03  -0.13  -0.07
  11   1    -0.14  -0.08  -0.00    -0.02  -0.00   0.01     0.05   0.05   0.04
  12   1    -0.15  -0.08  -0.05    -0.03  -0.04  -0.02     0.01  -0.07  -0.03
  13   1     0.05  -0.05   0.04    -0.00   0.46  -0.56     0.41  -0.08   0.03
  14   1    -0.00   0.04  -0.02    -0.00  -0.03   0.11    -0.12   0.27   0.22
  15   1     0.04  -0.05   0.04    -0.01   0.37  -0.48     0.38  -0.15  -0.05
                     16                     17                     18
                        a                      a                      a 
 Frequencies --  1105.0463              1151.6138              1194.3434
 Red. masses --     4.6860                 7.5867                 6.2559
 Frc consts  --     0.0000                 0.0000                 0.0000
 IR Inten    --     4.1834                 6.3788                 3.2547
 Raman Activ --     0.0000                 0.0000                 0.0000
 Depolar     --     0.0000                 0.0000                 0.0000
 Atom AN      X      Y      Z        X      Y      Z        X      Y      Z
   1   6    -0.18  -0.01   0.09    -0.05   0.25  -0.26     0.11   0.05   0.20
   2   6     0.26   0.02  -0.33     0.14  -0.55   0.12    -0.25  -0.12  -0.40
   3   6    -0.19  -0.01   0.15    -0.11   0.24   0.08     0.07   0.01   0.33
   4   6     0.03  -0.09   0.15     0.10   0.14   0.02     0.15   0.17   0.06
   5   6    -0.16  -0.02   0.04    -0.09  -0.06  -0.05    -0.01  -0.09  -0.08
   6   1     0.09   0.01  -0.06    -0.05   0.00   0.04    -0.13   0.19  -0.12
   7   1     0.18  -0.15   0.04    -0.18   0.25  -0.06     0.02  -0.20  -0.01
   8   1    -0.08   0.23  -0.14    -0.00  -0.01   0.06     0.03  -0.14  -0.06
   9   1     0.51  -0.00   0.03    -0.01  -0.37  -0.03    -0.35  -0.20  -0.21
  10   1    -0.04  -0.20  -0.23    -0.00  -0.14  -0.02    -0.01   0.11  -0.04
  11   1     0.12   0.05  -0.05     0.14   0.20   0.18    -0.03  -0.10  -0.15
  12   1     0.19   0.21   0.12     0.09  -0.03   0.03     0.07   0.30   0.14
  13   1    -0.09   0.07  -0.03    -0.01   0.03   0.03     0.05   0.02   0.04
  14   1    -0.08   0.16   0.01    -0.04   0.03   0.12    -0.01   0.02   0.02
  15   1     0.04   0.02  -0.04     0.11  -0.03  -0.05     0.14  -0.05  -0.05
                     19                     20                     21
                        a                      a                      a 
 Frequencies --  1281.1889              1310.3986              1332.9112
 Red. masses --     3.4603                 4.4306                 5.3254
 Frc consts  --     0.0000                 0.0000                 0.0000
 IR Inten    --     5.6374                 1.0209                 9.8132
 Raman Activ --     0.0000                 0.0000                 0.0000
 Depolar     --     0.0000                 0.0000                 0.0000
 Atom AN      X      Y      Z        X      Y      Z        X      Y      Z
   1   6    -0.11  -0.01   0.16    -0.11   0.03   0.07    -0.08  -0.07  -0.07
   2   6     0.28  -0.24   0.01     0.33  -0.15  -0.06     0.37   0.41   0.16
   3   6    -0.04   0.06  -0.09    -0.09   0.03   0.04    -0.09  -0.08   0.10
   4   6     0.08   0.09  -0.01    -0.21  -0.13  -0.13    -0.06  -0.05  -0.08
   5   6    -0.02  -0.11  -0.10     0.01   0.20   0.17     0.03  -0.04  -0.04
   6   1    -0.00   0.09  -0.08     0.04   0.03  -0.05     0.10  -0.09   0.03
   7   1     0.08  -0.09   0.04     0.06  -0.06   0.02     0.07   0.04   0.02
   8   1    -0.05   0.14  -0.10    -0.03   0.06  -0.07    -0.02   0.06   0.05
   9   1    -0.40   0.57  -0.00    -0.34   0.09  -0.10    -0.38  -0.46  -0.19
  10   1     0.00  -0.03   0.03    -0.01  -0.07  -0.05    -0.03  -0.14  -0.16
  11   1     0.05   0.07   0.07     0.07   0.05   0.01    -0.01  -0.08  -0.14
  12   1     0.01  -0.07  -0.03     0.08   0.03   0.03     0.02  -0.01   0.03
  13   1    -0.41   0.08   0.14     0.61  -0.16  -0.22    -0.31   0.03   0.09
  14   1    -0.01   0.01   0.06     0.01  -0.03  -0.00    -0.00   0.01   0.03
  15   1     0.08  -0.03  -0.05    -0.21   0.08   0.10    -0.04  -0.01   0.01
                     22                     23                     24
                        a                      a                      a 
 Frequencies --  1399.5537              1409.3330              1416.3690
 Red. masses --     3.3577                 2.7479                 2.6503
 Frc consts  --     0.0000                 0.0000                 0.0000
 IR Inten    --     1.8068                 4.5854                 4.7582
 Raman Activ --     0.0000                 0.0000                 0.0000
 Depolar     --     0.0000                 0.0000                 0.0000
 Atom AN      X      Y      Z        X      Y      Z        X      Y      Z
   1   6     0.13  -0.26   0.06    -0.12   0.19  -0.07    -0.09   0.17  -0.06
   2   6     0.05   0.10   0.03     0.10   0.02   0.02    -0.04   0.01   0.02
   3   6    -0.11  -0.27  -0.16    -0.10  -0.14  -0.10    -0.04  -0.19  -0.14
   4   6    -0.05  -0.01  -0.00    -0.19   0.07   0.09     0.17  -0.05  -0.08
   5   6     0.00   0.01   0.01    -0.04   0.04   0.04     0.05  -0.06  -0.06
   6   1    -0.21   0.20  -0.18     0.18  -0.17   0.15     0.14  -0.15   0.13
   7   1    -0.19   0.31   0.03     0.19  -0.22  -0.01     0.16  -0.20  -0.02
   8   1    -0.04   0.34  -0.09     0.03  -0.25   0.10     0.03  -0.24   0.10
   9   1    -0.03  -0.11  -0.03    -0.01  -0.01  -0.01    -0.04  -0.02  -0.01
  10   1    -0.03   0.29   0.21    -0.02   0.18   0.16    -0.01   0.20   0.16
  11   1     0.20   0.17   0.24     0.15   0.10   0.08     0.10   0.13   0.27
  12   1     0.15   0.33   0.08     0.15   0.13   0.05     0.06   0.31   0.06
  13   1    -0.01  -0.01   0.00     0.01   0.01   0.01    -0.07   0.01   0.01
  14   1     0.02  -0.06  -0.06     0.11  -0.36  -0.32    -0.10   0.33   0.30
  15   1     0.05  -0.01  -0.01     0.44  -0.06  -0.12    -0.40   0.05   0.10
                     25                     26                     27
                        a                      a                      a 
 Frequencies --  1493.6105              1496.4927              1503.2669
 Red. masses --     1.5541                 1.6039                 1.5403
 Frc consts  --     0.0000                 0.0000                 0.0000
 IR Inten    --     0.5313                 0.1465                 1.2858
 Raman Activ --     0.0000                 0.0000                 0.0000
 Depolar     --     0.0000                 0.0000                 0.0000
 Atom AN      X      Y      Z        X      Y      Z        X      Y      Z
   1   6     0.07  -0.01  -0.17    -0.16  -0.10  -0.05    -0.00   0.05   0.10
   2   6     0.01  -0.03  -0.02    -0.02  -0.05  -0.02     0.01  -0.01   0.05
   3   6    -0.02  -0.05   0.10     0.10  -0.03   0.03     0.03  -0.12   0.13
   4   6     0.00  -0.01  -0.01    -0.01   0.02   0.01    -0.00   0.00  -0.00
   5   6    -0.00   0.01   0.00    -0.00   0.00   0.00    -0.00  -0.00  -0.00
   6   1    -0.49  -0.02   0.26     0.11   0.21  -0.35     0.25  -0.07  -0.02
   7   1     0.17  -0.25  -0.03     0.48   0.35   0.20    -0.25   0.02  -0.05
   8   1     0.00   0.31   0.45     0.03  -0.16   0.35    -0.01  -0.13  -0.37
   9   1    -0.01   0.04   0.00     0.01   0.01   0.01     0.01   0.00   0.02
  10   1    -0.05   0.26  -0.23    -0.01   0.01  -0.23    -0.08   0.37  -0.46
  11   1     0.27   0.10  -0.12    -0.05   0.03   0.19     0.34   0.17  -0.00
  12   1    -0.12  -0.13  -0.04    -0.31   0.13  -0.04    -0.39  -0.07  -0.09
  13   1     0.02  -0.01  -0.00     0.03  -0.00  -0.00    -0.02   0.00   0.01
  14   1    -0.00   0.01   0.01     0.01  -0.03  -0.02     0.00  -0.00  -0.00
  15   1    -0.02  -0.00   0.01     0.05  -0.01  -0.01     0.01  -0.01   0.01
                     28                     29                     30
                        a                      a                      a 
 Frequencies --  1509.9676              1718.6790              2890.9027
 Red. masses --     1.6002                11.2370                 1.7408
 Frc consts  --     0.0000                 0.0000                 0.0000
 IR Inten    --     2.0824                20.6538                89.3897
 Raman Activ --     0.0000                 0.0000                 0.0000
 Depolar     --     0.0000                 0.0000                 0.0000
 Atom AN      X      Y      Z        X      Y      Z        X      Y      Z
   1   6     0.07   0.04  -0.02    -0.01   0.00   0.00     0.00  -0.00  -0.00
   2   6     0.10   0.01  -0.01    -0.08   0.01   0.03    -0.06  -0.05   0.25
   3   6     0.17  -0.03  -0.06     0.01  -0.00  -0.00     0.00   0.00  -0.00
   4   6    -0.05   0.00   0.01     0.55  -0.30  -0.35    -0.01  -0.00   0.01
   5   6    -0.02   0.02   0.02    -0.44   0.32   0.34    -0.00  -0.00  -0.00
   6   1    -0.16  -0.10   0.21     0.01  -0.00  -0.00     0.01   0.01   0.01
   7   1    -0.16  -0.21  -0.09     0.01  -0.00   0.00    -0.00  -0.01   0.03
   8   1    -0.02   0.16  -0.05    -0.00  -0.01   0.00    -0.01  -0.00  -0.00
   9   1    -0.03  -0.01  -0.02    -0.06  -0.00  -0.01     0.24   0.18  -0.92
  10   1     0.02  -0.26  -0.18     0.00   0.02   0.01    -0.02  -0.00   0.00
  11   1    -0.34  -0.03   0.46    -0.00  -0.00  -0.00     0.01  -0.01   0.00
  12   1    -0.40   0.39  -0.03    -0.00   0.00  -0.00    -0.00  -0.00   0.03
  13   1     0.01  -0.00  -0.00    -0.11  -0.05  -0.03     0.01   0.02   0.01
  14   1     0.02  -0.07  -0.06    -0.08  -0.10  -0.07     0.01   0.00   0.00
  15   1     0.10  -0.01  -0.03     0.15   0.06   0.03    -0.00  -0.00  -0.00
                     31                     32                     33
                        a                      a                      a 
 Frequencies --  3025.6680              3026.8034              3028.7394
 Red. masses --     1.9456                 1.9423                 1.9397
 Frc consts  --     0.0000                 0.0000                 0.0000
 IR Inten    --    43.3208                 6.8604               119.2758
 Raman Activ --     0.0000                 0.0000                 0.0000
 Depolar     --     0.0000                 0.0000                 0.0000
 Atom AN      X      Y      Z        X      Y      Z        X      Y      Z
   1   6    -0.01  -0.08  -0.26    -0.18  -0.08   0.09     0.16   0.10  -0.01
   2   6     0.00  -0.00  -0.01     0.00  -0.00   0.00     0.01   0.00  -0.01
   3   6     0.08  -0.05   0.04     0.17  -0.02  -0.07     0.17   0.02  -0.14
   4   6     0.01   0.03   0.02     0.02   0.05   0.04    -0.00  -0.01  -0.00
   5   6    -0.00  -0.00  -0.00    -0.00  -0.00  -0.00     0.00   0.00   0.00
   6   1     0.18   0.44   0.32     0.03   0.14   0.14    -0.09  -0.27  -0.22
   7   1    -0.17  -0.15   0.63     0.08   0.08  -0.42    -0.03  -0.03   0.21
   8   1     0.03  -0.01  -0.04     0.51   0.06  -0.03    -0.45  -0.04   0.04
   9   1    -0.01  -0.00   0.02     0.00  -0.00  -0.01    -0.01  -0.01   0.02
  10   1    -0.23  -0.03   0.03    -0.50  -0.05   0.05    -0.51  -0.05   0.03
  11   1    -0.10   0.19  -0.07    -0.07   0.17  -0.07    -0.01   0.06  -0.04
  12   1     0.04   0.01  -0.10    -0.04  -0.05   0.26    -0.09  -0.09   0.49
  13   1    -0.04  -0.09  -0.07    -0.08  -0.19  -0.15     0.01   0.02   0.02
  14   1     0.01   0.00   0.00     0.02   0.00   0.00    -0.01  -0.00  -0.00
  15   1    -0.00   0.00   0.00    -0.00   0.00   0.00    -0.00  -0.00  -0.00
                     34                     35                     36
                        a                      a                      a 
 Frequencies --  3031.1604              3033.1646              3038.1480
 Red. masses --     1.7997                 1.9180                 1.2725
 Frc consts  --     0.0000                 0.0000                 0.0000
 IR Inten    --    98.4299                97.8540                74.5624
 Raman Activ --     0.0000                 0.0000                 0.0000
 Depolar     --     0.0000                 0.0000                 0.0000
 Atom AN      X      Y      Z        X      Y      Z        X      Y      Z
   1   6     0.06   0.01   0.00    -0.05  -0.07  -0.07     0.08  -0.11   0.02
   2   6     0.00   0.01   0.01    -0.00   0.00  -0.02     0.00  -0.01  -0.00
   3   6    -0.06   0.04  -0.02    -0.09   0.15  -0.19     0.01  -0.07   0.00
   4   6     0.07   0.19   0.15    -0.01  -0.03  -0.03    -0.01  -0.02  -0.02
   5   6    -0.01  -0.01  -0.01     0.00   0.00   0.00     0.00   0.00   0.00
   6   1     0.01  -0.01  -0.01     0.10   0.27   0.21     0.17   0.39   0.32
   7   1     0.01   0.01  -0.01    -0.03  -0.03   0.07     0.12   0.08  -0.44
   8   1    -0.23  -0.03   0.02     0.12   0.01  -0.02    -0.58  -0.09   0.05
   9   1     0.00   0.00  -0.01    -0.01  -0.01   0.03     0.00  -0.00   0.00
  10   1     0.16   0.02  -0.02     0.20   0.04  -0.05     0.12   0.00  -0.01
  11   1     0.09  -0.17   0.06     0.26  -0.49   0.16    -0.14   0.26  -0.10
  12   1    -0.02  -0.00   0.04    -0.15  -0.09   0.58    -0.02  -0.03   0.10
  13   1    -0.27  -0.67  -0.52     0.05   0.12   0.09     0.03   0.08   0.06
  14   1     0.09   0.02   0.00    -0.02  -0.00  -0.00    -0.02  -0.00  -0.00
  15   1    -0.00   0.02   0.02     0.00  -0.00  -0.00    -0.00  -0.00  -0.00
                     37                     38                     39
                        a                      a                      a 
 Frequencies --  3041.3784              3102.3222              3127.1052
 Red. masses --     1.2551                 1.6451                 1.9717
 Frc consts  --     0.0000                 0.0000                 0.0000
 IR Inten    --    23.9613                67.3658                74.8424
 Raman Activ --     0.0000                 0.0000                 0.0000
 Depolar     --     0.0000                 0.0000                 0.0000
 Atom AN      X      Y      Z        X      Y      Z        X      Y      Z
   1   6    -0.03   0.04  -0.01     0.00   0.00   0.00    -0.00  -0.00  -0.00
   2   6    -0.00  -0.00  -0.00    -0.00  -0.00   0.00     0.00  -0.00  -0.00
   3   6    -0.04  -0.12  -0.05    -0.00   0.00   0.00     0.00  -0.00  -0.00
   4   6     0.01   0.02   0.01     0.00   0.03   0.02    -0.02  -0.01  -0.01
   5   6     0.00   0.00   0.00     0.23  -0.01  -0.05    -0.14  -0.21  -0.16
   6   1    -0.05  -0.13  -0.10    -0.00  -0.00  -0.00     0.00   0.00   0.00
   7   1    -0.04  -0.03   0.16    -0.00  -0.00   0.00    -0.00  -0.00   0.00
   8   1     0.21   0.03  -0.02     0.00   0.00  -0.00     0.00   0.00  -0.00
   9   1     0.00   0.00  -0.01     0.00   0.00  -0.01    -0.00  -0.00   0.00
  10   1     0.53   0.04  -0.06     0.00   0.00   0.00    -0.00   0.00   0.00
  11   1    -0.28   0.50  -0.19     0.00  -0.01   0.00    -0.00   0.01  -0.00
  12   1    -0.11  -0.10   0.44    -0.00   0.00  -0.01    -0.00  -0.00   0.01
  13   1    -0.02  -0.06  -0.04    -0.03  -0.06  -0.05     0.02   0.04   0.03
  14   1     0.00   0.00   0.00    -0.89  -0.22  -0.04     0.28   0.04  -0.01
  15   1    -0.00  -0.00  -0.00     0.11   0.24   0.18     0.23   0.69   0.55
