
                                 *****************
                                 * O   R   C   A *
                                 *****************

                                            #,                                       
                                            ###                                      
                                            ####                                     
                                            #####                                    
                                            ######                                   
                                           ########,                                 
                                     ,,################,,,,,                         
                               ,,#################################,,                 
                          ,,##########################################,,             
                       ,#########################################, ''#####,          
                    ,#############################################,,   '####,        
                  ,##################################################,,,,####,       
                ,###########''''           ''''###############################       
              ,#####''   ,,,,##########,,,,          '''####'''          '####       
            ,##' ,,,,###########################,,,                        '##       
           ' ,,###''''                  '''############,,,                           
         ,,##''                                '''############,,,,        ,,,,,,###''
      ,#''                                            '''#######################'''  
     '                                                          ''''####''''         
             ,#######,   #######,   ,#######,      ##                                
            ,#'     '#,  ##    ##  ,#'     '#,    #''#        ,####,   ,####,        
            ##       ##  ##   ,#'  ##            #'  '#       #'       #'  '#        
            ##       ##  #######   ##           ,######,      #####,   #    #        
            '#,     ,#'  ##    ##  '#,     ,#' ,#      #,     #,   #   #,  ,#        
             '#######'   ##     ##  '#######'  #'      '#     '####' # '####'        



                #########################################################
                #                        -***-                          #
                #          Department of theory and spectroscopy        #
                #                                                       #
                #                      Frank Neese                      #
                #                                                       #
                #     Directorship, Architecture, Infrastructure        #
                #                    SHARK, DRIVERS                     #
                #        Core code/Algorithms in most modules           #
                #                                                       #
                #        Max Planck Institute fuer Kohlenforschung      #
                #                Kaiser Wilhelm Platz 1                 #
                #                 D-45470 Muelheim/Ruhr                 #
                #                      Germany                          #
                #                                                       #
                #                  All rights reserved                  #
                #                        -***-                          #
                #########################################################


                         Program Version 6.0.0  -   RELEASE  -


 With contributions from (in alphabetic order):
   Daniel Aravena         : Magnetic Suceptibility
   Michael Atanasov       : Ab Initio Ligand Field Theory (pilot matlab implementation)
   Alexander A. Auer      : GIAO ZORA, VPT2 properties, NMR spectrum
   Ute Becker             : All parallelization in ORCA, NUMFREQ, NUMCALC
   Giovanni Bistoni       : ED, misc. LED, open-shell LED, HFLD
   Martin Brehm           : Molecular dynamics
   Dmytro Bykov           : pre 5.0 version of the SCF Hessian
   Marcos Casanova-Páez   : Triplet and SCS-CIS(D). UHF-(DLPNO)-IP/EA/STEOM-CCSD. UHF-CVS-IP/STEOM-CCSD
   Vijay G. Chilkuri      : MRCI spin determinant printing, contributions to CSF-ICE
   Pauline Colinet        : FMM embedding
   Dipayan Datta          : RHF DLPNO-CCSD density
   Achintya Kumar Dutta   : EOM-CC, STEOM-CC
   Nicolas Foglia         : Exact transition moments, OPA infrastructure, MCD improvements
   Dmitry Ganyushin       : Spin-Orbit,Spin-Spin,Magnetic field MRCI
   Miquel Garcia          : C-PCM and meta-GGA Hessian, CCSD/C-PCM, Gaussian charge scheme
   Tiago L. C. Gouveia    : GS-ROHF, GS-ROCIS
   Yang Guo               : DLPNO-NEVPT2, F12-NEVPT2, CIM, IAO-localization
   Andreas Hansen         : Spin unrestricted coupled pair/coupled cluster methods
   Ingolf Harden          : AUTO-CI MPn and infrastructure 
   Benjamin Helmich-Paris : MC-RPA, TRAH-(SCF,CASSCF), AVAS, COSX integrals, SCF dyn. polar.
   Lee Huntington         : MR-EOM, pCC
   Robert Izsak           : Overlap fitted RIJCOSX, COSX-SCS-MP3, EOM
   Riya Kayal             : Wick's Theorem for AUTO-CI, AUTO-CI UHF-CCSDT
   Emily Kempfer          : AUTO-CI, RHF CISDT and CCSDT
   Christian Kollmar      : KDIIS, OOCD, Brueckner-CCSD(T), CCSD density, CASPT2, CASPT2-K, improved NEVPT2
   Axel Koslowski         : Symmetry handling
   Simone Kossmann        : Meta GGA functionals, TD-DFT gradient, OOMP2, (MP2 Hessian; deprecated post 5.0)
   Lucas Lang             : DCDCAS
   Marvin Lechner         : AUTO-CI (C++ implementation), FIC-MRCC
   Spencer Leger          : CASSCF response
   Dagmar Lenk            : GEPOL surface, SMD, ORCA-2-JSON
   Dimitrios Liakos       : Extrapolation schemes; Compound Job, initial MDCI parallelization
   Dimitrios Manganas     : Further ROCIS development; embedding schemes. LFT, Crystal Embedding
   Dimitrios Pantazis     : SARC Basis sets
   Anastasios Papadopoulos: AUTO-CI, single reference methods and gradients
   Taras Petrenko         : pre 6.0 DFT Hessian and TD-DFT gradient, (ASA, deprecated), ECA, 1-Electron XAS/XES, NRVS
   Peter Pinski           : DLPNO-MP2, DLPNO-MP2 Gradient
   Christoph Reimann      : Effective Core Potentials
   Marius Retegan         : Local ZFS, SOC
   Christoph Riplinger    : Optimizer, TS searches, QM/MM, DLPNO-CCSD(T), (RO)-DLPNO pert. Triples
   Michael Roemelt        : Original ROCIS implementation
   Masaaki Saitow         : Open-shell DLPNO-CCSD energy and density
   Barbara Sandhoefer     : DKH picture change effects
   Kantharuban Sivalingam : CASSCF convergence/infrastructure, NEVPT2 and variants, FIC-MRCI
   Bernardo de Souza      : ESD, SOC TD-DFT
   Georgi Stoychev        : AutoAux, RI-MP2 NMR, DLPNO-MP2 response, X2C
   Van Anh Tran           : RI-MP2 g-tensors
   Willem Van den Heuvel  : Paramagnetic NMR
   Zikuan Wang            : NOTCH, Electric field optimization 
   Frank Wennmohs         : Technical directorship and infrastructure
   Hang Xu                : AUTO-CI-Response properties 


 We gratefully acknowledge several colleagues who have allowed us to
 interface, adapt or use parts of their codes:
   Stefan Grimme, W. Hujo, H. Kruse, P. Pracht,  : VdW corrections, initial TS optimization,
                  C. Bannwarth, S. Ehlert,         DFT functionals, gCP, sTDA/sTD-DF
                  L. Wittmann, M. Mueller
   Ed Valeev, F. Pavosevic, A. Kumar             : LibInt (2-el integral package), F12 methods
   Garnet Chan, S. Sharma, J. Yang, R. Olivares  : DMRG
   Ulf Ekstrom                                   : XCFun DFT Library
   Mihaly Kallay                                 : mrcc  (arbitrary order and MRCC methods)
   Frank Weinhold                                : gennbo (NPA and NBO analysis)
   Simon Mueller                                 : openCOSMO-RS
   Christopher J. Cramer and Donald G. Truhlar   : smd solvation model
   Lars Goerigk                                  : TD-DFT with DH, B97 family of functionals
   V. Asgeirsson, H. Jonsson                     : NEB implementation
   FAccTs GmbH                                   : IRC, NEB, NEB-TS, DLPNO-Multilevel, CI-OPT
                                                   MM, QMMM, 2- and 3-layer-ONIOM, Crystal-QMMM,
                                                   LR-CPCM, SF, NACMEs, symmetry and pop. for TD-DFT,
                                                   nearIR, NL-DFT gradient (VV10), updates on ESD,
                                                   ML-optimized integration grids, MBIS, APM,
                                                   GOAT, DOCKER, SOLVATOR, interface openCOSMO-RS
   S Lehtola, MJT Oliveira, MAL Marques          : LibXC Library
   Liviu Ungur et al                             : ANISO software


 Your calculation uses the libint2 library for the computation of 2-el integrals
 For citations please refer to: http://libint.valeyev.net

 Your ORCA version has been built with support for libXC version: 6.2.2
 For citations please refer to: https://libxc.gitlab.io

 This ORCA versions uses:
   CBLAS   interface :  Fast vector & matrix operations
   LAPACKE interface :  Fast linear algebra routines
   SCALAPACK package :  Parallel linear algebra routines
   Shared memory     :  Shared parallel matrices
   BLAS/LAPACK       :  OpenBLAS 0.3.27  USE64BITINT DYNAMIC_ARCH NO_AFFINITY SkylakeX SINGLE_THREADED
        Core in use  :  SkylakeX
   Copyright (c) 2011-2014, The OpenBLAS Project


Your calculation utilizes the geometrical counterpoise correction gCP
Please cite in your paper:
H.Kruse, S. Grimme J.Chem.Phys., 136, (2012), 154101 
   

Your calculation utilizes the atom-pairwise dispersion correction
based on EEQ partial charges (D4)


================================================================================

----- Orbital basis set information -----
Your calculation utilizes the basis: def2-mTZVPP
   Stefan Grimme, Andreas Hansen, Sebastian Ehlert, and Jan-Michael Mewes 
   J. Chem. Phys. 154, 064103 (2021). DOI: 10.1063/5.0040021

----- AuxJ basis set information -----
Your calculation utilizes the auxiliary basis: def2/J
   F. Weigend, Phys. Chem. Chem. Phys. 8, 1057 (2006).

================================================================================
                                        WARNINGS
                       Please study these warnings very carefully!
================================================================================

Using LibXC functional ID 497 : Re-regularized SCAN exchange by Furness et al
[ 1]  J. W. Furness, A. D. Kaplan, J. Ning, J. P. Perdew, and J. Sun.,  J. Phys. Chem. Lett. 11, 8208-8215 (2020)
[ 2]  J. W. Furness, A. D. Kaplan, J. Ning, J. P. Perdew, and J. Sun.,  J. Phys. Chem. Lett. 11, 9248-9248 (2020)
Using LibXC functional ID 498 : Re-regularized SCAN correlation by Furness et al
[ 1]  J. W. Furness, A. D. Kaplan, J. Ning, J. P. Perdew, and J. Sun.,  J. Phys. Chem. Lett. 11, 8208-8215 (2020)
[ 2]  J. W. Furness, A. D. Kaplan, J. Ning, J. P. Perdew, and J. Sun.,  J. Phys. Chem. Lett. 11, 9248-9248 (2020)
Using LibXC functional ID 497 : Re-regularized SCAN exchange by Furness et al
[ 1]  J. W. Furness, A. D. Kaplan, J. Ning, J. P. Perdew, and J. Sun.,  J. Phys. Chem. Lett. 11, 8208-8215 (2020)
[ 2]  J. W. Furness, A. D. Kaplan, J. Ning, J. P. Perdew, and J. Sun.,  J. Phys. Chem. Lett. 11, 9248-9248 (2020)
Using LibXC functional ID 498 : Re-regularized SCAN correlation by Furness et al
[ 1]  J. W. Furness, A. D. Kaplan, J. Ning, J. P. Perdew, and J. Sun.,  J. Phys. Chem. Lett. 11, 8208-8215 (2020)
[ 2]  J. W. Furness, A. D. Kaplan, J. Ning, J. P. Perdew, and J. Sun.,  J. Phys. Chem. Lett. 11, 9248-9248 (2020)

================================================================================
                                       INPUT FILE
================================================================================
NAME = sp_gas.inp
|  1> ! r2scan-3c def2/J RI DEFGRID2 scfconv6 printgap
|  2> %output
|  3>     printlevel normal
|  4> end
|  5> * xyz 0 1
|  6> C -2.4244183653 -1.0808788633 -0.3492495602
|  7> C -1.0764140141 -0.5942055909 0.2014865278
|  8> H -1.1310659407 -0.5815258348 1.3014375846
|  9> C -0.7418863502 0.8239478593 -0.2865856318
| 10> H -0.7225886669 0.8258677639 -1.3884071794
| 11> C 0.6521526292 1.2293005813 0.2085442663
| 12> H 0.6415407668 1.2902447336 1.3084967926
| 13> C 1.673774456 0.1675899697 -0.2064835646
| 14> H 1.7441799576 0.1522160317 -1.3057298047
| 15> C 1.1967678795 -1.2173391489 0.2804116259
| 16> H 1.1908180908 -1.2163066185 1.3848066441
| 17> O -0.0838039937 -1.5064641442 -0.2235026572
| 18> O 2.0635203138 -2.2189805882 -0.118397683
| 19> O 2.914420903 0.5039321058 0.3614979313
| 20> O 0.9468250477 2.4895751645 -0.3419303351
| 21> O -1.7294508672 1.7039105851 0.1828326285
| 22> O -3.5140319201 -0.4958422562 0.3084865836
| 23> H -2.4975316412 -2.1579467297 -0.1845292099
| 24> H -2.4632013472 -0.8864743454 -1.4292714477
| 25> H 1.7955625872 -2.5390142876 -0.9943944176
| 26> H 3.5221964404 -0.2442885757 0.2600767877
| 27> H 1.858242293 2.7226748248 -0.1125481601
| 28> H -1.447893526 2.6109660917 -0.0134331642
| 29> H -3.3942254872 0.4686723355 0.3008937118
| 30> *
| 31> 
| 32>                          ****END OF INPUT****
================================================================================

                       ****************************
                       * Single Point Calculation *
                       ****************************

---------------------------------
CARTESIAN COORDINATES (ANGSTROEM)
---------------------------------
  C     -2.424418   -1.080879   -0.349250
  C     -1.076414   -0.594206    0.201487
  H     -1.131066   -0.581526    1.301438
  C     -0.741886    0.823948   -0.286586
  H     -0.722589    0.825868   -1.388407
  C      0.652153    1.229301    0.208544
  H      0.641541    1.290245    1.308497
  C      1.673774    0.167590   -0.206484
  H      1.744180    0.152216   -1.305730
  C      1.196768   -1.217339    0.280412
  H      1.190818   -1.216307    1.384807
  O     -0.083804   -1.506464   -0.223503
  O      2.063520   -2.218981   -0.118398
  O      2.914421    0.503932    0.361498
  O      0.946825    2.489575   -0.341930
  O     -1.729451    1.703911    0.182833
  O     -3.514032   -0.495842    0.308487
  H     -2.497532   -2.157947   -0.184529
  H     -2.463201   -0.886474   -1.429271
  H      1.795563   -2.539014   -0.994394
  H      3.522196   -0.244289    0.260077
  H      1.858242    2.722675   -0.112548
  H     -1.447894    2.610966   -0.013433
  H     -3.394225    0.468672    0.300894

----------------------------
CARTESIAN COORDINATES (A.U.)
----------------------------
  NO LB      ZA    FRAG     MASS         X           Y           Z
   0 C     6.0000    0    12.011   -4.581487   -2.042565   -0.659986
   1 C     6.0000    0    12.011   -2.034128   -1.122886    0.380754
   2 H     1.0000    0     1.008   -2.137405   -1.098925    2.459361
   3 C     6.0000    0    12.011   -1.401962    1.557036   -0.541568
   4 H     1.0000    0     1.008   -1.365495    1.560664   -2.623709
   5 C     6.0000    0    12.011    1.232390    2.323041    0.394092
   6 H     1.0000    0     1.008    1.212336    2.438209    2.472701
   7 C     6.0000    0    12.011    3.162975    0.316699   -0.390197
   8 H     1.0000    0     1.008    3.296022    0.287647   -2.467472
   9 C     6.0000    0    12.011    2.261564   -2.300438    0.529901
  10 H     1.0000    0     1.008    2.250320   -2.298486    2.616905
  11 O     8.0000    0    15.999   -0.158367   -2.846805   -0.422359
  12 O     8.0000    0    15.999    3.899488   -4.193266   -0.223739
  13 O     8.0000    0    15.999    5.507457    0.952294    0.683132
  14 O     8.0000    0    15.999    1.789240    4.704615   -0.646155
  15 O     8.0000    0    15.999   -3.268189    3.219924    0.345504
  16 O     8.0000    0    15.999   -6.640558   -0.937006    0.582955
  17 H     1.0000    0     1.008   -4.719651   -4.077928   -0.348710
  18 H     1.0000    0     1.008   -4.654776   -1.675194   -2.700932
  19 H     1.0000    0     1.008    3.393122   -4.798042   -1.879133
  20 H     1.0000    0     1.008    6.655987   -0.461639    0.491474
  21 H     1.0000    0     1.008    3.511569    5.145110   -0.212685
  22 H     1.0000    0     1.008   -2.736122    4.934011   -0.025385
  23 H     1.0000    0     1.008   -6.414157    0.885662    0.568607

--------------------------------
INTERNAL COORDINATES (ANGSTROEM)
--------------------------------
 C      0   0   0     0.000000000000     0.00000000     0.00000000
 C      1   0   0     1.535342581820     0.00000000     0.00000000
 H      2   1   0     1.101380922593   108.56151437     0.00000000
 C      2   1   3     1.536646478278   111.69967328   240.39862422
 H      4   2   1     1.101992200231   108.84400102   301.70623324
 C      4   2   1     1.533886932375   109.82889619   183.85435309
 H      6   4   2     1.101690683194   109.15650550   295.27993758
 C      6   4   2     1.530747751983   109.61767738    53.86039194
 H      8   6   4     1.101605913655   108.83725358    65.04638273
 C      8   6   4     1.543577294502   109.30128642   306.36441630
 H     10   8   6     1.104411527615   108.43654897   295.10653846
 O     10   8   6     1.406195999870   110.66226877    56.71482535
 O     10   8   6     1.383327228154   111.41343321   177.60672147
 O      8   6   4     1.405322958844   108.27717625   185.20333955
 O      6   4   2     1.406465835373   107.50984713   175.90061991
 O      4   2   1     1.403556759500   108.61464595    61.72689534
 O      1   2   3     1.400764921502   112.46607662    43.63844691
 H      1   2   3     1.092040994536   108.50031098   285.72303202
 H      1   2   3     1.098063984358   109.12938903   167.43534656
 H     13  10   8     0.970357249175   109.02909707   271.46819378
 H     14   8   6     0.969284034974   109.05766903   168.61819091
 H     15   6   4     0.968314529928   108.67454273   185.58295681
 H     16   4   2     0.969816730017   108.32589200   171.73574723
 H     17   1   2     0.971956599169   108.35515918    51.97341812

---------------------------
INTERNAL COORDINATES (A.U.)
---------------------------
 C      0   0   0     0.000000000000     0.00000000     0.00000000
 C      1   0   0     2.901377001386     0.00000000     0.00000000
 H      2   1   0     2.081308312826   108.56151437     0.00000000
 C      2   1   3     2.903841008601   111.69967328   240.39862422
 H      4   2   1     2.082463460154   108.84400102   301.70623324
 C      4   2   1     2.898626222590   109.82889619   183.85435309
 H      6   4   2     2.081893675530   109.15650550   295.27993758
 C      6   4   2     2.892694031363   109.61767738    53.86039194
 H      8   6   4     2.081733484316   108.83725358    65.04638273
 C      8   6   4     2.916938353148   109.30128642   306.36441630
 H     10   8   6     2.087035326339   108.43654897   295.10653846
 O     10   8   6     2.657325330370   110.66226877    56.71482535
 O     10   8   6     2.614109614808   111.41343321   177.60672147
 O      8   6   4     2.655675521928   108.27717625   185.20333955
 O      6   4   2     2.657835245571   107.50984713   175.90061991
 O      4   2   1     2.652337888869   108.61464595    61.72689534
 O      1   2   3     2.647062079643   112.46607662    43.63844691
 H      1   2   3     2.063658406688   108.50031098   285.72303202
 H      1   2   3     2.075040207959   109.12938903   167.43534656
 H     13  10   8     1.833709453006   109.02909707   271.46819378
 H     14   8   6     1.831681372083   109.05766903   168.61819091
 H     15   6   4     1.829849273061   108.67454273   185.58295681
 H     16   4   2     1.832688019827   108.32589200   171.73574723
 H     17   1   2     1.836731786487   108.35515918    51.97341812

---------------------
BASIS SET INFORMATION
---------------------
There are 3 groups of distinct atoms

 Group   1 Type C   : 11s6p1d contracted to 5s3p1d pattern {62111/411/1}
 Group   2 Type H   : 4s1p contracted to 2s1p pattern {31/1}
 Group   3 Type O   : 11s6p2d contracted to 5s3p2d pattern {62111/411/11}

Atom   0C    basis set group =>   1
Atom   1C    basis set group =>   1
Atom   2H    basis set group =>   2
Atom   3C    basis set group =>   1
Atom   4H    basis set group =>   2
Atom   5C    basis set group =>   1
Atom   6H    basis set group =>   2
Atom   7C    basis set group =>   1
Atom   8H    basis set group =>   2
Atom   9C    basis set group =>   1
Atom  10H    basis set group =>   2
Atom  11O    basis set group =>   3
Atom  12O    basis set group =>   3
Atom  13O    basis set group =>   3
Atom  14O    basis set group =>   3
Atom  15O    basis set group =>   3
Atom  16O    basis set group =>   3
Atom  17H    basis set group =>   2
Atom  18H    basis set group =>   2
Atom  19H    basis set group =>   2
Atom  20H    basis set group =>   2
Atom  21H    basis set group =>   2
Atom  22H    basis set group =>   2
Atom  23H    basis set group =>   2
---------------------------------
AUXILIARY/J BASIS SET INFORMATION
---------------------------------
There are 3 groups of distinct atoms

 Group   1 Type C   : 12s5p4d2f1g contracted to 6s4p3d1f1g pattern {711111/2111/211/2/1}
 Group   2 Type H   : 5s2p1d contracted to 3s1p1d pattern {311/2/1}
 Group   3 Type O   : 12s5p4d2f1g contracted to 6s4p3d1f1g pattern {711111/2111/211/2/1}

Atom   0C    basis set group =>   1
Atom   1C    basis set group =>   1
Atom   2H    basis set group =>   2
Atom   3C    basis set group =>   1
Atom   4H    basis set group =>   2
Atom   5C    basis set group =>   1
Atom   6H    basis set group =>   2
Atom   7C    basis set group =>   1
Atom   8H    basis set group =>   2
Atom   9C    basis set group =>   1
Atom  10H    basis set group =>   2
Atom  11O    basis set group =>   3
Atom  12O    basis set group =>   3
Atom  13O    basis set group =>   3
Atom  14O    basis set group =>   3
Atom  15O    basis set group =>   3
Atom  16O    basis set group =>   3
Atom  17H    basis set group =>   2
Atom  18H    basis set group =>   2
Atom  19H    basis set group =>   2
Atom  20H    basis set group =>   2
Atom  21H    basis set group =>   2
Atom  22H    basis set group =>   2
Atom  23H    basis set group =>   2

Checking for AutoStart:
The File: sp_gas.gbw exists
Trying to determine its content:
     ... Fine, the file contains calculation information
     ... Fine, the calculation information was read
     ... Fine, the file contains a basis set
     ... Fine, the basis set was read
     ... Fine, the file contains a geometry
     ... Fine, the geometry was read
     ... Fine, the file contains a set of orbitals
     ... Fine, the orbitals can be read
     => possible old guess file was deleted
     => GBW file was renamed to GES file
     => GES file is set as startup file
     => Guess is set to MORead
     ... now leaving AutoStart

------------------------------------------------------------------------------
                             ORCA STARTUP CALCULATIONS
                           -- RI-GTO INTEGRALS CHOSEN --
------------------------------------------------------------------------------
------------------------------------------------------------------------------
                   ___                                                        
                  /   \      - P O W E R E D   B Y -                         
                 /     \                                                     
                 |  |  |   _    _      __       _____    __    __             
                 |  |  |  | |  | |    /  \     |  _  \  |  |  /  |          
                  \  \/   | |  | |   /    \    | | | |  |  | /  /          
                 / \  \   | |__| |  /  /\  \   | |_| |  |  |/  /          
                |  |  |   |  __  | /  /__\  \  |    /   |      \           
                |  |  |   | |  | | |   __   |  |    \   |  |\   \          
                \     /   | |  | | |  |  |  |  | |\  \  |  | \   \       
                 \___/    |_|  |_| |__|  |__|  |_| \__\ |__|  \__/        
                                                                              
                      - O R C A' S   B I G   F R I E N D -                    
                                      &                                       
                       - I N T E G R A L  F E E D E R -                       
                                                                              
 v1 FN, 2020, v2 2021, v3 2022-2024                                           
------------------------------------------------------------------------------


----------------------
SHARK INTEGRAL PACKAGE
----------------------

Number of atoms                             ...     24
Number of basis functions                   ...    318
Number of shells                            ...    150
Maximum angular momentum                    ...      2
Integral batch strategy                     ... SHARK/LIBINT Hybrid
RI-J (if used) integral strategy            ... SPLIT-RIJ (Revised 2003 algorithm where possible)
Printlevel                                  ...      1
Contraction scheme used                     ... SEGMENTED contraction
Prescreening option                         ... SCHWARTZ
   Thresh                                   ... 1.000e-10
   Tcut                                     ... 1.000e-11
   Tpresel                                  ... 1.000e-11 
Coulomb Range Separation                    ... NOT USED
Exchange Range Separation                   ... NOT USED
Multipole approximations                    ... NOT USED
Finite Nucleus Model                        ... NOT USED
CABS basis                                  ... NOT available
Auxiliary Coulomb fitting basis             ... AVAILABLE
   # of basis functions in Aux-J            ...    720
   # of shells in Aux-J                     ...    240
   Maximum angular momentum in Aux-J        ...      4
Auxiliary J/K fitting basis                 ... NOT available
Auxiliary Correlation fitting basis         ... NOT available
Auxiliary 'external' fitting basis          ... NOT available

Checking pre-screening integrals            ... done (  0.0 sec) Dimension = 150
Check shell pair data                       ... done (  0.0 sec)
Shell pair information
Shell pair cut-off parameter TPreSel        ...   1.0e-11
Total number of shell pairs                 ...     11325
Shell pairs after pre-screening             ...      9650
Total number of primitive shell pairs       ...     40203
Primitive shell pairs kept                  ...     23447
          la=0 lb=0:   2918 shell pairs
          la=1 lb=0:   3455 shell pairs
          la=1 lb=1:   1038 shell pairs
          la=2 lb=0:   1310 shell pairs
          la=2 lb=1:    771 shell pairs
          la=2 lb=2:    158 shell pairs

Calculating one electron integrals          ... done (  0.0 sec)
Calculating RI/J V-Matrix + Cholesky decomp.... done (  0.1 sec)
Calculating Nuclear repulsion               ... done (  0.0 sec) ENN=    827.848831396131 Eh

Diagonalization of the overlap matrix:
Smallest eigenvalue                        ... 2.760e-05
Time for diagonalization                   ...    0.009 sec
Threshold for overlap eigenvalues          ... 1.000e-07
Number of eigenvalues below threshold      ... 0
Time for construction of square roots      ...    0.019 sec
Total time needed                          ...    0.037 sec

-------------------
DFT GRID GENERATION
-------------------

General Integration Accuracy     IntAcc      ... 4.388
Radial Grid Type                 RadialGrid  ... OptM3 with GC (2021)
Angular Grid (max. ang.)         AngularGrid ... 4 (Lebedev-302)
Angular grid pruning method      GridPruning ... 4 (adaptive)
Weight generation scheme         WeightScheme... mBecke (2022)
Basis function cutoff            BFCut       ... 1.0000e-10
Integration weight cutoff        WCut        ... 1.0000e-14
Partially contracted basis set               ... off
Rotationally invariant grid construction     ... off
Angular grids for H and He will be reduced by one unit
Diffuse basis detected: some atoms will have their outermost
                        angular grid increased by 1.

Total number of grid points                  ...   112011
Total number of batches                      ...     1762
Average number of points per batch           ...       63
Average number of grid points per atom       ...     4667
Initializing property integral containers    ... done (  0.0 sec)

SHARK setup successfully completed in   1.7 seconds

Maximum memory used throughout the entire STARTUP-calculation: 54.8 MB
-------------------------------------------------------------------------------
                                 ORCA GUESS
                   Start orbitals & Density for SCF / CASSCF
-------------------------------------------------------------------------------

------------
SCF SETTINGS
------------
Hamiltonian:
 Density Functional     Method          .... DFT(GTOs)
  Functional kind                       .... Exchange
  Functional name                       .... Re-regularized SCAN exchange by Furness et al
  Functional family                     .... MGGA
  Functional refs                              
    [ 0] J. W. Furness, A. D. Kaplan, J. Ning, J. P. Perdew, and J. Sun.,  J. Phys. Chem. Lett. 11, 8208-8215 (2020), doi: 10.1021/acs.jpclett.0c02405
    [ 1] J. W. Furness, A. D. Kaplan, J. Ning, J. P. Perdew, and J. Sun.,  J. Phys. Chem. Lett. 11, 9248-9248 (2020), doi: 10.1021/acs.jpclett.0c03077
  Functional external parameters        .... 6
    Parameter  0 _c1        =  6.670000e-01 : c1 parameter        
    Parameter  1 _c2        =  8.000000e-01 : c2 parameter        
    Parameter  2 _d         =  1.240000e+00 : d parameter         
    Parameter  3 _k1        =  6.500000e-02 : k1 parameter        
    Parameter  4 _eta       =  1.000000e-03 : eta parameter       
    Parameter  5 _dp2       =  3.610000e-01 : dp2 parameter       
  Functional kind                       .... Correlation
  Functional name                       .... Re-regularized SCAN correlation by Furness et al
  Functional family                     .... MGGA
  Functional refs                              
    [ 0] J. W. Furness, A. D. Kaplan, J. Ning, J. P. Perdew, and J. Sun.,  J. Phys. Chem. Lett. 11, 8208-8215 (2020), doi: 10.1021/acs.jpclett.0c02405
    [ 1] J. W. Furness, A. D. Kaplan, J. Ning, J. P. Perdew, and J. Sun.,  J. Phys. Chem. Lett. 11, 9248-9248 (2020), doi: 10.1021/acs.jpclett.0c03077
  Functional external parameters        .... 1
    Parameter  0 _eta       =  1.000000e-03 : Regularization parameter
 Gradients option       PostSCFGGA      .... off
 RI-approximation to the Coulomb term is turned on
   Number of AuxJ basis functions       .... 720


General Settings:
 Integral files         IntName         .... sp_gas
 Hartree-Fock type      HFTyp           .... RHF
 Total Charge           Charge          ....    0
 Multiplicity           Mult            ....    1
 Number of Electrons    NEL             ....   96
 Basis Dimension        Dim             ....  318
 Nuclear Repulsion      ENuc            ....    827.8488313961 Eh

Convergence Acceleration:
 AO-DIIS                CNVDIIS         .... on
   Start iteration      DIISMaxIt       ....    12
   Startup error        DIISStart       ....  0.200000
   # of expansion vecs  DIISMaxEq       ....     5
   Bias factor          DIISBfac        ....   1.050
   Max. coefficient     DIISMaxC        ....  10.000
 MO-DIIS                CNVKDIIS        .... off
 Trust-Rad. Augm. Hess. CNVTRAH         .... auto
   Auto Start mean grad. ratio tolernc. ....  1.125000
   Auto Start start iteration           ....     1
   Auto Start num. interpolation iter.  ....    10
   Max. Number of Micro iterations      ....    24
   Max. Number of Macro iterations      .... Maxiter - #DIIS iter
   Number of Davidson start vectors     ....     2
   Converg. threshold    (grad. norm)   ....   3.330e-04
   Grad. Scal. Fac. for Micro threshold ....   0.100
   Minimum threshold for Micro iter.    ....   1.000e-02
   NR start threshold (gradient norm)   ....   1.000e-04
   Initial trust radius                 ....   0.400
   Minimum AH scaling param. (alpha)    ....   1.000
   Maximum AH scaling param. (alpha)    .... 1000.000
   Quad. conv. algorithm                .... NR
   White noise on init. David. guess    .... on
   Maximum white noise                  ....   0.010
   Pseudo random numbers                .... off
   Inactive MOs                         .... canonical
   Orbital update algorithm             .... Taylor
   Preconditioner                       .... Diag
   Full preconditioner red. dimension   ....   250
   COSX micro iterations for RIJONX calc.... off
 SOSCF                  CNVSOSCF        .... on
   Start iteration      SOSCFMaxIt      ....   150
   Startup grad/error   SOSCFStart      ....  0.003300
   Hessian update       SOSCFHessUp     .... L-BFGS
 Level Shifting         CNVShift        .... on
   Level shift para.    LevelShift      ....    0.2500
   Turn off err/grad.   ShiftErr        ....    0.0010
 Zerner damping         CNVZerner       .... off
 Static damping         CNVDamp         .... on
   Fraction old density DampFac         ....    0.7000
   Max. Damping (<1)    DampMax         ....    0.9800
   Min. Damping (>=0)   DampMin         ....    0.0000
   Turn off err/grad.   DampErr         ....    0.1000

SCF Procedure:
 Maximum # iterations   MaxIter         ....   125
 SCF integral mode      SCFMode         .... Direct
   Integral package                     .... SHARK and LIBINT hybrid scheme
 Reset frequency        DirectResetFreq ....    20
 Integral Threshold     Thresh          ....  1.000e-10 Eh
 Primitive CutOff       TCut            ....  1.000e-11 Eh

Convergence Tolerance:
 Convergence Check Mode ConvCheckMode   .... Total+1el-Energy
 Convergence forced     ConvForced      .... 0
 Energy Change          TolE            ....  1.000e-06 Eh
 1-El. energy change                    ....  1.000e-03 Eh
 Orbital Gradient       TolG            ....  3.330e-04
 Orbital Rotation angle TolX            ....  3.330e-04
 DIIS Error             TolErr          ....  1.000e-06

---------------------
INITIAL GUESS: MOREAD
---------------------
Guess MOs are being read from file: sp_gas.ges
Input Geometry matches current geometry (good)
Atom 0: N(Shells)= 9 and 6 - projection required
Input basis set needs projection
NBasis(read)= 192
NBasis(calc)= 318
Basis set overlap was calculated
Using GuessMode=FMatrix for the initial guess
C*T matrix was formed
Effective Fockian was calculated
Effective Fockian was diagonalized
Initial density was built
                      ------------------
                      INITIAL GUESS DONE (   0.1 sec)
                      ------------------
             **** ENERGY FILE WAS UPDATED (sp_gas.en.tmp) ****
Finished Guess after   0.4 sec
Maximum memory used throughout the entire GUESS-calculation: 26.7 MB

-------------------------------------------------------------------------------------------
                                      ORCA LEAN-SCF
                              memory conserving SCF solver
-------------------------------------------------------------------------------------------

----------------------------------------D-I-I-S--------------------------------------------
Iteration    Energy (Eh)           Delta-E    RMSDP     MaxDP     DIISErr   Damp  Time(sec)
-------------------------------------------------------------------------------------------
               ***  Starting incremental Fock matrix formation  ***
    1    -686.6920370404752703     0.00e+00  1.01e-02  6.88e-01  6.27e-01  0.700   5.2
    2    -686.8102113584764083    -1.18e-01  7.27e-03  4.23e-01  4.41e-01  0.700   4.6
    3    -686.8939772060955420    -8.38e-02  5.09e-03  2.73e-01  3.09e-01  0.700   4.5
    4    -686.9528341136665404    -5.89e-02  3.57e-03  1.83e-01  2.16e-01  0.700   4.5
                               ***Turning on AO-DIIS***
    5    -686.9941421729627109    -4.13e-02  2.51e-03  1.24e-01  1.51e-01  0.700   4.4
    6    -687.0231132228987008    -2.90e-02  1.76e-03  8.53e-02  1.06e-01  0.700   4.3
    7    -687.0434316416010461    -2.03e-02  1.23e-03  5.88e-02  7.41e-02  0.700   4.2
    8    -687.0576735340232517    -1.42e-02  2.88e-03  1.37e-01  5.19e-02  0.000   4.1
                              *** Initializing SOSCF ***
---------------------------------------S-O-S-C-F--------------------------------------
Iteration    Energy (Eh)           Delta-E    RMSDP     MaxDP     MaxGrad    Time(sec)
--------------------------------------------------------------------------------------
    9    -687.0909661622458771    -3.33e-02  1.03e-05  5.42e-04  1.69e-04     4.3
               *** Restarting incremental Fock matrix formation ***
   10    -687.0909661950288410    -3.28e-08  2.07e-05  1.50e-03  1.95e-05     5.1
                  *** Gradient check signals convergence ***

               *****************************************************
               *                     SUCCESS                       *
               *           SCF CONVERGED AFTER  10 CYCLES          *
               *****************************************************

             **** ENERGY FILE WAS UPDATED (sp_gas.en.tmp) ****

----------------
TOTAL SCF ENERGY
----------------

Total Energy       :       -687.09096619502884 Eh          -18696.69571 eV

Components:
Nuclear Repulsion  :        827.84883139613089 Eh           22526.91195 eV
Electronic Energy  :      -1514.93979759115973 Eh          -41223.60766 eV
One Electron Energy:      -2585.39294062351200 Eh          -70352.11855 eV
Two Electron Energy:       1070.45314303235227 Eh           29128.51089 eV

Virial components:
Potential Energy   :      -1371.49472168119632 Eh          -37320.26870 eV
Kinetic Energy     :        684.40375548616748 Eh           18623.57299 eV
Virial Ratio       :          2.00392635295660

DFT components:
N(Alpha)           :       48.000103387926 electrons
N(Beta)            :       48.000103387926 electrons
N(Total)           :       96.000206775851 electrons
E(X)               :      -85.279661091210 Eh       
E(C)               :       -3.193753614427 Eh       
E(XC)              :      -88.473414705637 Eh       

---------------
SCF CONVERGENCE
---------------

  Last Energy change         ...    3.2783e-08  Tolerance :   1.0000e-06
  Last MAX-Density change    ...    1.5032e-03  Tolerance :   1.0000e-05
  Last RMS-Density change    ...    2.0720e-05  Tolerance :   1.0000e-06
  Last DIIS Error            ...    1.6858e-04  Tolerance :   1.0000e-06
  Last Orbital Gradient      ...    1.9526e-05  Tolerance :   3.3300e-04
  Last Orbital Rotation      ...    3.1580e-05  Tolerance :   3.3300e-04


----------------
ORBITAL ENERGIES
----------------

  NO   OCC          E(Eh)            E(eV) 
   0   2.0000     -18.983419      -516.5651 
   1   2.0000     -18.980214      -516.4779 
   2   2.0000     -18.976126      -516.3666 
   3   2.0000     -18.971847      -516.2502 
   4   2.0000     -18.970315      -516.2085 
   5   2.0000     -18.941676      -515.4292 
   6   2.0000     -10.149403      -276.1793 
   7   2.0000     -10.101229      -274.8684 
   8   2.0000     -10.099608      -274.8243 
   9   2.0000     -10.099485      -274.8209 
  10   2.0000     -10.097284      -274.7611 
  11   2.0000     -10.079148      -274.2676 
  12   2.0000      -1.064671       -28.9712 
  13   2.0000      -1.026371       -27.9290 
  14   2.0000      -1.015069       -27.6214 
  15   2.0000      -0.997822       -27.1521 
  16   2.0000      -0.994852       -27.0713 
  17   2.0000      -0.980837       -26.6899 
  18   2.0000      -0.761725       -20.7276 
  19   2.0000      -0.742358       -20.2006 
  20   2.0000      -0.657716       -17.8974 
  21   2.0000      -0.630039       -17.1442 
  22   2.0000      -0.599789       -16.3211 
  23   2.0000      -0.572659       -15.5828 
  24   2.0000      -0.536217       -14.5912 
  25   2.0000      -0.521396       -14.1879 
  26   2.0000      -0.498633       -13.5685 
  27   2.0000      -0.484515       -13.1843 
  28   2.0000      -0.478257       -13.0140 
  29   2.0000      -0.467825       -12.7302 
  30   2.0000      -0.447815       -12.1857 
  31   2.0000      -0.427425       -11.6308 
  32   2.0000      -0.420326       -11.4377 
  33   2.0000      -0.397444       -10.8150 
  34   2.0000      -0.385271       -10.4837 
  35   2.0000      -0.372752       -10.1431 
  36   2.0000      -0.360109        -9.7991 
  37   2.0000      -0.356492        -9.7006 
  38   2.0000      -0.346471        -9.4280 
  39   2.0000      -0.333394        -9.0721 
  40   2.0000      -0.320803        -8.7295 
  41   2.0000      -0.291649        -7.9362 
  42   2.0000      -0.286238        -7.7889 
  43   2.0000      -0.270049        -7.3484 
  44   2.0000      -0.261303        -7.1104 
  45   2.0000      -0.254664        -6.9298 
  46   2.0000      -0.239620        -6.5204 
  47   2.0000      -0.230257        -6.2656 
  48   0.0000       0.019083         0.5193 
  49   0.0000       0.042825         1.1653 
  50   0.0000       0.069899         1.9021 
  51   0.0000       0.077752         2.1157 
  52   0.0000       0.080176         2.1817 
  53   0.0000       0.089319         2.4305 
  54   0.0000       0.105387         2.8677 
  55   0.0000       0.110409         3.0044 
  56   0.0000       0.126720         3.4482 
  57   0.0000       0.132885         3.6160 
  58   0.0000       0.142385         3.8745 
*Only the first 10 virtual orbitals were printed.

                    ********************************
                    * MULLIKEN POPULATION ANALYSIS *
                    ********************************

-----------------------
MULLIKEN ATOMIC CHARGES
-----------------------
   0 C :   -0.241033
   1 C :   -0.108030
   2 H :    0.187081
   3 C :   -0.006546
   4 H :    0.169974
   5 C :   -0.025032
   6 H :    0.170334
   7 C :    0.111711
   8 H :    0.163576
   9 C :   -0.141579
  10 H :    0.158980
  11 O :   -0.197541
  12 O :   -0.385315
  13 O :   -0.444100
  14 O :   -0.446310
  15 O :   -0.433981
  16 O :   -0.414172
  17 H :    0.151249
  18 H :    0.134903
  19 H :    0.328435
  20 H :    0.312002
  21 H :    0.316572
  22 H :    0.318838
  23 H :    0.319982
Sum of atomic charges:    0.0000000

--------------------------------
MULLIKEN REDUCED ORBITAL CHARGES
--------------------------------
  0 C s       :     3.353580  s :     3.353580
      pz      :     0.990758  p :     2.827826
      px      :     0.807941
      py      :     1.029128
      dz2     :     0.016807  d :     0.059626
      dxz     :     0.012463
      dyz     :     0.004639
      dx2y2   :     0.015843
      dxy     :     0.009874

  1 C s       :     3.259705  s :     3.259705
      pz      :     1.072489  p :     2.783448
      px      :     0.837048
      py      :     0.873911
      dz2     :     0.015369  d :     0.064877
      dxz     :     0.009788
      dyz     :     0.008363
      dx2y2   :     0.015536
      dxy     :     0.015821

  2 H s       :     0.796092  s :     0.796092
      pz      :     0.011611  p :     0.016828
      px      :     0.002569
      py      :     0.002648

  3 C s       :     3.177282  s :     3.177282
      pz      :     1.039424  p :     2.761800
      px      :     0.853050
      py      :     0.869326
      dz2     :     0.016649  d :     0.067464
      dxz     :     0.010216
      dyz     :     0.009633
      dx2y2   :     0.016201
      dxy     :     0.014764

  4 H s       :     0.813224  s :     0.813224
      pz      :     0.011536  p :     0.016801
      px      :     0.002643
      py      :     0.002622

  5 C s       :     3.178755  s :     3.178755
      pz      :     1.020746  p :     2.778827
      px      :     0.978828
      py      :     0.779253
      dz2     :     0.016981  d :     0.067450
      dxz     :     0.006455
      dyz     :     0.012969
      dx2y2   :     0.015399
      dxy     :     0.015646

  6 H s       :     0.812861  s :     0.812861
      pz      :     0.011492  p :     0.016805
      px      :     0.003036
      py      :     0.002276

  7 C s       :     3.054433  s :     3.054433
      pz      :     1.030832  p :     2.767202
      px      :     0.821707
      py      :     0.914662
      dz2     :     0.017083  d :     0.066654
      dxz     :     0.013344
      dyz     :     0.006129
      dx2y2   :     0.013628
      dxy     :     0.016470

  8 H s       :     0.819531  s :     0.819531
      pz      :     0.011491  p :     0.016894
      px      :     0.002325
      py      :     0.003078

  9 C s       :     3.422335  s :     3.422335
      pz      :     1.019657  p :     2.625190
      px      :     0.730299
      py      :     0.875234
      dz2     :     0.020276  d :     0.094053
      dxz     :     0.015735
      dyz     :     0.009848
      dx2y2   :     0.025180
      dxy     :     0.023014

 10 H s       :     0.824620  s :     0.824620
      pz      :     0.012117  p :     0.016400
      px      :     0.001835
      py      :     0.002448

 11 O s       :     3.737592  s :     3.737592
      pz      :     1.743028  p :     4.430441
      px      :     1.076627
      py      :     1.610786
      dz2     :     0.008765  d :     0.029508
      dxz     :     0.003078
      dyz     :     0.003108
      dx2y2   :     0.008208
      dxy     :     0.006350

 12 O s       :     3.728244  s :     3.728244
      pz      :     1.444636  p :     4.632732
      px      :     1.643700
      py      :     1.544395
      dz2     :     0.009099  d :     0.024339
      dxz     :     0.004864
      dyz     :    -0.000776
      dx2y2   :     0.003953
      dxy     :     0.007199

 13 O s       :     3.771011  s :     3.771011
      pz      :     1.805242  p :     4.656529
      px      :     1.251475
      py      :     1.599811
      dz2     :     0.002904  d :     0.016560
      dxz     :     0.002444
      dyz     :     0.003736
      dx2y2   :     0.003669
      dxy     :     0.003807

 14 O s       :     3.768506  s :     3.768506
      pz      :     1.793268  p :     4.659011
      px      :     1.452275
      py      :     1.413468
      dz2     :     0.002508  d :     0.018793
      dxz     :     0.004608
      dyz     :     0.003772
      dx2y2   :     0.003453
      dxy     :     0.004451

 15 O s       :     3.765717  s :     3.765717
      pz      :     1.827269  p :     4.649753
      px      :     1.582046
      py      :     1.240439
      dz2     :     0.004541  d :     0.018511
      dxz     :     0.004012
      dyz     :     0.003414
      dx2y2   :     0.002935
      dxy     :     0.003608

 16 O s       :     3.758600  s :     3.758600
      pz      :     1.772253  p :     4.641048
      px      :     1.553636
      py      :     1.315159
      dz2     :     0.003603  d :     0.014523
      dxz     :     0.003865
      dyz     :     0.001305
      dx2y2   :     0.003307
      dxy     :     0.002442

 17 H s       :     0.831477  s :     0.831477
      pz      :     0.003247  p :     0.017274
      px      :     0.002569
      py      :     0.011457

 18 H s       :     0.848086  s :     0.848086
      pz      :     0.011163  p :     0.017011
      px      :     0.002587
      py      :     0.003261

 19 H s       :     0.628902  s :     0.628902
      pz      :     0.020409  p :     0.042662
      px      :     0.010669
      py      :     0.011584

 20 H s       :     0.644854  s :     0.644854
      pz      :     0.011703  p :     0.043144
      px      :     0.013590
      py      :     0.017851

 21 H s       :     0.640280  s :     0.640280
      pz      :     0.012105  p :     0.043148
      px      :     0.021625
      py      :     0.009419

 22 H s       :     0.638250  s :     0.638250
      pz      :     0.012168  p :     0.042912
      px      :     0.010213
      py      :     0.020531

 23 H s       :     0.636069  s :     0.636069
      pz      :     0.011185  p :     0.043949
      px      :     0.009406
      py      :     0.023358


------------------------
MULLIKEN OVERLAP CHARGES
------------------------
B(  0-C ,  1-C ) :   0.0914 B(  0-C , 16-O ) :   0.5294 B(  0-C , 17-H ) :   0.8069 
B(  0-C , 18-H ) :   0.9513 B(  0-C , 23-H ) :  -0.0837 B(  1-C ,  2-H ) :   0.8316 
B(  1-C ,  3-C ) :  -0.9375 B(  1-C ,  5-C ) :   0.1677 B(  1-C ,  7-C ) :   0.2822 
B(  1-C ,  9-C ) :  -0.6735 B(  1-C , 11-O ) :   0.1249 B(  1-C , 15-O ) :  -0.0504 
B(  1-C , 16-O ) :  -0.1183 B(  1-C , 17-H ) :  -0.0637 B(  1-C , 18-H ) :  -0.1603 
B(  2-H ,  3-C ) :  -0.1161 B(  2-H , 11-O ) :  -0.0974 B(  3-C ,  4-H ) :   0.7994 
B(  3-C ,  5-C ) :  -0.2400 B(  3-C ,  6-H ) :  -0.1043 B(  3-C ,  7-C ) :  -0.3000 
B(  3-C ,  8-H ) :   0.0676 B(  3-C ,  9-C ) :   0.3168 B(  3-C , 11-O ) :  -0.0755 
B(  3-C , 14-O ) :  -0.0771 B(  3-C , 15-O ) :   0.2313 B(  3-C , 22-H ) :  -0.1381 
B(  4-H ,  5-C ) :  -0.1403 B(  4-H ,  7-C ) :   0.0825 B(  4-H , 15-O ) :  -0.0960 
B(  5-C ,  6-H ) :   0.9053 B(  5-C ,  7-C ) :  -0.3302 B(  5-C ,  8-H ) :  -0.1118 
B(  5-C , 14-O ) :   0.3726 B(  5-C , 15-O ) :  -0.0585 B(  5-C , 21-H ) :  -0.0957 
B(  6-H ,  7-C ) :  -0.1553 B(  6-H , 14-O ) :  -0.1053 B(  7-C ,  8-H ) :   0.8141 
B(  7-C ,  9-C ) :  -0.7525 B(  7-C , 10-H ) :  -0.2144 B(  7-C , 11-O ) :  -0.1522 
B(  7-C , 12-O ) :  -0.1566 B(  7-C , 13-O ) :   0.2794 B(  7-C , 14-O ) :  -0.1069 
B(  7-C , 20-H ) :  -0.1050 B(  8-H , 13-O ) :  -0.1003 B(  9-C , 10-H ) :   0.9821 
B(  9-C , 11-O ) :   0.4230 B(  9-C , 12-O ) :   0.5602 B(  9-C , 13-O ) :  -0.0829 
B(  9-C , 19-H ) :  -0.0639 B( 10-H , 11-O ) :  -0.1002 B( 10-H , 12-O ) :  -0.1164 
B( 11-O , 12-O ) :  -0.1653 B( 12-O , 19-H ) :   0.5978 B( 13-O , 20-H ) :   0.6002 
B( 14-O , 21-H ) :   0.6048 B( 15-O , 22-H ) :   0.6030 B( 15-O , 23-H ) :   0.0506 
B( 16-O , 17-H ) :  -0.0961 B( 16-O , 18-H ) :  -0.1034 B( 16-O , 23-H ) :   0.5861 
B( 17-H , 18-H ) :  -0.0692 


                     *******************************
                     * LOEWDIN POPULATION ANALYSIS *
                     *******************************

----------------------
LOEWDIN ATOMIC CHARGES
----------------------
   0 C :    0.049795
   1 C :    0.125347
   2 H :    0.190281
   3 C :    0.115159
   4 H :    0.184739
   5 C :    0.107025
   6 H :    0.186277
   7 C :    0.106304
   8 H :    0.182538
   9 C :    0.294330
  10 H :    0.195315
  11 O :   -0.681791
  12 O :   -0.496070
  13 O :   -0.577331
  14 O :   -0.576510
  15 O :   -0.585342
  16 O :   -0.596641
  17 H :    0.188190
  18 H :    0.164131
  19 H :    0.286264
  20 H :    0.283892
  21 H :    0.284258
  22 H :    0.288317
  23 H :    0.281524

-------------------------------
LOEWDIN REDUCED ORBITAL CHARGES
-------------------------------
  0 C s       :     2.863394  s :     2.863394
      pz      :     1.028157  p :     2.953868
      px      :     0.889761
      py      :     1.035951
      dz2     :     0.039182  d :     0.132943
      dxz     :     0.026967
      dyz     :     0.008569
      dx2y2   :     0.037651
      dxy     :     0.020574

  1 C s       :     2.825125  s :     2.825125
      pz      :     1.055437  p :     2.909789
      px      :     0.925263
      py      :     0.929089
      dz2     :     0.035176  d :     0.139740
      dxz     :     0.019947
      dyz     :     0.017006
      dx2y2   :     0.033438
      dxy     :     0.034172

  2 H s       :     0.769036  s :     0.769036
      pz      :     0.027977  p :     0.040683
      px      :     0.006214
      py      :     0.006492

  3 C s       :     2.826194  s :     2.826194
      pz      :     1.050681  p :     2.913391
      px      :     0.933488
      py      :     0.929222
      dz2     :     0.037829  d :     0.145257
      dxz     :     0.021120
      dyz     :     0.018798
      dx2y2   :     0.036280
      dxy     :     0.031230

  4 H s       :     0.774638  s :     0.774638
      pz      :     0.027788  p :     0.040623
      px      :     0.006431
      py      :     0.006404

  5 C s       :     2.827905  s :     2.827905
      pz      :     1.043859  p :     2.920061
      px      :     0.987641
      py      :     0.888561
      dz2     :     0.038740  d :     0.145009
      dxz     :     0.011417
      dyz     :     0.027742
      dx2y2   :     0.033341
      dxy     :     0.033770

  6 H s       :     0.773059  s :     0.773059
      pz      :     0.027635  p :     0.040664
      px      :     0.006901
      py      :     0.006128

  7 C s       :     2.836474  s :     2.836474
      pz      :     1.039286  p :     2.913666
      px      :     0.884188
      py      :     0.990192
      dz2     :     0.038908  d :     0.143556
      dxz     :     0.028239
      dyz     :     0.010979
      dx2y2   :     0.028639
      dxy     :     0.036791

  8 H s       :     0.776913  s :     0.776913
      pz      :     0.027453  p :     0.040549
      px      :     0.006121
      py      :     0.006974

  9 C s       :     2.772346  s :     2.772346
      pz      :     0.993185  p :     2.728167
      px      :     0.819960
      py      :     0.915022
      dz2     :     0.048464  d :     0.205157
      dxz     :     0.032450
      dyz     :     0.017935
      dx2y2   :     0.055180
      dxy     :     0.051127

 10 H s       :     0.767332  s :     0.767332
      pz      :     0.027243  p :     0.037353
      px      :     0.004584
      py      :     0.005526

 11 O s       :     3.472645  s :     3.472645
      pz      :     1.761691  p :     4.704666
      px      :     1.304193
      py      :     1.638782
      dz2     :     0.095227  d :     0.504479
      dxz     :     0.101569
      dyz     :     0.049636
      dx2y2   :     0.127925
      dxy     :     0.130121

 12 O s       :     3.493397  s :     3.493397
      pz      :     1.503641  p :     4.740521
      px      :     1.653296
      py      :     1.583584
      dz2     :     0.063779  d :     0.262152
      dxz     :     0.034751
      dyz     :     0.045279
      dx2y2   :     0.063321
      dxy     :     0.055023

 13 O s       :     3.500288  s :     3.500288
      pz      :     1.812714  p :     4.795073
      px      :     1.375644
      py      :     1.606715
      dz2     :     0.053038  d :     0.281969
      dxz     :     0.057865
      dyz     :     0.016274
      dx2y2   :     0.063761
      dxy     :     0.091032

 14 O s       :     3.500484  s :     3.500484
      pz      :     1.801779  p :     4.794299
      px      :     1.483783
      py      :     1.508737
      dz2     :     0.051285  d :     0.281728
      dxz     :     0.017574
      dyz     :     0.059217
      dx2y2   :     0.078032
      dxy     :     0.075620

 15 O s       :     3.495887  s :     3.495887
      pz      :     1.825827  p :     4.788856
      px      :     1.624427
      py      :     1.338603
      dz2     :     0.052477  d :     0.300598
      dxz     :     0.039396
      dyz     :     0.040092
      dx2y2   :     0.090550
      dxy     :     0.078083

 16 O s       :     3.511789  s :     3.511789
      pz      :     1.790833  p :     4.807576
      px      :     1.608535
      py      :     1.408207
      dz2     :     0.058693  d :     0.277277
      dxz     :     0.053823
      dyz     :     0.021766
      dx2y2   :     0.086585
      dxy     :     0.056410

 17 H s       :     0.772672  s :     0.772672
      pz      :     0.007382  p :     0.039138
      px      :     0.005501
      py      :     0.026255

 18 H s       :     0.795565  s :     0.795565
      pz      :     0.026361  p :     0.040304
      px      :     0.006262
      py      :     0.007681

 19 H s       :     0.593837  s :     0.593837
      pz      :     0.061522  p :     0.119899
      px      :     0.028478
      py      :     0.029899

 20 H s       :     0.593684  s :     0.593684
      pz      :     0.030603  p :     0.122424
      px      :     0.038032
      py      :     0.053789

 21 H s       :     0.593303  s :     0.593303
      pz      :     0.032360  p :     0.122439
      px      :     0.065361
      py      :     0.024718

 22 H s       :     0.589920  s :     0.589920
      pz      :     0.032020  p :     0.121763
      px      :     0.028412
      py      :     0.061330

 23 H s       :     0.593109  s :     0.593109
      pz      :     0.029238  p :     0.125367
      px      :     0.024893
      py      :     0.071236


---------------------------------
LOEWDIN BOND ORDERS (THRESH 0.050000)
---------------------------------
B(  0-C ,  1-C ) :   0.9174 B(  0-C ,  3-C ) :   0.0654 B(  0-C , 11-O ) :   0.1618 
B(  0-C , 16-O ) :   1.4716 B(  0-C , 17-H ) :   0.8131 B(  0-C , 18-H ) :   0.8219 
B(  1-C ,  2-H ) :   0.7710 B(  1-C ,  3-C ) :   0.8781 B(  1-C ,  5-C ) :   0.0663 
B(  1-C ,  9-C ) :   0.0832 B(  1-C , 11-O ) :   1.3323 B(  1-C , 15-O ) :   0.1541 
B(  1-C , 16-O ) :   0.1644 B(  2-H , 11-O ) :   0.0969 B(  3-C ,  4-H ) :   0.7755 
B(  3-C ,  5-C ) :   0.8874 B(  3-C ,  7-C ) :   0.0697 B(  3-C , 11-O ) :   0.1494 
B(  3-C , 14-O ) :   0.1639 B(  3-C , 15-O ) :   1.4007 B(  4-H , 15-O ) :   0.0970 
B(  5-C ,  6-H ) :   0.7763 B(  5-C ,  7-C ) :   0.8895 B(  5-C ,  9-C ) :   0.0668 
B(  5-C , 13-O ) :   0.1626 B(  5-C , 14-O ) :   1.3996 B(  5-C , 15-O ) :   0.1547 
B(  6-H , 14-O ) :   0.0946 B(  7-C ,  8-H ) :   0.7803 B(  7-C ,  9-C ) :   0.8268 
B(  7-C , 11-O ) :   0.1458 B(  7-C , 12-O ) :   0.1574 B(  7-C , 13-O ) :   1.4055 
B(  7-C , 14-O ) :   0.1540 B(  8-H , 13-O ) :   0.0955 B(  9-C , 10-H ) :   0.7287 
B(  9-C , 11-O ) :   1.2658 B(  9-C , 12-O ) :   1.3869 B(  9-C , 13-O ) :   0.1485 
B( 10-H , 11-O ) :   0.0901 B( 10-H , 12-O ) :   0.0886 B( 11-O , 12-O ) :   0.3067 
B( 12-O , 13-O ) :   0.0549 B( 12-O , 19-H ) :   0.9373 B( 13-O , 14-O ) :   0.0511 
B( 13-O , 20-H ) :   0.9461 B( 14-O , 15-O ) :   0.0603 B( 14-O , 21-H ) :   0.9484 
B( 15-O , 16-O ) :   0.0840 B( 15-O , 22-H ) :   0.9396 B( 16-O , 17-H ) :   0.1007 
B( 16-O , 18-H ) :   0.1048 B( 16-O , 23-H ) :   0.9347 

------------------------------------------
LOEWDIN REDUCED ORBITAL POPULATIONS PER MO
-------------------------------------------
THRESHOLD FOR PRINTING IS 0.1%%
                      0         1         2         3         4         5   
                 -18.98342 -18.98021 -18.97613 -18.97185 -18.97032 -18.94168
                   2.00000   2.00000   2.00000   2.00000   2.00000   2.00000
                  --------  --------  --------  --------  --------  --------
11 O  s              99.9       0.0       0.0       0.0       0.0       0.0
12 O  s               0.0      99.9       0.0       0.0       0.0       0.0
13 O  s               0.0       0.0       0.0      99.9       0.0       0.0
14 O  s               0.0       0.0       0.0       0.0      99.9       0.0
15 O  s               0.0       0.0      99.9       0.0       0.0       0.0
16 O  s               0.0       0.0       0.0       0.0       0.0      99.9

                      6         7         8         9        10        11   
                 -10.14940 -10.10123 -10.09961 -10.09948 -10.09728 -10.07915
                   2.00000   2.00000   2.00000   2.00000   2.00000   2.00000
                  --------  --------  --------  --------  --------  --------
 0 C  s               0.0       0.0       0.0       0.0       0.0      99.4
 1 C  s               0.0       0.1       0.0      99.2       0.0       0.0
 3 C  s               0.0      99.0       0.2       0.1       0.0       0.0
 5 C  s               0.0       0.2      99.1       0.0       0.1       0.0
 7 C  s               0.0       0.0       0.1       0.0      99.3       0.0
 9 C  s              99.0       0.0       0.0       0.0       0.0       0.0
11 O  dx2y2           0.1       0.0       0.0       0.0       0.0       0.0
11 O  dxy             0.0       0.0       0.0       0.2       0.0       0.0
12 O  dxy             0.2       0.0       0.0       0.0       0.0       0.0
13 O  dxz             0.0       0.0       0.0       0.0       0.1       0.0
13 O  dx2y2           0.0       0.0       0.0       0.0       0.1       0.0
14 O  dyz             0.0       0.0       0.1       0.0       0.0       0.0
14 O  dx2y2           0.0       0.0       0.1       0.0       0.0       0.0
15 O  dxy             0.0       0.2       0.0       0.0       0.0       0.0
16 O  dxz             0.0       0.0       0.0       0.0       0.0       0.1

                     12        13        14        15        16        17   
                  -1.06467  -1.02637  -1.01507  -0.99782  -0.99485  -0.98084
                   2.00000   2.00000   2.00000   2.00000   2.00000   2.00000
                  --------  --------  --------  --------  --------  --------
 0 C  s               0.3       0.2       0.6       0.0       1.2       8.4
 0 C  pz              0.0       0.0       0.1       0.0       0.2       1.7
 0 C  px              0.4       0.0       0.1       0.2       0.1       5.4
 0 C  py              0.0       0.2       0.1       0.0       0.1       1.8
 0 C  dxz             0.0       0.0       0.0       0.0       0.0       0.3
 0 C  dyz             0.0       0.0       0.0       0.0       0.0       0.1
 0 C  dxy             0.0       0.0       0.0       0.0       0.0       0.3
 1 C  s               3.9       0.3       1.7       0.9       2.4       0.1
 1 C  pz              0.3       0.0       0.1       0.1       0.2       0.0
 1 C  px              2.5       0.1       0.2       0.9       0.4       2.5
 1 C  py              1.1       1.3       0.1       1.3       0.8       0.0
 1 C  dxy             0.2       0.0       0.0       0.1       0.1       0.0
 2 H  s               0.2       0.0       0.1       0.1       0.2       0.0
 3 C  s               0.9       6.6       2.2       0.7       0.0       0.2
 3 C  pz              0.1       0.7       0.3       0.1       0.0       0.0
 3 C  px              0.1       0.7       2.2       2.6       0.1       0.1
 3 C  py              0.4       3.0       0.3       1.2       1.0       0.2
 3 C  dxy             0.0       0.2       0.1       0.2       0.0       0.0
 4 H  s               0.0       0.4       0.1       0.1       0.0       0.0
 5 C  s               0.7       6.4       0.9       2.1       0.6       0.0
 5 C  pz              0.1       0.7       0.1       0.4       0.1       0.0
 5 C  px              0.0       0.1       2.9       0.4       0.0       0.1
 5 C  py              0.3       2.1       0.2       3.1       2.3       0.1
 5 C  dyz             0.0       0.1       0.0       0.1       0.1       0.0
 5 C  dx2y2           0.0       0.1       0.0       0.2       0.1       0.0
 6 H  s               0.0       0.4       0.1       0.1       0.0       0.0
 7 C  s               2.4       1.5       5.2       0.4       1.4       0.0
 7 C  pz              0.2       0.1       0.8       0.1       0.3       0.0
 7 C  px              0.1       0.1       4.4       2.1       1.8       0.0
 7 C  py              1.2       1.5       0.5       0.4       0.1       0.0
 7 C  dxz             0.0       0.0       0.2       0.0       0.1       0.0
 7 C  dx2y2           0.0       0.0       0.2       0.0       0.1       0.0
 8 H  s               0.1       0.1       0.3       0.0       0.1       0.0
 9 C  s              13.8       0.3       0.1       0.0       0.2       0.0
 9 C  pz              1.8       0.1       0.0       0.0       0.0       0.0
 9 C  px              0.4       0.0       2.9       4.4       5.0       0.6
 9 C  py              1.8       1.0       0.3       0.3       3.0       0.1
 9 C  dz2             0.2       0.0       0.0       0.0       0.0       0.0
 9 C  dxz             0.0       0.0       0.0       0.1       0.2       0.0
 9 C  dx2y2           0.1       0.0       0.1       0.1       0.1       0.0
 9 C  dxy             0.1       0.0       0.0       0.1       0.4       0.0
10 H  s               0.8       0.0       0.0       0.0       0.0       0.0
11 O  s              28.6       0.4       5.0       9.0      10.5       1.8
11 O  pz              0.6       0.0       0.1       0.1       0.1       0.0
11 O  px              0.8       0.1       0.1       0.1       0.5       0.0
11 O  py              0.7       0.0       0.2       0.3       0.6       0.1
11 O  dz2             0.4       0.0       0.0       0.0       0.0       0.0
11 O  dx2y2           0.6       0.1       0.0       0.1       0.2       0.1
12 O  s              21.8       2.5       1.5       8.1      23.9       1.7
12 O  pz              0.1       0.0       0.0       0.1       0.2       0.0
12 O  px              1.4       0.1       0.0       0.1       0.4       0.0
12 O  py              0.7       0.0       0.0       0.0       0.1       0.0
12 O  dz2             0.2       0.0       0.0       0.0       0.1       0.0
12 O  dx2y2           0.1       0.0       0.1       0.1       0.0       0.0
12 O  dxy             0.5       0.0       0.0       0.0       0.0       0.0
13 O  s               1.8       4.2      31.1       6.8      15.5       0.2
13 O  pz              0.0       0.1       0.3       0.1       0.1       0.0
13 O  px              0.1       0.1       0.3       0.0       0.1       0.0
13 O  py              0.1       0.1       0.8       0.2       0.4       0.0
14 O  s               0.4      20.9       4.6      23.5       9.5       0.7
14 O  pz              0.0       0.4       0.1       0.3       0.1       0.0
14 O  px              0.0       0.1       0.1       0.3       0.1       0.0
14 O  py              0.0       0.7       0.1       0.3       0.1       0.0
14 O  dz2             0.0       0.1       0.0       0.0       0.0       0.0
15 O  s               0.5      27.4      14.4      15.2       0.1       1.9
15 O  pz              0.0       0.3       0.1       0.1       0.0       0.0
15 O  px              0.0       1.1       0.4       0.3       0.0       0.1
15 O  dz2             0.0       0.1       0.0       0.0       0.0       0.0
15 O  dxy             0.0       0.0       0.0       0.0       0.0       0.1
16 O  s               0.1       0.4       1.2       0.1       3.1      54.6
16 O  pz              0.0       0.0       0.0       0.0       0.0       0.5
16 O  px              0.0       0.0       0.1       0.0       0.1       1.8
16 O  py              0.0       0.0       0.0       0.0       0.0       0.2
16 O  dxz             0.0       0.0       0.0       0.0       0.0       0.1
17 H  s               0.0       0.0       0.0       0.0       0.1       0.6
18 H  s               0.0       0.0       0.0       0.0       0.1       0.6
19 H  s               3.6       0.4       0.2       1.3       4.0       0.3
19 H  pz              0.6       0.1       0.0       0.3       0.8       0.1
19 H  py              0.1       0.0       0.0       0.0       0.1       0.0
20 H  s               0.4       0.6       5.1       1.2       2.6       0.0
20 H  px              0.0       0.1       0.5       0.1       0.3       0.0
20 H  py              0.0       0.1       0.6       0.2       0.3       0.0
21 H  s               0.1       3.4       0.9       4.0       1.5       0.1
21 H  px              0.0       0.7       0.2       0.8       0.3       0.0
22 H  s               0.1       4.7       2.2       2.4       0.0       0.4
22 H  py              0.0       0.9       0.5       0.5       0.0       0.1
23 H  s               0.0       0.2       0.3       0.0       0.5       8.9
23 H  py              0.0       0.0       0.0       0.0       0.1       2.0

                     18        19        20        21        22        23   
                  -0.76172  -0.74236  -0.65772  -0.63004  -0.59979  -0.57266
                   2.00000   2.00000   2.00000   2.00000   2.00000   2.00000
                  --------  --------  --------  --------  --------  --------
 0 C  s               1.0       5.7      12.3       0.9       7.9       1.3
 0 C  pz              0.0       0.0       0.1       0.1       0.7       1.5
 0 C  px              0.8       4.1       1.0       0.0       1.0       0.7
 0 C  py              0.1       0.0       0.5       0.9       1.8       0.0
 1 C  s               4.9      12.6       1.5       0.4       3.3       3.4
 1 C  pz              0.1       0.4       0.0       0.2       0.4       5.1
 1 C  px              0.2       1.6       4.7       0.1       1.3       0.4
 1 C  py              3.6       0.1       1.4       5.7       0.5       1.3
 1 C  dyz             0.0       0.0       0.0       0.1       0.0       0.0
 1 C  dxy             0.1       0.0       0.1       0.0       0.0       0.0
 2 H  s               0.8       1.9       0.4       0.3       1.2       3.6
 2 H  pz              0.1       0.2       0.0       0.0       0.1       0.2
 3 C  s              11.6       1.3       3.9       4.9       0.1       3.3
 3 C  pz              0.1       0.0       0.0       0.0       0.1       5.0
 3 C  px              3.1       1.3       1.9       1.3       2.3       1.0
 3 C  py              1.9       2.5       0.4       0.9       3.2       0.1
 3 C  dxy             0.1       0.0       0.0       0.0       0.0       0.0
 4 H  s               1.9       0.2       0.9       1.2       0.1       3.5
 4 H  pz              0.2       0.0       0.1       0.1       0.0       0.2
 5 C  s              12.0       1.7       2.3       3.3       3.8       2.5
 5 C  pz              0.1       0.0       0.0       0.1       0.2       4.6
 5 C  px              0.8       1.0       3.5       2.9       2.4       0.0
 5 C  py              4.9       1.2       0.2       0.2       1.5       0.3
 5 C  dxy             0.0       0.1       0.0       0.1       0.0       0.0
 6 H  s               1.9       0.3       0.5       0.9       1.3       3.1
 6 H  pz              0.2       0.0       0.0       0.1       0.1       0.2
 7 C  s               6.2       7.2       4.2       2.9       3.8       1.5
 7 C  pz              0.0       0.0       0.0       0.3       0.6       4.7
 7 C  px              3.7       2.0       0.0       0.1       0.2       0.1
 7 C  py              0.4       0.5       1.9       5.4       0.0       0.1
 8 H  s               1.0       1.2       1.0       1.0       1.6       2.4
 8 H  pz              0.1       0.1       0.1       0.1       0.1       0.2
 9 C  s               0.2       7.6       4.2       7.0       0.6       0.4
 9 C  pz              0.0       0.0       0.4       2.0       0.3       7.6
 9 C  px              1.0       0.3       1.7       0.2       0.6       1.3
 9 C  py              2.7       1.8       1.7       0.2       2.3       0.1
 9 C  dx2y2           0.1       0.0       0.1       0.0       0.0       0.0
 9 C  dxy             0.0       0.1       0.0       0.0       0.0       0.1
10 H  s               0.0       1.4       1.6       3.4       0.3       2.4
10 H  pz              0.0       0.1       0.1       0.3       0.0       0.1
11 O  s               4.2       0.0       1.8       1.6       0.2       0.6
11 O  pz              0.1       0.0       0.2       0.7       0.0       3.3
11 O  px              0.6      11.3       0.0       4.1       3.7       5.3
11 O  py              1.1       0.3       0.1       0.2       2.2       0.5
11 O  dz2             0.4       0.1       0.1       0.0       0.0       0.1
11 O  dxz             0.0       0.6       0.1       0.4       0.4       0.0
11 O  dyz             0.1       0.0       0.0       0.0       0.1       0.4
11 O  dx2y2           0.1       0.0       1.2       0.0       0.3       0.0
11 O  dxy             0.1       2.5       0.1       0.0       0.1       0.2
12 O  s               0.0       2.6       0.6       1.0       0.2       0.3
12 O  pz              0.0       0.9       2.1       6.3       1.1       4.6
12 O  px              0.1       0.8       0.1       1.0       0.8       0.2
12 O  py              0.0       1.7       2.9       5.1       0.3       0.6
12 O  dz2             0.0       0.3       0.1       0.1       0.0       0.1
12 O  dxz             0.0       0.0       0.1       0.2       0.0       0.3
12 O  dyz             0.0       0.0       0.0       0.1       0.0       0.2
12 O  dx2y2           0.2       0.0       0.3       0.0       0.3       0.0
12 O  dxy             0.0       0.6       0.2       0.3       0.0       0.0
13 O  s               1.6       2.0       1.3       0.1       0.6       0.0
13 O  pz              0.1       0.1       0.2       0.4       0.7       0.8
13 O  px              1.9       2.6       3.1       4.0       4.8       0.2
13 O  py              0.1       0.1       0.1       1.2       0.2       0.0
13 O  dz2             0.1       0.1       0.0       0.0       0.0       0.1
13 O  dxz             0.1       0.2       0.1       0.2       0.3       0.3
13 O  dx2y2           0.4       0.3       0.0       0.5       0.1       0.0
13 O  dxy             0.1       0.3       0.5       0.1       0.2       0.0
14 O  s               3.1       0.6       0.3       1.1       0.3       0.2
14 O  pz              0.1       0.0       0.1       0.2       0.3       1.0
14 O  px              1.1       0.1       1.8       0.3       6.2       0.9
14 O  py              2.6       0.5       1.3       2.6       4.0       1.1
14 O  dz2             0.1       0.0       0.0       0.0       0.0       0.1
14 O  dyz             0.2       0.0       0.1       0.2       0.2       0.4
14 O  dx2y2           0.7       0.2       0.1       0.4       0.1       0.0
14 O  dxy             0.1       0.0       0.3       0.1       0.3       0.0
15 O  s               3.3       0.4       0.9       0.7       0.3       0.2
15 O  pz              0.1       0.0       0.1       0.2       0.0       1.2
15 O  px              1.1       0.1       0.9       0.5       1.0       0.4
15 O  py              2.9       1.0       1.2       7.4       0.6       4.9
15 O  dz2             0.2       0.0       0.0       0.0       0.0       0.1
15 O  dxz             0.1       0.0       0.1       0.1       0.0       0.2
15 O  dyz             0.1       0.0       0.0       0.1       0.0       0.4
15 O  dx2y2           0.0       0.2       0.4       0.0       0.3       0.0
15 O  dxy             0.9       0.2       0.2       0.4       0.0       0.2
16 O  s               0.4       2.0       2.5       0.0       0.6       0.1
16 O  pz              0.0       0.2       0.8       0.1       1.4       0.7
16 O  px              0.2       0.8       2.4       0.0       1.5       0.3
16 O  py              0.1       0.6       3.4       0.5       6.7       1.1
16 O  dxz             0.0       0.1       0.4       0.0       0.4       0.2
16 O  dyz             0.0       0.0       0.1       0.0       0.1       0.0
16 O  dx2y2           0.1       0.3       0.3       0.0       0.0       0.0
16 O  dxy             0.0       0.1       0.4       0.1       0.5       0.0
17 H  s               0.1       1.0       3.5       0.6       3.7       0.4
17 H  py              0.0       0.1       0.3       0.0       0.3       0.0
18 H  s               0.2       1.0       3.0       0.2       2.8       1.2
18 H  pz              0.0       0.1       0.2       0.0       0.2       0.1
19 H  s               0.0       1.0       1.3       3.1       0.4       1.0
19 H  pz              0.0       0.2       0.1       0.3       0.0       0.0
20 H  s               0.7       0.9       0.8       1.3       1.3       0.1
20 H  py              0.1       0.1       0.1       0.1       0.1       0.0
21 H  s               1.3       0.2       0.8       0.7       2.5       0.4
21 H  px              0.3       0.0       0.1       0.1       0.2       0.0
22 H  s               1.4       0.3       0.5       2.0       0.1       1.2
22 H  py              0.2       0.0       0.1       0.2       0.0       0.1
23 H  s               0.1       0.6       1.6       0.1       2.3       0.4
23 H  py              0.0       0.1       0.3       0.0       0.2       0.0

                     24        25        26        27        28        29   
                  -0.53622  -0.52140  -0.49863  -0.48452  -0.47826  -0.46783
                   2.00000   2.00000   2.00000   2.00000   2.00000   2.00000
                  --------  --------  --------  --------  --------  --------
 0 C  s               0.2       0.1       0.0       0.3       0.2       0.2
 0 C  pz              0.2       0.4       2.6       5.7       1.8       1.9
 0 C  px              0.3       0.7       1.3       2.9       4.1       0.6
 0 C  py              0.0       0.0       0.3       0.5       4.0       0.1
 0 C  dxz             0.0       0.0       0.1       0.0       0.1       0.0
 1 C  s               0.1       0.3       1.3       0.3       0.9       0.1
 1 C  pz              3.2       2.2       6.2       6.4       0.4       0.4
 1 C  px              1.0       0.4       4.0       0.7       2.9       0.0
 1 C  py              2.1       1.0       0.0       0.0       2.5       0.8
 1 C  dxy             0.0       0.1       0.0       0.0       0.2       0.0
 2 H  s               0.7       1.2       4.1       2.9       0.2       0.3
 2 H  pz              0.0       0.1       0.2       0.1       0.0       0.0
 3 C  s               0.1       0.3       1.3       0.8       0.2       0.1
 3 C  pz              6.2       1.2       3.1       1.8       4.1       1.3
 3 C  px              3.1       2.2       1.3       1.1       0.7       1.6
 3 C  py              0.1       1.1       0.4       0.2       5.0       1.0
 3 C  dxy             0.0       0.0       0.0       0.0       0.2       0.0
 4 H  s               1.9       0.5       2.6       1.6       1.4       0.2
 4 H  pz              0.1       0.0       0.1       0.1       0.0       0.0
 5 C  s               0.3       0.0       0.1       1.5       0.0       0.6
 5 C  pz              7.4       0.1       2.0       6.4       1.3       0.4
 5 C  px              1.3       1.0       0.0       0.5       1.2       0.0
 5 C  py              0.4       1.8       5.4       0.0       0.1       2.7
 5 C  dyz             0.0       0.0       0.1       0.0       0.0       0.2
 5 C  dx2y2           0.0       0.0       0.1       0.0       0.0       0.2
 6 H  s               2.6       0.0       0.6       4.3       0.3       0.7
 6 H  pz              0.1       0.0       0.0       0.2       0.0       0.0
 7 C  s               0.2       0.1       0.5       0.0       0.3       0.0
 7 C  pz              3.8       0.4       7.7       0.1       0.0       5.2
 7 C  px              0.1       4.9       0.6       2.1       0.4       0.1
 7 C  py              3.0       4.6       0.5       1.6       3.0       2.8
 7 C  dxz             0.0       0.1       0.0       0.1       0.0       0.0
 8 H  s               1.5       0.1       3.6       0.0       0.2       1.4
 8 H  pz              0.1       0.0       0.2       0.0       0.0       0.0
 9 C  s               0.0       0.2       0.0       0.0       0.2       1.1
 9 C  pz              0.2       1.0       4.0       3.0       0.0       6.5
 9 C  px              5.8       2.3       0.1       1.4       3.0       1.0
 9 C  py              0.5       6.5       0.3       0.9       2.2       8.5
 9 C  dz2             0.0       0.0       0.0       0.0       0.0       0.1
 9 C  dxy             0.1       0.1       0.1       0.0       0.0       0.2
10 H  s               0.0       0.0       1.1       1.0       0.1       5.1
10 H  pz              0.0       0.0       0.0       0.0       0.0       0.2
11 O  s               0.0       1.8       0.0       0.4       0.9       0.3
11 O  pz              0.9       0.4       0.1       6.1       0.0       1.7
11 O  px              8.6       3.1       2.3       0.3       8.2       0.2
11 O  py              1.5       3.4       1.2       0.0       0.2       0.8
11 O  dz2             0.1       0.0       0.0       0.3       0.1       0.1
11 O  dxz             0.0       0.2       0.8       0.0       0.1       0.4
[...]
12 O  dxy             2.1       0.1       4.7       0.2       0.0       0.0
13 O  s               0.0       0.7       0.0       4.5       1.8       0.0
13 O  px              0.0       2.7       0.2       9.1       1.2       0.0
13 O  py              0.0       1.5       0.0       6.0       1.0       0.0
13 O  dz2             0.0       0.8       0.0       3.9       0.8       0.0
13 O  dxz             0.0       0.5       0.1       1.6       0.2       0.0
13 O  dyz             0.0       0.1       0.0       0.3       0.1       0.0
13 O  dx2y2           0.0       0.9       0.1       3.1       0.4       0.0
13 O  dxy             0.1       4.4       0.1      17.5       3.3       0.0
14 O  s               0.1       1.7       0.0       0.1       4.4       0.2
14 O  pz              0.0       0.1       0.0       0.0       0.1       0.0
14 O  px              0.0       6.4       0.1       0.0      10.5       0.1
14 O  py              0.0       1.9       0.1       0.0       2.4       0.0
14 O  dz2             0.0       1.2       0.0       0.0       2.3       0.1
14 O  dxz             0.0       2.3       0.0       0.0       3.8       0.1
14 O  dyz             0.0       0.7       0.0       0.0       1.1       0.0
14 O  dx2y2           0.0       9.5       0.1       0.0      14.5       0.3
14 O  dxy             0.0       0.6       0.0       0.0       1.4       0.1
15 O  s               0.2       2.6       0.3       1.3       1.1       1.1
15 O  px              0.1       0.0       0.0       0.0       0.1       0.0
15 O  py              0.0       8.5       1.0       5.3       4.3       2.5
15 O  dz2             0.0       1.3       0.2       0.7       0.7       0.7
15 O  dyz             0.0       2.4       0.3       1.5       1.1       0.6
15 O  dx2y2           0.0       5.7       0.6       3.3       2.9       1.2
15 O  dxy             0.0       6.3       0.7       3.5       2.5       2.3
16 O  s               0.2       0.4       0.0       0.4       0.5       5.7
16 O  pz              0.1       0.0       0.0       0.0       0.0       0.3
16 O  px              0.1       0.0       0.0       0.0       0.0       0.3
16 O  py              0.0       0.6       0.0       0.7       1.3      16.9
16 O  dz2             0.0       0.3       0.0       0.3       0.5       6.0
16 O  dxz             0.2       0.0       0.0       0.0       0.0       0.5
16 O  dyz             0.0       0.0       0.0       0.0       0.0       0.3
16 O  dx2y2           0.0       0.7       0.0       1.0       1.8      23.4
16 O  dxy             0.0       0.2       0.0       0.2       0.3       3.6
17 H  s               0.0       0.0       0.0       0.0       0.0       0.2
17 H  py              0.0       0.0       0.0       0.0       0.0       0.2
19 H  s               1.3       0.3      11.0       0.4       0.0       0.0
19 H  pz              1.9       0.3      11.2       0.3       0.0       0.0
19 H  px              0.2       0.0       1.0       0.0       0.0       0.0
19 H  py              0.4       0.0       1.3       0.1       0.0       0.0
20 H  s               0.0       2.3       0.0       9.2       1.7       0.0
20 H  pz              0.0       0.1       0.0       0.1       0.0       0.0
20 H  px              0.0       1.0       0.0       4.3       0.8       0.0
20 H  py              0.0       1.6       0.0       6.5       1.2       0.0
21 H  s               0.0       4.9       0.1       0.0       8.1       0.2
21 H  pz              0.0       0.4       0.0       0.0       0.6       0.0
21 H  px              0.0       5.0       0.1       0.0       8.5       0.2
21 H  py              0.0       0.4       0.0       0.0       0.5       0.0
22 H  s               0.0       5.3       0.6       3.1       2.5       1.5
22 H  pz              0.0       0.2       0.0       0.2       0.2       0.1
22 H  px              0.0       0.4       0.1       0.3       0.3       0.3
22 H  py              0.0       5.6       0.6       3.2       2.6       1.6
23 H  s               0.1       0.4       0.0       0.5       0.9      11.3
23 H  px              0.0       0.0       0.0       0.0       0.0       0.3
23 H  py              0.0       0.4       0.0       0.5       1.0      13.4

                    306       307       308       309       310       311   
                  22.04485  22.12805  22.16388  22.17378  22.22881  22.27407
                   0.00000   0.00000   0.00000   0.00000   0.00000   0.00000
                  --------  --------  --------  --------  --------  --------
 0 C  s              71.9       2.6       7.0      10.9       7.2       0.0
 1 C  s               2.9      56.7       5.5       3.6      28.7       2.3
 3 C  s              11.5       5.5       4.1      27.7      10.2      40.7
 5 C  s               0.7      10.2      61.0      10.8      10.4       6.6
 7 C  s               1.6      24.6       1.9      41.1      29.4       1.0
 9 C  s              11.2       0.0      20.0       5.7      13.6      49.0

                    312       313       314       315       316       317   
                  43.66039  43.71216  43.72659  43.79961  43.82651  43.87608
                   0.00000   0.00000   0.00000   0.00000   0.00000   0.00000
                  --------  --------  --------  --------  --------  --------
 3 C  s               0.0       0.0       0.0       0.0       0.1       0.0
11 O  s               0.8       3.6       0.0       0.2       0.0      95.2
12 O  s              18.5      70.8       2.3       1.8       4.7       1.8
13 O  s               7.3       0.1      28.1      54.4       9.6       0.3
14 O  s               6.2      17.1      38.4      11.6      26.0       0.5
15 O  s              24.2       2.0       0.0      24.1      49.2       0.3
16 O  s              42.9       6.4      31.1       7.6      10.2       1.8



                      *****************************
                      * MAYER POPULATION ANALYSIS *
                      *****************************

  NA   - Mulliken gross atomic population
  ZA   - Total nuclear charge
  QA   - Mulliken gross atomic charge
  VA   - Mayer's total valence
  BVA  - Mayer's bonded valence
  FA   - Mayer's free valence

  ATOM       NA         ZA         QA         VA         BVA        FA
  0 C      6.2410     6.0000    -0.2410     4.0184     4.0184     0.0000
  1 C      6.1080     6.0000    -0.1080     3.4578     3.4578     0.0000
  2 H      0.8129     1.0000     0.1871     0.9440     0.9440     0.0000
  3 C      6.0065     6.0000    -0.0065     3.6106     3.6106    -0.0000
  4 H      0.8300     1.0000     0.1700     0.9504     0.9504    -0.0000
  5 C      6.0250     6.0000    -0.0250     3.6475     3.6475    -0.0000
  6 H      0.8297     1.0000     0.1703     0.9522     0.9522     0.0000
  7 C      5.8883     6.0000     0.1117     3.4134     3.4134     0.0000
  8 H      0.8364     1.0000     0.1636     0.9583     0.9583     0.0000
  9 C      6.1416     6.0000    -0.1416     3.8800     3.8800    -0.0000
 10 H      0.8410     1.0000     0.1590     0.9515     0.9515    -0.0000
 11 O      8.1975     8.0000    -0.1975     1.7395     1.7395     0.0000
 12 O      8.3853     8.0000    -0.3853     1.8939     1.8939     0.0000
 13 O      8.4441     8.0000    -0.4441     1.8351     1.8351     0.0000
 14 O      8.4463     8.0000    -0.4463     1.8402     1.8402     0.0000
 15 O      8.4340     8.0000    -0.4340     1.8417     1.8417     0.0000
 16 O      8.4142     8.0000    -0.4142     1.8354     1.8354    -0.0000
 17 H      0.8488     1.0000     0.1512     0.9519     0.9519    -0.0000
 18 H      0.8651     1.0000     0.1349     0.9557     0.9557     0.0000
 19 H      0.6716     1.0000     0.3284     0.8946     0.8946     0.0000
 20 H      0.6880     1.0000     0.3120     0.9115     0.9115     0.0000
 21 H      0.6834     1.0000     0.3166     0.9062     0.9062     0.0000
 22 H      0.6812     1.0000     0.3188     0.9070     0.9070    -0.0000
 23 H      0.6800     1.0000     0.3200     0.9129     0.9129     0.0000

  Mayer bond orders larger than 0.100000
B(  0-C ,  1-C ) :   0.9242 B(  0-C , 16-O ) :   1.0136 B(  0-C , 17-H ) :   0.9730 
B(  0-C , 18-H ) :   0.9860 B(  1-C ,  2-H ) :   0.9559 B(  1-C ,  3-C ) :   0.8265 
B(  1-C , 11-O ) :   0.7886 B(  3-C ,  4-H ) :   0.9595 B(  3-C ,  5-C ) :   0.8661 
B(  3-C , 15-O ) :   0.8781 B(  5-C ,  6-H ) :   0.9896 B(  5-C ,  7-C ) :   0.8604 
B(  5-C , 14-O ) :   0.9140 B(  7-C ,  8-H ) :   0.9506 B(  7-C ,  9-C ) :   0.7625 
B(  7-C , 13-O ) :   0.8938 B(  9-C , 10-H ) :   1.0106 B(  9-C , 11-O ) :   0.9486 
B(  9-C , 12-O ) :   1.0974 B( 12-O , 19-H ) :   0.8675 B( 13-O , 20-H ) :   0.8757 
B( 14-O , 21-H ) :   0.8786 B( 15-O , 22-H ) :   0.8739 B( 16-O , 23-H ) :   0.8498 


-------
TIMINGS
-------

Total SCF time: 0 days 0 hours 0 min 45 sec 

Total time                  ....      45.930 sec
Sum of individual times     ....      45.364 sec  ( 98.8%)

SCF preparation             ....       0.208 sec  (  0.5%)
Fock matrix formation       ....      43.681 sec  ( 95.1%)
  Startup                   ....       0.066 sec  (  0.2% of F)
  Split-RI-J                ....       9.499 sec  ( 21.7% of F)
  XC integration            ....      33.429 sec  ( 76.5% of F)
    Basis function eval.    ....       4.940 sec  ( 14.8% of XC)
    Density eval.           ....      13.006 sec  ( 38.9% of XC)
    XC-Functional eval.     ....       2.525 sec  (  7.6% of XC)
    XC-Potential eval.      ....      11.913 sec  ( 35.6% of XC)
Diagonalization             ....       0.000 sec  (  0.0%)
Density matrix formation    ....       0.329 sec  (  0.7%)
Total Energy calculation    ....       0.055 sec  (  0.1%)
Population analysis         ....       0.192 sec  (  0.4%)
Orbital Transformation      ....       0.105 sec  (  0.2%)
Orbital Orthonormalization  ....       0.000 sec  (  0.0%)
DIIS solution               ....       0.714 sec  (  1.6%)
  MO trafo                  ....       0.000 sec  (  0.0 % of DIIS)
  Orb grad                  ....       0.000 sec  (  0.0 % of DIIS)
  Energy W gradient         ....       0.000 sec  (  0.0 % of DIIS)
  DIIS error                ....       0.033 sec  (  4.7 % of DIIS)
  DIIS work                 ....       0.585 sec  ( 82.0 % of DIIS)
  Form Q                    ....       0.000 sec  (  0.0 % of DIIS)
  Form QpQm                 ....       0.000 sec  (  0.0 % of DIIS)
  Exp/Cayley                ....       0.000 sec  (  0.0 % of DIIS)
  Orb update                ....       0.000 sec  (  0.0 % of DIIS)
  Wake-sleep                ....       0.038 sec  (  5.3 % of DIIS)
SOSCF solution              ....       0.079 sec  (  0.2%)
  MO trafo                  ....       0.060 sec  ( 76.2 % of SOSCF)
  Orb grad                  ....       0.001 sec  (  0.7 % of SOSCF)
  Rot update                ....       0.000 sec  (  0.1 % of SOSCF)
  Step                      ....       0.018 sec  ( 22.9 % of SOSCF)
Finished LeanSCF after  46.0 sec

Maximum memory used throughout the entire LEANSCF-calculation: 37.7 MB


-------------------------------------------------------------------------------
                          DFT DISPERSION CORRECTION                            
                                                                               
                                DFTD4 V3.4.0                                   
-------------------------------------------------------------------------------
The R2SCAN3C composite method is recognized
Using three-body term ABC
Active option DFTDOPT                   ...         5   

-------------------------   ----------------
Dispersion correction           -0.008013184
-------------------------   ----------------

------------------   -----------------
gCP correction             0.019876352
------------------   -----------------

-------------------------   --------------------
FINAL SINGLE POINT ENERGY      -687.079103026335
-------------------------   --------------------


------------------------------------------------------------------------------
                              ORCA PROPERTY CALCULATIONS
------------------------------------------------------------------------------

GBWName                                 ... sp_gas.gbw
Number of atoms                         ...     24
Number of basis functions               ...    318
Max core memory                         ...   1024 MB

Electric properties:
Dipole moment                           ... YES
Quadrupole moment                       ...  NO
Static polarizability (Dipole/Dipole)   ...  NO
Static polarizability (Dipole/Quad.)    ...  NO
Static polarizability (Quad./Quad.)     ...  NO
Static polarizability (Velocity)        ...  NO

Atomic electric properties:
Dipole moment                           ...  NO
Quadrupole moment                       ...  NO
Static polarizability                   ...  NO

Choice of electric origin               ... Center of mass
Position of electric origin             ...    -0.000003    -0.000002    -0.000002

General magnetic properties:
Magnetizability                         ...  NO

EPR properties:
g-Tensor (aka g-matrix)                 ...  NO
Zero-Field splitting spin-orbit         ...  NO
Zero-field splitting spin-spin          ...  NO
Hyperfine couplings                     ...  NO (   0 nuclei)
Quadrupole couplings                    ...  NO (   0 nuclei)
Contact density                         ...  NO (   0 nuclei)

NMR properties:
Chemical shifts                         ...  NO (   0 nuclei)
Spin-rotation constants                 ...  NO (   0 nuclei)
Spin-spin couplings                     ...  NO (   0 nuclei,    0 pairs)

Choice of magnetic origin               ... GIAO
Position of magnetic origin             ...     0.000000     0.000000     0.000000

Properties with geometric perturbations:
SCF Hessian                             ...  NO
IR spectrum                             ...  NO
VCD spectrum                            ...  NO
X-ray spectroscopy properties:
SCF XES/XAS/RIXS spectra                ...  NO


-------------
DIPOLE MOMENT
-------------

Method             : SCF
Type of density    : Electron Density
Multiplicity       :   1
Irrep              :   0
Energy             :  -687.0909661950288410 Eh
Relativity type    : 
Basis              : AO
                                X                 Y                 Z
Electronic contribution:      1.811923495      -0.111266790       0.331539597
Nuclear contribution   :     -0.839222978       0.424619449      -0.816145544
                        -----------------------------------------
Total Dipole Moment    :      0.972700516       0.313352659      -0.484605947
                        -----------------------------------------
Magnitude (a.u.)       :      1.131008005
Magnitude (Debye)      :      2.874793885



--------------------
Rotational spectrum 
--------------------
 
Rotational constants in cm-1:             0.043618             0.024527             0.016441 
Rotational constants in MHz :          1307.620974           735.305589           492.898735 

Dipole components along the rotational axes: 
x,y,z [a.u.] :     0.973051     0.311742    -0.484941 
x,y,z [Debye]:     2.473298     0.792386    -1.232623 

 

Dipole moment calculation done in   0.0 sec 

Maximum memory used throughout the entire PROP-calculation: 24.2 MB

--------------------------------
SUGGESTED CITATIONS FOR THIS RUN
--------------------------------

Below you find a list of papers that are relevant to this ORCA run
We neither can nor want to force you to cite these papers, but we appreciate if you do
You receive ORCA, which is the product of decades of hard work by many enthusiastic individuals, for free
The only thing we kindly ask in return is that you cite our papers,
We deeply appreciate it, if you show your appreciation for ORCA by not just citing the generic ORCA reference.

Please note that relegating all ORCA citations to the supporting information does *not* help us.
SI sections are not indexed - citations you put there will not count into any citation statistics
But we need these citations in order to attract the funding resources that allow us to do what we are doing

Therefore, if you are a happy ORCA user, please consider citing a few of the papers listed below in the main body of your paper

In addition to the list printed below, the program has created the file sp_gas.bibtex that contains the list in bibtex format
You can import this file easily into all common literature databanks and citation aid programs


List of essential papers. We consider these as the minimum necessary citations

  1. Neese,F.
     Software update: the ORCA program system, version 5.0
     WIRES Comput. Molec. Sci., 2022 12(1)e1606
     doi.org/10.1002/wcms.1606
  2. Grimme,S.; Hansen,A.; Ehlert,S.; Mewes,J.
     r2SCAN-3c: A 'Swiss army knife' composite electronic-structure method
     J. Chem. Phys., 2021 154 064103
     doi.org/10.1063/5.0040021

List of papers to cite with high priority. The work reported in these papers was absolutely
necessary for this run to complete.
Our perspective: the developers of density functionals and basis sets usually get cited in chemistry papers
Good! But without the algorithms to do something with them, the functionals or basis sets would not do anything.
Hence, in our opinion, the algorithm design and method developments papers are equally worthy of getting cited

  1. Neese,F.
     An improvement of the resolution of the identity approximation for the formation of the Coulomb matrix
     J. Comp. Chem., 2003 24(14)1740-1747
     doi.org/10.1002/jcc.10318
  2. Neese,F.
     The SHARK Integral Generation and Digestion System
     J. Comp. Chem., 2022  1-16
     doi.org/10.1002/jcc.26942
  3. Lehtola,S.; Steigemann,C.; Oliveira,M.; Marques,M.
     Recent developments in Libxc - A comprehensive library of functionals for density functional theory
     Software X, 2018 7 
     doi.org/10.1016/j.softx.2017.11.002
  4. Caldeweyher,E.; Bannwarth,C.; Grimme,S.
     Extension of the D3 dispersion coefficient model
     J. Chem. Phys., 2017 147 034112-XXXX
     doi.org/10.1063/1.4993215
  5. Caldeweyher,E.; Ehlert,S.; Hansen,A.; Neugebauer,H.; Spicher,S.; Bannwarth,C.; Grimme,S.
     A generally applicable atomic-charge dependent London dispersion correction
     J. Chem. Phys., 2019 150 154122-XXXX
     doi.org/10.1063/1.5090222
  6. Caldeweyher,E.; Mewes,J.; Ehlert,S.; Grimme,S.
     Extension and evaluation of the D4 London-dispersion model for periodic systems
     Phys. Chem. Chem. Phys., 2020 22(16)8499-8512
     doi.org/10.1039/D0CP00502A

List of suggested additional citations. These are papers that are important in the 'surrounding' of 
of this run, or papers that preceded the highly important papers. If you like your results we are grateful for a citation.

  1. Neese,F.
     The ORCA program system
     WIRES Comput. Molec. Sci., 2012 2(1)73-78
     doi.org/10.1002/wcms.81
  2. Neese,F.
     Software update: the ORCA program system, version 4.0
     WIRES Comput. Molec. Sci., 2018 8(1)1-6
     doi.org/10.1002/wcms.1327
  3. Neese,F.; Wennmohs,F.; Becker,U.; Riplinger,C.
     The ORCA quantum chemistry program package
     J. Chem. Phys., 2020 152 Art. No. L224108
     doi.org/10.1063/5.0004608

List of optional additional citations

  1. Neese,F.
     Approximate second-order SCF convergence for spin unrestricted wavefunctions
     Chem. Phys. Lett., 2000 325(1-3)93-98
     doi.org/10.1016/s0009-2614(00)00662-x

Timings for individual modules:

Sum of individual times          ...       48.342 sec (=   0.806 min)
Startup calculation              ...        1.771 sec (=   0.030 min)   3.7 %
SCF iterations                   ...       46.450 sec (=   0.774 min)  96.1 %
Property calculations            ...        0.121 sec (=   0.002 min)   0.3 %
                             ****ORCA TERMINATED NORMALLY****
TOTAL RUN TIME: 0 days 0 hours 0 minutes 49 seconds 179 msec
