
                                 *****************
                                 * O   R   C   A *
                                 *****************

                                            #,                                       
                                            ###                                      
                                            ####                                     
                                            #####                                    
                                            ######                                   
                                           ########,                                 
                                     ,,################,,,,,                         
                               ,,#################################,,                 
                          ,,##########################################,,             
                       ,#########################################, ''#####,          
                    ,#############################################,,   '####,        
                  ,##################################################,,,,####,       
                ,###########''''           ''''###############################       
              ,#####''   ,,,,##########,,,,          '''####'''          '####       
            ,##' ,,,,###########################,,,                        '##       
           ' ,,###''''                  '''############,,,                           
         ,,##''                                '''############,,,,        ,,,,,,###''
      ,#''                                            '''#######################'''  
     '                                                          ''''####''''         
             ,#######,   #######,   ,#######,      ##                                
            ,#'     '#,  ##    ##  ,#'     '#,    #''#        ,####,   ,####,        
            ##       ##  ##   ,#'  ##            #'  '#       #'       #'  '#        
            ##       ##  #######   ##           ,######,      #####,   #    #        
            '#,     ,#'  ##    ##  '#,     ,#' ,#      #,     #,   #   #,  ,#        
             '#######'   ##     ##  '#######'  #'      '#     '####' # '####'        



                #########################################################
                #                        -***-                          #
                #          Department of theory and spectroscopy        #
                #                                                       #
                #                      Frank Neese                      #
                #                                                       #
                #     Directorship, Architecture, Infrastructure        #
                #                    SHARK, DRIVERS                     #
                #        Core code/Algorithms in most modules           #
                #                                                       #
                #        Max Planck Institute fuer Kohlenforschung      #
                #                Kaiser Wilhelm Platz 1                 #
                #                 D-45470 Muelheim/Ruhr                 #
                #                      Germany                          #
                #                                                       #
                #                  All rights reserved                  #
                #                        -***-                          #
                #########################################################


                         Program Version 6.0.0  -   RELEASE  -


 With contributions from (in alphabetic order):
   Daniel Aravena         : Magnetic Suceptibility
   Michael Atanasov       : Ab Initio Ligand Field Theory (pilot matlab implementation)
   Alexander A. Auer      : GIAO ZORA, VPT2 properties, NMR spectrum
   Ute Becker             : All parallelization in ORCA, NUMFREQ, NUMCALC
   Giovanni Bistoni       : ED, misc. LED, open-shell LED, HFLD
   Martin Brehm           : Molecular dynamics
   Dmytro Bykov           : pre 5.0 version of the SCF Hessian
   Marcos Casanova-Páez   : Triplet and SCS-CIS(D). UHF-(DLPNO)-IP/EA/STEOM-CCSD. UHF-CVS-IP/STEOM-CCSD
   Vijay G. Chilkuri      : MRCI spin determinant printing, contributions to CSF-ICE
   Pauline Colinet        : FMM embedding
   Dipayan Datta          : RHF DLPNO-CCSD density
   Achintya Kumar Dutta   : EOM-CC, STEOM-CC
   Nicolas Foglia         : Exact transition moments, OPA infrastructure, MCD improvements
   Dmitry Ganyushin       : Spin-Orbit,Spin-Spin,Magnetic field MRCI
   Miquel Garcia          : C-PCM and meta-GGA Hessian, CCSD/C-PCM, Gaussian charge scheme
   Tiago L. C. Gouveia    : GS-ROHF, GS-ROCIS
   Yang Guo               : DLPNO-NEVPT2, F12-NEVPT2, CIM, IAO-localization
   Andreas Hansen         : Spin unrestricted coupled pair/coupled cluster methods
   Ingolf Harden          : AUTO-CI MPn and infrastructure 
   Benjamin Helmich-Paris : MC-RPA, TRAH-(SCF,CASSCF), AVAS, COSX integrals, SCF dyn. polar.
   Lee Huntington         : MR-EOM, pCC
   Robert Izsak           : Overlap fitted RIJCOSX, COSX-SCS-MP3, EOM
   Riya Kayal             : Wick's Theorem for AUTO-CI, AUTO-CI UHF-CCSDT
   Emily Kempfer          : AUTO-CI, RHF CISDT and CCSDT
   Christian Kollmar      : KDIIS, OOCD, Brueckner-CCSD(T), CCSD density, CASPT2, CASPT2-K, improved NEVPT2
   Axel Koslowski         : Symmetry handling
   Simone Kossmann        : Meta GGA functionals, TD-DFT gradient, OOMP2, (MP2 Hessian; deprecated post 5.0)
   Lucas Lang             : DCDCAS
   Marvin Lechner         : AUTO-CI (C++ implementation), FIC-MRCC
   Spencer Leger          : CASSCF response
   Dagmar Lenk            : GEPOL surface, SMD, ORCA-2-JSON
   Dimitrios Liakos       : Extrapolation schemes; Compound Job, initial MDCI parallelization
   Dimitrios Manganas     : Further ROCIS development; embedding schemes. LFT, Crystal Embedding
   Dimitrios Pantazis     : SARC Basis sets
   Anastasios Papadopoulos: AUTO-CI, single reference methods and gradients
   Taras Petrenko         : pre 6.0 DFT Hessian and TD-DFT gradient, (ASA, deprecated), ECA, 1-Electron XAS/XES, NRVS
   Peter Pinski           : DLPNO-MP2, DLPNO-MP2 Gradient
   Christoph Reimann      : Effective Core Potentials
   Marius Retegan         : Local ZFS, SOC
   Christoph Riplinger    : Optimizer, TS searches, QM/MM, DLPNO-CCSD(T), (RO)-DLPNO pert. Triples
   Michael Roemelt        : Original ROCIS implementation
   Masaaki Saitow         : Open-shell DLPNO-CCSD energy and density
   Barbara Sandhoefer     : DKH picture change effects
   Kantharuban Sivalingam : CASSCF convergence/infrastructure, NEVPT2 and variants, FIC-MRCI
   Bernardo de Souza      : ESD, SOC TD-DFT
   Georgi Stoychev        : AutoAux, RI-MP2 NMR, DLPNO-MP2 response, X2C
   Van Anh Tran           : RI-MP2 g-tensors
   Willem Van den Heuvel  : Paramagnetic NMR
   Zikuan Wang            : NOTCH, Electric field optimization 
   Frank Wennmohs         : Technical directorship and infrastructure
   Hang Xu                : AUTO-CI-Response properties 


 We gratefully acknowledge several colleagues who have allowed us to
 interface, adapt or use parts of their codes:
   Stefan Grimme, W. Hujo, H. Kruse, P. Pracht,  : VdW corrections, initial TS optimization,
                  C. Bannwarth, S. Ehlert,         DFT functionals, gCP, sTDA/sTD-DF
                  L. Wittmann, M. Mueller
   Ed Valeev, F. Pavosevic, A. Kumar             : LibInt (2-el integral package), F12 methods
   Garnet Chan, S. Sharma, J. Yang, R. Olivares  : DMRG
   Ulf Ekstrom                                   : XCFun DFT Library
   Mihaly Kallay                                 : mrcc  (arbitrary order and MRCC methods)
   Frank Weinhold                                : gennbo (NPA and NBO analysis)
   Simon Mueller                                 : openCOSMO-RS
   Christopher J. Cramer and Donald G. Truhlar   : smd solvation model
   Lars Goerigk                                  : TD-DFT with DH, B97 family of functionals
   V. Asgeirsson, H. Jonsson                     : NEB implementation
   FAccTs GmbH                                   : IRC, NEB, NEB-TS, DLPNO-Multilevel, CI-OPT
                                                   MM, QMMM, 2- and 3-layer-ONIOM, Crystal-QMMM,
                                                   LR-CPCM, SF, NACMEs, symmetry and pop. for TD-DFT,
                                                   nearIR, NL-DFT gradient (VV10), updates on ESD,
                                                   ML-optimized integration grids, MBIS, APM,
                                                   GOAT, DOCKER, SOLVATOR, interface openCOSMO-RS
   S Lehtola, MJT Oliveira, MAL Marques          : LibXC Library
   Liviu Ungur et al                             : ANISO software


 Your calculation uses the libint2 library for the computation of 2-el integrals
 For citations please refer to: http://libint.valeyev.net

 Your ORCA version has been built with support for libXC version: 6.2.2
 For citations please refer to: https://libxc.gitlab.io

 This ORCA versions uses:
   CBLAS   interface :  Fast vector & matrix operations
   LAPACKE interface :  Fast linear algebra routines
   SCALAPACK package :  Parallel linear algebra routines
   Shared memory     :  Shared parallel matrices
   BLAS/LAPACK       :  OpenBLAS 0.3.27  USE64BITINT DYNAMIC_ARCH NO_AFFINITY SkylakeX SINGLE_THREADED
        Core in use  :  SkylakeX
   Copyright (c) 2011-2014, The OpenBLAS Project


Your calculation utilizes the geometrical counterpoise correction gCP
Please cite in your paper:
H.Kruse, S. Grimme J.Chem.Phys., 136, (2012), 154101 
   

Your calculation utilizes the atom-pairwise dispersion correction
based on EEQ partial charges (D4)


Your calculation utilizes the SMD solvation module
Please cite in your paper:
A.V. Marenich, C.J. Cramer, D.G. Truhlar J. Phys. Chem. B, 113, (2009), 6378 

================================================================================

----- Orbital basis set information -----
Your calculation utilizes the basis: def2-mTZVPP
   Stefan Grimme, Andreas Hansen, Sebastian Ehlert, and Jan-Michael Mewes 
   J. Chem. Phys. 154, 064103 (2021). DOI: 10.1063/5.0040021

----- AuxJ basis set information -----
Your calculation utilizes the auxiliary basis: def2/J
   F. Weigend, Phys. Chem. Chem. Phys. 8, 1057 (2006).

================================================================================
                                        WARNINGS
                       Please study these warnings very carefully!
================================================================================

Using LibXC functional ID 497 : Re-regularized SCAN exchange by Furness et al
[ 1]  J. W. Furness, A. D. Kaplan, J. Ning, J. P. Perdew, and J. Sun.,  J. Phys. Chem. Lett. 11, 8208-8215 (2020)
[ 2]  J. W. Furness, A. D. Kaplan, J. Ning, J. P. Perdew, and J. Sun.,  J. Phys. Chem. Lett. 11, 9248-9248 (2020)
Using LibXC functional ID 498 : Re-regularized SCAN correlation by Furness et al
[ 1]  J. W. Furness, A. D. Kaplan, J. Ning, J. P. Perdew, and J. Sun.,  J. Phys. Chem. Lett. 11, 8208-8215 (2020)
[ 2]  J. W. Furness, A. D. Kaplan, J. Ning, J. P. Perdew, and J. Sun.,  J. Phys. Chem. Lett. 11, 9248-9248 (2020)
Using LibXC functional ID 497 : Re-regularized SCAN exchange by Furness et al
[ 1]  J. W. Furness, A. D. Kaplan, J. Ning, J. P. Perdew, and J. Sun.,  J. Phys. Chem. Lett. 11, 8208-8215 (2020)
[ 2]  J. W. Furness, A. D. Kaplan, J. Ning, J. P. Perdew, and J. Sun.,  J. Phys. Chem. Lett. 11, 9248-9248 (2020)
Using LibXC functional ID 498 : Re-regularized SCAN correlation by Furness et al
[ 1]  J. W. Furness, A. D. Kaplan, J. Ning, J. P. Perdew, and J. Sun.,  J. Phys. Chem. Lett. 11, 8208-8215 (2020)
[ 2]  J. W. Furness, A. D. Kaplan, J. Ning, J. P. Perdew, and J. Sun.,  J. Phys. Chem. Lett. 11, 9248-9248 (2020)

================================================================================
                                       INPUT FILE
================================================================================
NAME = sp_solv.inp
|  1> ! r2scan-3c def2/J RI DEFGRID2 scfconv6 printgap
|  2> %output
|  3>     printlevel normal
|  4> end
|  5> %cpcm
|  6>     smd true
|  7>     smdsolvent "water"
|  8> end
|  9> * xyz 0 1
| 10> C -0.4879035365 0.4462932721 -0.0007107693
| 11> C 0.4879012439 -0.4462599249 -0.0005235021
| 12> Cl 2.1375159226 0.0413049548 0.0002039902
| 13> Cl -2.1375131809 -0.0413170318 0.000215464
| 14> H -0.337915908 1.5133391714 0.0003116455
| 15> H 0.3378467895 -1.5133117469 -0.000357657
| 16> *
| 17> 
| 18>                          ****END OF INPUT****
================================================================================

                       ****************************
                       * Single Point Calculation *
                       ****************************

---------------------------------
CARTESIAN COORDINATES (ANGSTROEM)
---------------------------------
  C     -0.487904    0.446293   -0.000711
  C      0.487901   -0.446260   -0.000524
  Cl     2.137516    0.041305    0.000204
  Cl    -2.137513   -0.041317    0.000215
  H     -0.337916    1.513339    0.000312
  H      0.337847   -1.513312   -0.000358

----------------------------
CARTESIAN COORDINATES (A.U.)
----------------------------
  NO LB      ZA    FRAG     MASS         X           Y           Z
   0 C     6.0000    0    12.011   -0.922004    0.843372   -0.001343
   1 C     6.0000    0    12.011    0.922000   -0.843309   -0.000989
   2 Cl   17.0000    0    35.453    4.039320    0.078055    0.000385
   3 Cl   17.0000    0    35.453   -4.039315   -0.078078    0.000407
   4 H     1.0000    0     1.008   -0.638569    2.859797    0.000589
   5 H     1.0000    0     1.008    0.638438   -2.859745   -0.000676

--------------------------------
INTERNAL COORDINATES (ANGSTROEM)
--------------------------------
 C      0   0   0     0.000000000000     0.00000000     0.00000000
 C      1   0   0     1.322439493510     0.00000000     0.00000000
 Cl     2   1   0     1.720159477881   121.08561391     0.00000000
 Cl     1   2   3     1.720167621273   121.08410440   180.06431843
 H      1   2   3     1.077536210644   124.44736599   359.95191292
 H      2   1   3     1.077550907207   124.44391921   179.97146827

---------------------------
INTERNAL COORDINATES (A.U.)
---------------------------
 C      0   0   0     0.000000000000     0.00000000     0.00000000
 C      1   0   0     2.499048471416     0.00000000     0.00000000
 Cl     2   1   0     3.250630319864   121.08561391     0.00000000
 Cl     1   2   3     3.250645708644   121.08410440   180.06431843
 H      1   2   3     2.036248337500   124.44736599   359.95191292
 H      2   1   3     2.036276109980   124.44391921   179.97146827

---------------------
BASIS SET INFORMATION
---------------------
There are 3 groups of distinct atoms

 Group   1 Type C   : 11s6p1d contracted to 5s3p1d pattern {62111/411/1}
 Group   2 Type Cl  : 14s9p2d contracted to 5s4p2d pattern {73211/6111/11}
 Group   3 Type H   : 4s1p contracted to 2s1p pattern {31/1}

Atom   0C    basis set group =>   1
Atom   1C    basis set group =>   1
Atom   2Cl   basis set group =>   2
Atom   3Cl   basis set group =>   2
Atom   4H    basis set group =>   3
Atom   5H    basis set group =>   3
---------------------------------
AUXILIARY/J BASIS SET INFORMATION
---------------------------------
There are 3 groups of distinct atoms

 Group   1 Type C   : 12s5p4d2f1g contracted to 6s4p3d1f1g pattern {711111/2111/211/2/1}
 Group   2 Type Cl  : 14s5p5d2f1g contracted to 8s4p3d1f1g pattern {71111111/2111/311/2/1}
 Group   3 Type H   : 5s2p1d contracted to 3s1p1d pattern {311/2/1}

Atom   0C    basis set group =>   1
Atom   1C    basis set group =>   1
Atom   2Cl   basis set group =>   2
Atom   3Cl   basis set group =>   2
Atom   4H    basis set group =>   3
Atom   5H    basis set group =>   3

Checking for AutoStart:
The File: sp_solv.gbw exists
Trying to determine its content:
     ... Fine, the file contains calculation information
     ... Fine, the calculation information was read
     ... Fine, the file contains a basis set
     ... Fine, the basis set was read
     ... Fine, the file contains a geometry
     ... Fine, the geometry was read
     ... Fine, the file contains a set of orbitals
     ... Fine, the orbitals can be read
     => possible old guess file was deleted
     => GBW file was renamed to GES file
     => GES file is set as startup file
     => Guess is set to MORead
     ... now leaving AutoStart

------------------------------------------------------------------------------
                             ORCA STARTUP CALCULATIONS
                           -- RI-GTO INTEGRALS CHOSEN --
------------------------------------------------------------------------------
------------------------------------------------------------------------------
                   ___                                                        
                  /   \      - P O W E R E D   B Y -                         
                 /     \                                                     
                 |  |  |   _    _      __       _____    __    __             
                 |  |  |  | |  | |    /  \     |  _  \  |  |  /  |          
                  \  \/   | |  | |   /    \    | | | |  |  | /  /          
                 / \  \   | |__| |  /  /\  \   | |_| |  |  |/  /          
                |  |  |   |  __  | /  /__\  \  |    /   |      \           
                |  |  |   | |  | | |   __   |  |    \   |  |\   \          
                \     /   | |  | | |  |  |  |  | |\  \  |  | \   \       
                 \___/    |_|  |_| |__|  |__|  |_| \__\ |__|  \__/        
                                                                              
                      - O R C A' S   B I G   F R I E N D -                    
                                      &                                       
                       - I N T E G R A L  F E E D E R -                       
                                                                              
 v1 FN, 2020, v2 2021, v3 2022-2024                                           
------------------------------------------------------------------------------


----------------------
SHARK INTEGRAL PACKAGE
----------------------

Number of atoms                             ...      6
Number of basis functions                   ...    102
Number of shells                            ...     46
Maximum angular momentum                    ...      2
Integral batch strategy                     ... SHARK/LIBINT Hybrid
RI-J (if used) integral strategy            ... SPLIT-RIJ (Revised 2003 algorithm where possible)
Printlevel                                  ...      1
Contraction scheme used                     ... SEGMENTED contraction
Prescreening option                         ... SCHWARTZ
   Thresh                                   ... 1.000e-10
   Tcut                                     ... 1.000e-11
   Tpresel                                  ... 1.000e-11 
Coulomb Range Separation                    ... NOT USED
Exchange Range Separation                   ... NOT USED
Multipole approximations                    ... NOT USED
Finite Nucleus Model                        ... NOT USED
CABS basis                                  ... NOT available
Auxiliary Coulomb fitting basis             ... AVAILABLE
   # of basis functions in Aux-J            ...    222
   # of shells in Aux-J                     ...     74
   Maximum angular momentum in Aux-J        ...      4
Auxiliary J/K fitting basis                 ... NOT available
Auxiliary Correlation fitting basis         ... NOT available
Auxiliary 'external' fitting basis          ... NOT available

Checking pre-screening integrals            ... done (  0.0 sec) Dimension = 46
Check shell pair data                       ... done (  0.0 sec)
Shell pair information
Shell pair cut-off parameter TPreSel        ...   1.0e-11
Total number of shell pairs                 ...      1081
Shell pairs after pre-screening             ...      1015
Total number of primitive shell pairs       ...      4786
Primitive shell pairs kept                  ...      3356
          la=0 lb=0:    266 shell pairs
          la=1 lb=0:    364 shell pairs
          la=1 lb=1:    132 shell pairs
          la=2 lb=0:    138 shell pairs
          la=2 lb=1:     94 shell pairs
          la=2 lb=2:     21 shell pairs

Calculating one electron integrals          ... done (  0.0 sec)
Calculating RI/J V-Matrix + Cholesky decomp.... done (  0.0 sec)
Calculating Nuclear repulsion               ... done (  0.0 sec) ENN=    176.429378886850 Eh

Diagonalization of the overlap matrix:
Smallest eigenvalue                        ... 5.780e-04
Time for diagonalization                   ...    0.001 sec
Threshold for overlap eigenvalues          ... 1.000e-07
Number of eigenvalues below threshold      ... 0
Time for construction of square roots      ...    0.025 sec
Total time needed                          ...    0.036 sec

-------------------
DFT GRID GENERATION
-------------------

General Integration Accuracy     IntAcc      ... 4.388
Radial Grid Type                 RadialGrid  ... OptM3 with GC (2021)
Angular Grid (max. ang.)         AngularGrid ... 4 (Lebedev-302)
Angular grid pruning method      GridPruning ... 4 (adaptive)
Weight generation scheme         WeightScheme... mBecke (2022)
Basis function cutoff            BFCut       ... 1.0000e-10
Integration weight cutoff        WCut        ... 1.0000e-14
Partially contracted basis set               ... off
Rotationally invariant grid construction     ... off
Angular grids for H and He will be reduced by one unit

Total number of grid points                  ...    33398
Total number of batches                      ...      526
Average number of points per batch           ...       63
Average number of grid points per atom       ...     5566
Initializing property integral containers    ... done (  0.0 sec)

SHARK setup successfully completed in   0.5 seconds

Maximum memory used throughout the entire STARTUP-calculation: 15.6 MB
-------------------------------------------------------------------------------
                                 ORCA GUESS
                   Start orbitals & Density for SCF / CASSCF
-------------------------------------------------------------------------------

------------
SCF SETTINGS
------------
Hamiltonian:
 Density Functional     Method          .... DFT(GTOs)
  Functional kind                       .... Exchange
  Functional name                       .... Re-regularized SCAN exchange by Furness et al
  Functional family                     .... MGGA
  Functional refs                              
    [ 0] J. W. Furness, A. D. Kaplan, J. Ning, J. P. Perdew, and J. Sun.,  J. Phys. Chem. Lett. 11, 8208-8215 (2020), doi: 10.1021/acs.jpclett.0c02405
    [ 1] J. W. Furness, A. D. Kaplan, J. Ning, J. P. Perdew, and J. Sun.,  J. Phys. Chem. Lett. 11, 9248-9248 (2020), doi: 10.1021/acs.jpclett.0c03077
  Functional external parameters        .... 6
    Parameter  0 _c1        =  6.670000e-01 : c1 parameter        
    Parameter  1 _c2        =  8.000000e-01 : c2 parameter        
    Parameter  2 _d         =  1.240000e+00 : d parameter         
    Parameter  3 _k1        =  6.500000e-02 : k1 parameter        
    Parameter  4 _eta       =  1.000000e-03 : eta parameter       
    Parameter  5 _dp2       =  3.610000e-01 : dp2 parameter       
  Functional kind                       .... Correlation
  Functional name                       .... Re-regularized SCAN correlation by Furness et al
  Functional family                     .... MGGA
  Functional refs                              
    [ 0] J. W. Furness, A. D. Kaplan, J. Ning, J. P. Perdew, and J. Sun.,  J. Phys. Chem. Lett. 11, 8208-8215 (2020), doi: 10.1021/acs.jpclett.0c02405
    [ 1] J. W. Furness, A. D. Kaplan, J. Ning, J. P. Perdew, and J. Sun.,  J. Phys. Chem. Lett. 11, 9248-9248 (2020), doi: 10.1021/acs.jpclett.0c03077
  Functional external parameters        .... 1
    Parameter  0 _eta       =  1.000000e-03 : Regularization parameter
 Gradients option       PostSCFGGA      .... off
 RI-approximation to the Coulomb term is turned on
   Number of AuxJ basis functions       .... 222


General Settings:
 Integral files         IntName         .... sp_solv
 Hartree-Fock type      HFTyp           .... RHF
 Total Charge           Charge          ....    0
 Multiplicity           Mult            ....    1
 Number of Electrons    NEL             ....   48
 Basis Dimension        Dim             ....  102
 Nuclear Repulsion      ENuc            ....    176.4293788868 Eh

Convergence Acceleration:
 AO-DIIS                CNVDIIS         .... on
   Start iteration      DIISMaxIt       ....    12
   Startup error        DIISStart       ....  0.200000
   # of expansion vecs  DIISMaxEq       ....     5
   Bias factor          DIISBfac        ....   1.050
   Max. coefficient     DIISMaxC        ....  10.000
 MO-DIIS                CNVKDIIS        .... off
 Trust-Rad. Augm. Hess. CNVTRAH         .... auto
   Auto Start mean grad. ratio tolernc. ....  1.125000
   Auto Start start iteration           ....     1
   Auto Start num. interpolation iter.  ....    10
   Max. Number of Micro iterations      ....    24
   Max. Number of Macro iterations      .... Maxiter - #DIIS iter
   Number of Davidson start vectors     ....     2
   Converg. threshold    (grad. norm)   ....   3.330e-04
   Grad. Scal. Fac. for Micro threshold ....   0.100
   Minimum threshold for Micro iter.    ....   1.000e-02
   NR start threshold (gradient norm)   ....   1.000e-04
   Initial trust radius                 ....   0.400
   Minimum AH scaling param. (alpha)    ....   1.000
   Maximum AH scaling param. (alpha)    .... 1000.000
   Quad. conv. algorithm                .... NR
   White noise on init. David. guess    .... on
   Maximum white noise                  ....   0.010
   Pseudo random numbers                .... off
   Inactive MOs                         .... canonical
   Orbital update algorithm             .... Taylor
   Preconditioner                       .... Diag
   Full preconditioner red. dimension   ....   250
   COSX micro iterations for RIJONX calc.... off
 SOSCF                  CNVSOSCF        .... on
   Start iteration      SOSCFMaxIt      ....   150
   Startup grad/error   SOSCFStart      ....  0.003300
   Hessian update       SOSCFHessUp     .... L-BFGS
 Level Shifting         CNVShift        .... on
   Level shift para.    LevelShift      ....    0.2500
   Turn off err/grad.   ShiftErr        ....    0.0010
 Zerner damping         CNVZerner       .... off
 Static damping         CNVDamp         .... on
   Fraction old density DampFac         ....    0.7000
   Max. Damping (<1)    DampMax         ....    0.9800
   Min. Damping (>=0)   DampMin         ....    0.0000
   Turn off err/grad.   DampErr         ....    0.1000

SCF Procedure:
 Maximum # iterations   MaxIter         ....   125
 SCF integral mode      SCFMode         .... Direct
   Integral package                     .... SHARK and LIBINT hybrid scheme
 Reset frequency        DirectResetFreq ....    20
 Integral Threshold     Thresh          ....  1.000e-10 Eh
 Primitive CutOff       TCut            ....  1.000e-11 Eh

Convergence Tolerance:
 Convergence Check Mode ConvCheckMode   .... Total+1el-Energy
 Convergence forced     ConvForced      .... 0
 Energy Change          TolE            ....  1.000e-06 Eh
 1-El. energy change                    ....  1.000e-03 Eh
 Orbital Gradient       TolG            ....  3.330e-04
 Orbital Rotation angle TolX            ....  3.330e-04
 DIIS Error             TolErr          ....  1.000e-06

---------------------
INITIAL GUESS: MOREAD
---------------------
Guess MOs are being read from file: sp_solv.ges
Input Geometry matches current geometry (good)
Atom 0: N(Shells)= 9 and 6 - projection required
Input basis set needs projection
NBasis(read)= 68
NBasis(calc)= 102
Basis set overlap was calculated
Using GuessMode=FMatrix for the initial guess
C*T matrix was formed
Effective Fockian was calculated
Effective Fockian was diagonalized
Initial density was built
                      ------------------
                      INITIAL GUESS DONE (   0.0 sec)
                      ------------------
             **** ENERGY FILE WAS UPDATED (sp_solv.en.tmp) ****
Finished Guess after   0.2 sec
Maximum memory used throughout the entire GUESS-calculation: 7.8 MB

-------------------------------------------------------------------------------------------
                                      ORCA LEAN-SCF
                              memory conserving SCF solver
-------------------------------------------------------------------------------------------

--------------------
CPCM SOLVATION MODEL
--------------------
CPCM parameters:
  Epsilon                                         ...      78.3550
  Refrac                                          ...       1.3328
  Rsolv                                           ...       1.3000
  Surface type                                    ... GAUSSIAN VDW
  Discretization scheme                           ... Constant charge density
    Threshold for H atoms                         ...       5.0000 (charges/Ang^2)
    Threshold for non-H atoms                     ...       5.0000 (charges/Ang^2)
  Epsilon function type                           ...         CPCM
Solvent:                                          ... WATER
SMD-CDS solvent descriptors:
  Soln                                            ...       1.3328
  Soln25                                          ...       1.3323
  Sola                                            ...       0.0000
  Solb                                            ...       0.0000
  Solg                                            ...       0.0000
  Solc                                            ...       0.0000
  Solh                                            ...       0.0000
Radii:
  Scheme                                          ... Element-dependent radii
  Radius for C  used is    3.4960 Bohr (=   1.8500 Ang.)
  Radius for Cl used is    4.4975 Bohr (=   2.3800 Ang.)
  Radius for H  used is    2.2677 Bohr (=   1.2000 Ang.)
Calculating surface                               ...        done! (  0.0s)
Cavity surface points                             ...          758
Cavity Volume                                     ...     822.7432
Cavity Surface-area                               ...     485.1686
Calculating surface distance matrix               ...        done! (  0.0s)
Performing Cholesky decomposition & store         ...        done! (  0.0s)
Overall time for CPCM initialization              ...                 0.0s

----------------------------------------D-I-I-S--------------------------------------------
Iteration    Energy (Eh)           Delta-E    RMSDP     MaxDP     DIISErr   Damp  Time(sec)
-------------------------------------------------------------------------------------------
               ***  Starting incremental Fock matrix formation  ***
    1    -997.6416350063771006     0.00e+00  2.21e-03  2.77e-02  5.39e-01  0.700   0.7
    2    -997.6661621465852932    -2.45e-02  1.82e-03  2.24e-02  3.77e-01  0.700   0.7
    3    -997.6835594748336007    -1.74e-02  1.35e-03  1.67e-02  2.64e-01  0.700   0.8
                               ***Turning on AO-DIIS***
    4    -997.6957904738758316    -1.22e-02  1.00e-03  1.30e-02  1.85e-01  0.700   0.7
    5    -997.7043761515585629    -8.59e-03  7.21e-04  9.52e-03  1.29e-01  0.700   0.7
    6    -997.7104009091729040    -6.02e-03  5.12e-04  6.85e-03  9.06e-02  0.700   0.7
    7    -997.7146258604436753    -4.22e-03  1.21e-03  1.61e-02  6.34e-02  0.000   0.7
                              *** Initializing SOSCF ***
---------------------------------------S-O-S-C-F--------------------------------------
Iteration    Energy (Eh)           Delta-E    RMSDP     MaxDP     MaxGrad    Time(sec)
--------------------------------------------------------------------------------------
    8    -997.7245074160068725    -9.88e-03  1.84e-05  2.22e-04  2.74e-04     0.7
               *** Restarting incremental Fock matrix formation ***
    9    -997.7245075727701078    -1.57e-07  2.02e-05  2.78e-04  1.56e-04     0.6
   10    -997.7245071247566557     4.48e-07  1.27e-05  1.84e-04  2.75e-04     0.6
                 **** Energy Check signals convergence ****

               *****************************************************
               *                     SUCCESS                       *
               *           SCF CONVERGED AFTER  10 CYCLES          *
               *****************************************************


SMD CDS free energy correction energy :                 2.67331     Kcal/mol
Total Energy after SMD CDS correction =              -997.720246927 Eh
             **** ENERGY FILE WAS UPDATED (sp_solv.en.tmp) ****

----------------
TOTAL SCF ENERGY
----------------

Total Energy       :       -997.72024692715399 Eh          -27149.34817 eV

Components:
Nuclear Repulsion  :        176.42937888684963 Eh            4800.88747 eV
Electronic Energy  :      -1174.14864956488191 Eh          -31950.20907 eV
One Electron Energy:      -1724.84288545846675 Eh          -46935.36106 eV
Two Electron Energy:        550.69423589358496 Eh           14985.15199 eV
CPCM Dielectric    :         -0.00523644672466 Eh              -0.14249 eV
SMD CDS (Gcds)     :          0.00426019760272 Eh               0.11593 eV

Virial components:
Potential Energy   :      -1993.04633268256384 Eh          -54233.54789 eV
Kinetic Energy     :        995.32608575540985 Eh           27084.19973 eV
Virial Ratio       :          2.00240540382294

DFT components:
N(Alpha)           :       23.999996661569 electrons
N(Beta)            :       23.999996661569 electrons
N(Total)           :       47.999993323138 electrons
E(X)               :      -66.198715648524 Eh       
E(C)               :       -1.766913171288 Eh       
E(XC)              :      -67.965628819812 Eh       

CPCM Solvation Model Properties:
Surface-charge          :         -0.00925791694566
Corrected charge        :         -0.00000000000000
Outlying charge corr.   :          0.00000687027502 Eh               0.00019 eV
Free-energy (cav+disp)  :          0.00426019760272 Eh               0.11593 eV

---------------
SCF CONVERGENCE
---------------

  Last Energy change         ...   -4.4801e-07  Tolerance :   1.0000e-06
  Last MAX-Density change    ...    1.8392e-04  Tolerance :   1.0000e-05
  Last RMS-Density change    ...    1.2701e-05  Tolerance :   1.0000e-06
  Last DIIS Error            ...    2.7350e-04  Tolerance :   1.0000e-06
  Last Orbital Gradient      ...    2.7459e-04  Tolerance :   3.3300e-04
  Last Orbital Rotation      ...    2.2732e-04  Tolerance :   3.3300e-04


----------------
ORBITAL ENERGIES
----------------

  NO   OCC          E(Eh)            E(eV) 
   0   2.0000    -101.231668     -2754.6537 
   1   2.0000    -101.231665     -2754.6536 
   2   2.0000     -10.101607      -274.8787 
   3   2.0000     -10.100803      -274.8568 
   4   2.0000      -9.387651      -255.4510 
   5   2.0000      -9.387646      -255.4508 
   6   2.0000      -7.133859      -194.1222 
   7   2.0000      -7.133857      -194.1221 
   8   2.0000      -7.123959      -193.8528 
   9   2.0000      -7.123957      -193.8527 
  10   2.0000      -7.123387      -193.8372 
  11   2.0000      -7.123385      -193.8372 
  12   2.0000      -0.867822       -23.6146 
  13   2.0000      -0.831590       -22.6287 
  14   2.0000      -0.697362       -18.9762 
  15   2.0000      -0.557922       -15.1818 
  16   2.0000      -0.464397       -12.6369 
  17   2.0000      -0.448737       -12.2108 
  18   2.0000      -0.380797       -10.3620 
  19   2.0000      -0.370321       -10.0769 
  20   2.0000      -0.326359        -8.8807 
  21   2.0000      -0.298928        -8.1343 
  22   2.0000      -0.293108        -7.9759 
  23   2.0000      -0.230835        -6.2813 
  24   0.0000      -0.043720        -1.1897 
  25   0.0000      -0.013380        -0.3641 
  26   0.0000       0.047055         1.2804 
  27   0.0000       0.127436         3.4677 
  28   0.0000       0.128042         3.4842 
  29   0.0000       0.166031         4.5179 
  30   0.0000       0.214967         5.8495 
  31   0.0000       0.227575         6.1926 
  32   0.0000       0.241763         6.5787 
  33   0.0000       0.248393         6.7591 
  34   0.0000       0.265919         7.2360 
*Only the first 10 virtual orbitals were printed.

                    ********************************
                    * MULLIKEN POPULATION ANALYSIS *
                    ********************************

-----------------------
MULLIKEN ATOMIC CHARGES
-----------------------
   0 C :   -0.098205
   1 C :   -0.098218
   2 Cl:   -0.125237
   3 Cl:   -0.125248
   4 H :    0.223455
   5 H :    0.223453
Sum of atomic charges:    0.0000000

--------------------------------
MULLIKEN REDUCED ORBITAL CHARGES
--------------------------------
  0 C s       :     3.202936  s :     3.202936
      pz      :     1.039210  p :     2.853111
      px      :     0.794197
      py      :     1.019704
      dz2     :     0.003529  d :     0.042158
      dxz     :     0.008701
      dyz     :     0.003013
      dx2y2   :     0.014523
      dxy     :     0.012390

  1 C s       :     3.202944  s :     3.202944
      pz      :     1.039209  p :     2.853116
      px      :     0.794197
      py      :     1.019709
      dz2     :     0.003529  d :     0.042158
      dxz     :     0.008702
      dyz     :     0.003013
      dx2y2   :     0.014523
      dxy     :     0.012391

  2 Cls       :     5.944836  s :     5.944836
      pz      :     3.922583  p :    11.122573
      px      :     3.295368
      py      :     3.904621
      dz2     :     0.005832  d :     0.057829
      dxz     :     0.021533
      dyz     :     0.000940
      dx2y2   :     0.015814
      dxy     :     0.013709

  3 Cls       :     5.944837  s :     5.944837
      pz      :     3.922586  p :    11.122583
      px      :     3.295383
      py      :     3.904614
      dz2     :     0.005832  d :     0.057828
      dxz     :     0.021533
      dyz     :     0.000940
      dx2y2   :     0.015814
      dxy     :     0.013709

  4 H s       :     0.756568  s :     0.756568
      pz      :     0.004018  p :     0.019976
      px      :     0.002695
      py      :     0.013264

  5 H s       :     0.756571  s :     0.756571
      pz      :     0.004017  p :     0.019976
      px      :     0.002695
      py      :     0.013263


------------------------
MULLIKEN OVERLAP CHARGES
------------------------
B(  0-C ,  1-C ) :   1.2407 B(  0-C ,  2-Cl) :  -0.0870 B(  0-C ,  3-Cl) :   0.4560 
B(  0-C ,  4-H ) :   0.8419 B(  0-C ,  5-H ) :  -0.0854 B(  1-C ,  2-Cl) :   0.4560 
B(  1-C ,  3-Cl) :  -0.0870 B(  1-C ,  4-H ) :  -0.0854 B(  1-C ,  5-H ) :   0.8419 
B(  2-Cl,  5-H ) :  -0.0896 B(  3-Cl,  4-H ) :  -0.0896 


                     *******************************
                     * LOEWDIN POPULATION ANALYSIS *
                     *******************************

----------------------
LOEWDIN ATOMIC CHARGES
----------------------
   0 C :   -0.287874
   1 C :   -0.287882
   2 Cl:    0.100440
   3 Cl:    0.100429
   4 H :    0.187442
   5 H :    0.187445

-------------------------------
LOEWDIN REDUCED ORBITAL CHARGES
-------------------------------
  0 C s       :     2.988057  s :     2.988057
      pz      :     1.034427  p :     3.204524
      px      :     1.022556
      py      :     1.147541
      dz2     :     0.006735  d :     0.095292
      dxz     :     0.016986
      dyz     :     0.004649
      dx2y2   :     0.035551
      dxy     :     0.031372

  1 C s       :     2.988057  s :     2.988057
      pz      :     1.034426  p :     3.204532
      px      :     1.022563
      py      :     1.147543
      dz2     :     0.006735  d :     0.095293
      dxz     :     0.016987
      dyz     :     0.004649
      dx2y2   :     0.035550
      dxy     :     0.031373

  2 Cls       :     5.659363  s :     5.659363
      pz      :     3.896449  p :    11.121172
      px      :     3.338837
      py      :     3.885886
      dz2     :     0.014590  d :     0.119026
      dxz     :     0.036334
      dyz     :     0.001673
      dx2y2   :     0.035847
      dxy     :     0.030581

  3 Cls       :     5.659367  s :     5.659367
      pz      :     3.896452  p :    11.121180
      px      :     3.338848
      py      :     3.885880
      dz2     :     0.014590  d :     0.119024
      dxz     :     0.036333
      dyz     :     0.001673
      dx2y2   :     0.035845
      dxy     :     0.030582

  4 H s       :     0.763623  s :     0.763623
      pz      :     0.009481  p :     0.048935
      px      :     0.006130
      py      :     0.033324

  5 H s       :     0.763622  s :     0.763622
      pz      :     0.009481  p :     0.048933
      px      :     0.006130
      py      :     0.033323


---------------------------------
LOEWDIN BOND ORDERS (THRESH 0.050000)
---------------------------------
B(  0-C ,  1-C ) :   1.9237 B(  0-C ,  2-Cl) :   0.2220 B(  0-C ,  3-Cl) :   1.4559 
B(  0-C ,  4-H ) :   0.8723 B(  0-C ,  5-H ) :   0.0613 B(  1-C ,  2-Cl) :   1.4559 
B(  1-C ,  3-Cl) :   0.2220 B(  1-C ,  4-H ) :   0.0613 B(  1-C ,  5-H ) :   0.8723 
B(  2-Cl,  3-Cl) :   0.0613 B(  2-Cl,  5-H ) :   0.0536 B(  3-Cl,  4-H ) :   0.0536 


------------------------------------------
LOEWDIN REDUCED ORBITAL POPULATIONS PER MO
-------------------------------------------
THRESHOLD FOR PRINTING IS 0.1%%
                      0         1         2         3         4         5   
                 -101.23167 -101.23166 -10.10161 -10.10080  -9.38765  -9.38765
                   2.00000   2.00000   2.00000   2.00000   2.00000   2.00000
                  --------  --------  --------  --------  --------  --------
 0 C  s               0.0       0.0      49.7      49.9       0.0       0.0
 1 C  s               0.0       0.0      49.9      49.7       0.0       0.0
 1 C  px              0.0       0.0       0.0       0.0       0.1       0.0
 2 Cl s              80.4      19.6       0.0       0.0      73.6      26.1
 3 Cl s              19.6      80.4       0.0       0.0      26.1      73.7

                      6         7         8         9        10        11   
                  -7.13386  -7.13386  -7.12396  -7.12396  -7.12339  -7.12339
                   2.00000   2.00000   2.00000   2.00000   2.00000   2.00000
                  --------  --------  --------  --------  --------  --------
 2 Cl pz              0.0       0.0     100.0       0.0       0.0       0.0
 2 Cl px             92.4       0.0       0.0       0.0       7.5       0.0
 2 Cl py              7.5       0.0       0.0       0.0      92.5       0.0
 3 Cl pz              0.0       0.0       0.0     100.0       0.0       0.0
 3 Cl px              0.0      92.4       0.0       0.0       0.0       7.5
 3 Cl py              0.0       7.5       0.0       0.0       0.0      92.5

                     12        13        14        15        16        17   
                  -0.86782  -0.83159  -0.69736  -0.55792  -0.46440  -0.44874
                   2.00000   2.00000   2.00000   2.00000   2.00000   2.00000
                  --------  --------  --------  --------  --------  --------
 0 C  s              20.1       3.6      13.3      10.2       0.3       0.3
 0 C  px              0.3      12.3      11.1       0.4       8.7      11.3
 0 C  py              2.4       0.0       1.1      15.1       9.9      16.2
 0 C  dz2             0.2       0.1       0.0       0.0       0.0       0.0
 0 C  dx2y2           0.1       0.1       0.1       0.0       0.0       0.0
 0 C  dxy             0.0       0.1       0.4       0.1       0.0       0.2
 1 C  s              20.1       3.6      13.3      10.2       0.3       0.3
 1 C  px              0.3      12.3      11.1       0.4       8.7      11.3
 1 C  py              2.4       0.0       1.1      15.1       9.9      16.2
 1 C  dz2             0.2       0.1       0.0       0.0       0.0       0.0
 1 C  dx2y2           0.1       0.1       0.1       0.0       0.0       0.0
 1 C  dxy             0.0       0.1       0.4       0.1       0.0       0.2
 2 Cl s              22.3      32.2      18.0       3.9       4.4       1.4
 2 Cl px              1.9       0.8       2.9       4.7      22.6       5.2
 2 Cl py              0.1       0.1       0.1       2.7       0.0       8.3
 2 Cl dz2             0.1       0.0       0.1       0.1       0.2       0.1
 2 Cl dx2y2           0.3       0.1       0.4       0.1       0.6       0.0
 2 Cl dxy             0.1       0.1       0.0       0.6       0.0       0.7
 3 Cl s              22.3      32.2      18.0       3.9       4.4       1.4
 3 Cl px              1.9       0.8       2.9       4.7      22.6       5.2
 3 Cl py              0.1       0.1       0.1       2.7       0.0       8.3
 3 Cl dz2             0.1       0.0       0.1       0.1       0.2       0.1
 3 Cl dx2y2           0.3       0.1       0.4       0.1       0.6       0.0
 3 Cl dxy             0.1       0.1       0.0       0.6       0.0       0.7
 4 H  s               2.0       0.4       2.2      11.3       3.0       6.0
 4 H  px              0.0       0.0       0.0       0.0       0.0       0.2
 4 H  py              0.1       0.0       0.2       0.8       0.1       0.2
 5 H  s               2.0       0.4       2.2      11.3       3.0       6.0
 5 H  px              0.0       0.0       0.0       0.0       0.0       0.2
 5 H  py              0.1       0.0       0.2       0.8       0.1       0.2

                     18        19        20        21        22        23   
                  -0.38080  -0.37032  -0.32636  -0.29893  -0.29311  -0.23083
                   2.00000   2.00000   2.00000   2.00000   2.00000   2.00000
                  --------  --------  --------  --------  --------  --------
 0 C  s               0.8       0.0       0.0       0.6       0.4       0.0
 0 C  pz              0.0      24.4       3.9       0.0       0.0      23.4
 0 C  px              5.2       0.0       0.0       0.4       1.2       0.0
 0 C  py              9.2       0.0       0.0       0.6       2.8       0.0
 0 C  dxz             0.0       0.0       0.3       0.0       0.0       0.5
 0 C  dyz             0.0       0.1       0.0       0.0       0.0       0.1
 0 C  dx2y2           1.0       0.0       0.0       0.2       0.2       0.0
 0 C  dxy             0.1       0.0       0.0       0.3       0.4       0.0
 1 C  s               0.8       0.0       0.0       0.6       0.4       0.0
 1 C  pz              0.0      24.4       3.9       0.0       0.0      23.4
 1 C  px              5.2       0.0       0.0       0.4       1.2       0.0
 1 C  py              9.2       0.0       0.0       0.6       2.8       0.0
 1 C  dxz             0.0       0.0       0.3       0.0       0.0       0.5
 1 C  dyz             0.0       0.1       0.0       0.0       0.0       0.1
 1 C  dx2y2           1.0       0.0       0.0       0.2       0.2       0.0
 1 C  dxy             0.1       0.0       0.0       0.3       0.4       0.0
 2 Cl s               0.9       0.0       0.0       0.0       0.0       0.0
 2 Cl pz              0.0      24.7      45.6       0.0       0.0      24.6
 2 Cl px             23.2       0.0       0.0       1.5       4.2       0.0
 2 Cl py              0.1       0.0       0.0      44.8      38.2       0.0
 2 Cl dxz             0.0       0.6       0.2       0.0       0.0       1.1
 2 Cl dx2y2           0.2       0.0       0.0       0.0       0.1       0.0
 3 Cl s               0.9       0.0       0.0       0.0       0.0       0.0
 3 Cl pz              0.0      24.7      45.6       0.0       0.0      24.6
 3 Cl px             23.2       0.0       0.0       1.5       4.2       0.0
 3 Cl py              0.1       0.0       0.0      44.8      38.2       0.0
 3 Cl dxz             0.0       0.6       0.2       0.0       0.0       1.1
 3 Cl dx2y2           0.2       0.0       0.0       0.0       0.1       0.0
 4 H  s               9.1       0.0       0.0       1.7       2.5       0.0
 4 H  pz              0.0       0.2       0.0       0.0       0.0       0.3
 4 H  py              0.2       0.0       0.0       0.0       0.0       0.0
 5 H  s               9.1       0.0       0.0       1.7       2.5       0.0
 5 H  pz              0.0       0.2       0.0       0.0       0.0       0.3
 5 H  py              0.2       0.0       0.0       0.0       0.0       0.0

                     24        25        26        27        28        29   
                  -0.04372  -0.01338   0.04705   0.12744   0.12804   0.16603
                   0.00000   0.00000   0.00000   0.00000   0.00000   0.00000
                  --------  --------  --------  --------  --------  --------
 0 C  s               0.0       4.0       6.6      37.5       8.8       0.3
 0 C  pz             38.8       0.0       0.0       0.0       0.0       0.0
 0 C  px              0.0       9.8      10.4       1.1      11.4      20.4
 0 C  py              0.0       2.2       1.1       0.9       8.2      10.4
 0 C  dz2             0.0       0.3       0.4       1.3       0.5       0.2
 0 C  dxz             0.4       0.0       0.0       0.0       0.0       0.0
 0 C  dyz             0.7       0.0       0.0       0.0       0.0       0.0
 0 C  dx2y2           0.0       1.9       0.1       0.0       1.6       0.5
 0 C  dxy             0.0       0.1       0.3       0.0       0.5       0.6
 1 C  s               0.0       4.0       6.6      37.5       8.8       0.3
 1 C  pz             38.8       0.0       0.0       0.0       0.0       0.0
 1 C  px              0.0       9.8      10.4       1.1      11.3      20.4
 1 C  py              0.0       2.2       1.1       0.9       8.2      10.4
 1 C  dz2             0.0       0.3       0.4       1.3       0.5       0.2
 1 C  dxz             0.4       0.0       0.0       0.0       0.0       0.0
 1 C  dyz             0.7       0.0       0.0       0.0       0.0       0.0
 1 C  dx2y2           0.0       1.9       0.1       0.0       1.6       0.5
 1 C  dxy             0.0       0.1       0.3       0.0       0.5       0.6
 2 Cl s               0.0       3.9       1.8       4.1       1.2       4.1
 2 Cl pz              4.0       0.0       0.0       0.0       0.0       0.0
 2 Cl px              0.0      17.5       9.1       1.0       0.1       0.7
 2 Cl py              0.0       0.6       1.9       0.0       0.6       0.7
 2 Cl dz2             0.0       2.6       1.8       1.4       0.0       0.1
 2 Cl dxz             3.6       0.0       0.0       0.0       0.0       0.0
 2 Cl dyz             1.2       0.0       0.0       0.0       0.0       0.0
 2 Cl dx2y2           0.0       6.0       4.9       0.3       3.4       4.1
 2 Cl dxy             0.0       0.7       7.1       0.0       1.0       0.2
 3 Cl s               0.0       3.9       1.8       4.1       1.2       4.1
 3 Cl pz              4.0       0.0       0.0       0.0       0.0       0.0
 3 Cl px              0.0      17.5       9.1       1.0       0.1       0.7
 3 Cl py              0.0       0.6       1.9       0.0       0.6       0.7
 3 Cl dz2             0.0       2.6       1.8       1.4       0.0       0.1
 3 Cl dxz             3.6       0.0       0.0       0.0       0.0       0.0
 3 Cl dyz             1.2       0.0       0.0       0.0       0.0       0.0
 3 Cl dx2y2           0.0       6.0       4.9       0.3       3.4       4.1
 3 Cl dxy             0.0       0.7       7.1       0.0       1.0       0.2
 4 H  s               0.0       0.1       3.0       2.1       8.6       4.9
 4 H  pz              1.3       0.0       0.0       0.0       0.0       0.0
 4 H  px              0.0       0.3       0.8       0.1       0.4       0.9
 4 H  py              0.0       0.0       0.6       0.2       3.7       1.9
 5 H  s               0.0       0.1       3.0       2.1       8.6       4.9
 5 H  pz              1.3       0.0       0.0       0.0       0.0       0.0
 5 H  px              0.0       0.3       0.8       0.1       0.4       0.9
 5 H  py              0.0       0.0       0.6       0.2       3.7       1.9

                     30        31        32        33        34        35   
                   0.21497   0.22757   0.24176   0.24839   0.26592   0.28316
                   0.00000   0.00000   0.00000   0.00000   0.00000   0.00000
                  --------  --------  --------  --------  --------  --------
 0 C  s               0.5       0.0      16.2       1.9       2.4       0.0
 0 C  pz              0.0      45.1       0.0       0.0       0.0      36.4
 0 C  px              1.7       0.0       3.4      20.3       0.4       0.0
 0 C  py             27.0       0.0       1.3       5.0      18.1       0.0
 0 C  dz2             0.7       0.0       1.2       0.1       0.3       0.0
 0 C  dxz             0.0       0.0       0.0       0.0       0.0       0.5
 0 C  dyz             0.0       0.3       0.0       0.0       0.0       0.2
 0 C  dx2y2           0.0       0.0       0.0       0.0       1.8       0.0
 0 C  dxy             0.0       0.0       1.2       1.7       0.3       0.0
 1 C  s               0.5       0.0      16.2       1.9       2.4       0.0
 1 C  pz              0.0      45.1       0.0       0.0       0.0      36.4
 1 C  px              1.7       0.0       3.4      20.3       0.4       0.0
 1 C  py             27.0       0.0       1.3       5.0      18.1       0.0
 1 C  dz2             0.7       0.0       1.2       0.1       0.3       0.0
 1 C  dxz             0.0       0.0       0.0       0.0       0.0       0.5
 1 C  dyz             0.0       0.3       0.0       0.0       0.0       0.2
 1 C  dx2y2           0.0       0.0       0.0       0.0       1.8       0.0
 1 C  dxy             0.0       0.0       1.2       1.7       0.3       0.0
 2 Cl s               0.0       0.0       1.6       0.1       0.0       0.0
 2 Cl pz              0.0       4.3       0.0       0.0       0.0       0.5
 2 Cl px              0.6       0.0       2.3       0.7       0.2       0.0
 2 Cl py              0.2       0.0       0.5       2.6       0.9       0.0
 2 Cl dz2             6.8       0.0      12.4       0.4       0.3       0.0
 2 Cl dxz             0.0       0.0       0.0       0.0       0.0       4.2
 2 Cl dyz             0.0       0.2       0.0       0.0       0.0       7.8
 2 Cl dx2y2           1.0       0.0       4.8       9.8       0.6       0.0
 2 Cl dxy             0.0       0.0       3.8       5.9      15.3       0.0
 3 Cl s               0.0       0.0       1.6       0.1       0.0       0.0
 3 Cl pz              0.0       4.3       0.0       0.0       0.0       0.5
 3 Cl px              0.6       0.0       2.3       0.7       0.2       0.0
 3 Cl py              0.2       0.0       0.5       2.6       0.9       0.0
 3 Cl dz2             6.8       0.0      12.4       0.4       0.3       0.0
 3 Cl dxz             0.0       0.0       0.0       0.0       0.0       4.2
 3 Cl dyz             0.0       0.2       0.0       0.0       0.0       7.8
 3 Cl dx2y2           1.0       0.0       4.8       9.8       0.6       0.0
 3 Cl dxy             0.0       0.0       3.8       5.8      15.3       0.0
 4 H  s               8.1       0.0       0.1       0.3       9.2       0.0
 4 H  pz              0.0       0.0       0.0       0.0       0.0       0.3
 4 H  px              0.0       0.0       1.1       1.2       0.0       0.0
 4 H  py              3.4       0.0       0.0       0.1       0.2       0.0
 5 H  s               8.1       0.0       0.1       0.3       9.2       0.0
 5 H  pz              0.0       0.0       0.0       0.0       0.0       0.3
 5 H  px              0.0       0.0       1.1       1.2       0.0       0.0
 5 H  py              3.4       0.0       0.0       0.1       0.2       0.0

                     36        37        38        39        40        41   
                   0.31654   0.34142   0.35427   0.36637   0.36907   0.37012
                   0.00000   0.00000   0.00000   0.00000   0.00000   0.00000
                  --------  --------  --------  --------  --------  --------
 0 C  s               0.6       0.8       0.0       0.0       0.0       2.5
 0 C  pz              0.0       0.0       0.0       0.5       2.1       0.0
 0 C  px              5.9       0.4       0.5       0.0       0.0       1.3
 0 C  py              3.3       0.0       0.4       0.0       0.0       2.9
 0 C  dz2             0.7       0.6       0.2       0.0       0.0       0.5
 0 C  dxz             0.0       0.0       0.0       0.0       0.9       0.0
 0 C  dx2y2           0.2       0.6       0.2       0.0       0.0       0.1
 0 C  dxy             0.3       0.4       0.0       0.0       0.0       0.7
 1 C  s               0.6       0.8       0.0       0.0       0.0       2.5
 1 C  pz              0.0       0.0       0.0       0.5       2.1       0.0
 1 C  px              5.9       0.4       0.5       0.0       0.0       1.3
 1 C  py              3.3       0.0       0.4       0.0       0.0       2.9
 1 C  dz2             0.7       0.6       0.2       0.0       0.0       0.5
 1 C  dxz             0.0       0.0       0.0       0.0       0.9       0.0
 1 C  dx2y2           0.2       0.6       0.2       0.0       0.0       0.1
 1 C  dxy             0.3       0.4       0.0       0.0       0.0       0.7
 2 Cl s               2.4       0.3       0.7       0.0       0.0       0.1
 2 Cl pz              0.0       0.0       0.0      43.0      21.5       0.0
 2 Cl px             24.2      41.2       3.8       0.0       0.0       0.0
 2 Cl py              0.9       0.9      36.4       0.0       0.0      23.3
 2 Cl dz2             0.5       3.8       0.2       0.0       0.0       7.1
 2 Cl dxz             0.0       0.0       0.0       1.4      24.7       0.0
 2 Cl dyz             0.0       0.0       0.0       5.1       0.7       0.0
 2 Cl dx2y2           1.6       0.1       3.4       0.0       0.0       0.1
 2 Cl dxy             3.8       0.0       3.9       0.0       0.0       6.5
 3 Cl s               2.4       0.3       0.7       0.0       0.0       0.1
 3 Cl pz              0.0       0.0       0.0      43.0      21.6       0.0
 3 Cl px             24.2      41.2       3.8       0.0       0.0       0.0
 3 Cl py              0.9       0.9      36.4       0.0       0.0      23.3
 3 Cl dz2             0.5       3.8       0.2       0.0       0.0       7.1
 3 Cl dxz             0.0       0.0       0.0       1.4      24.7       0.0
 3 Cl dyz             0.0       0.0       0.0       5.1       0.7       0.0
 3 Cl dx2y2           1.6       0.1       3.4       0.0       0.0       0.1
 3 Cl dxy             3.8       0.0       3.9       0.0       0.0       6.5
 4 H  s               4.7       0.5       0.1       0.0       0.0       3.8
 4 H  px              0.0       0.2       0.2       0.0       0.0       0.0
 4 H  py              0.7       0.1       0.0       0.0       0.0       1.1
 5 H  s               4.7       0.5       0.1       0.0       0.0       3.8
 5 H  px              0.0       0.2       0.2       0.0       0.0       0.0
 5 H  py              0.7       0.1       0.0       0.0       0.0       1.1

                     42        43        44        45        46        47   
                   0.39626   0.40959   0.42632   0.46478   0.46967   0.51041
                   0.00000   0.00000   0.00000   0.00000   0.00000   0.00000
                  --------  --------  --------  --------  --------  --------
 0 C  s               0.0       0.6       0.0       0.0       2.4       0.0
 0 C  pz              0.1       0.0      11.5       4.7       0.0       3.1
 0 C  px              0.0       0.2       0.0       0.0       3.3       0.0
 0 C  py              0.0       1.6       0.0       0.0       5.2       0.0
 0 C  dz2             0.0       0.0       0.0       0.0       1.4       0.0
 0 C  dxz             0.2       0.0       0.2       0.9       0.0       1.3
 0 C  dyz             0.2       0.0       0.7       0.6       0.0       0.1
 0 C  dxy             0.0       0.0       0.0       0.0       2.5       0.0
 1 C  s               0.0       0.6       0.0       0.0       2.4       0.0
 1 C  pz              0.1       0.0      11.5       4.7       0.0       3.1
 1 C  px              0.0       0.2       0.0       0.0       3.3       0.0
 1 C  py              0.0       1.6       0.0       0.0       5.2       0.0
 1 C  dz2             0.0       0.0       0.0       0.0       1.4       0.0
 1 C  dxz             0.2       0.0       0.2       0.9       0.0       1.3
 1 C  dyz             0.2       0.0       0.7       0.6       0.0       0.1
 1 C  dxy             0.0       0.0       0.0       0.0       2.5       0.0
 2 Cl s               0.0       0.4       0.0       0.0       0.0       0.0
 2 Cl pz              0.3       0.0       0.1       6.0       0.0      23.8
 2 Cl px              0.0       1.7       0.0       0.0       1.7       0.0
 2 Cl py              0.0       0.8       0.0       0.0      19.4       0.0
 2 Cl dz2             0.0      28.1       0.0       0.0       7.3       0.0
 2 Cl dxz             0.6       0.0      30.4       7.9       0.0      21.4
 2 Cl dyz            48.6       0.0       7.1      29.1       0.0       0.0
 2 Cl dx2y2           0.0       7.3       0.0       0.0       1.7       0.0
 2 Cl dxy             0.0       5.8       0.0       0.0       4.0       0.0
 3 Cl s               0.0       0.4       0.0       0.0       0.0       0.0
 3 Cl pz              0.3       0.0       0.1       6.0       0.0      23.8
 3 Cl px              0.0       1.7       0.0       0.0       1.7       0.0
 3 Cl py              0.0       0.8       0.0       0.0      19.4       0.0
 3 Cl dz2             0.0      28.1       0.0       0.0       7.3       0.0
 3 Cl dxz             0.6       0.0      30.4       7.9       0.0      21.4
 3 Cl dyz            48.6       0.0       7.1      29.1       0.0       0.0
 3 Cl dx2y2           0.0       7.3       0.0       0.0       1.7       0.0
 3 Cl dxy             0.0       5.8       0.0       0.0       4.0       0.0
 4 H  s               0.0       2.3       0.0       0.0       0.4       0.0
 4 H  pz              0.0       0.0       0.1       0.8       0.0       0.3
 4 H  px              0.0       0.0       0.0       0.0       0.6       0.0
 4 H  py              0.0       1.2       0.0       0.0       0.0       0.0
 5 H  s               0.0       2.3       0.0       0.0       0.4       0.0
 5 H  pz              0.0       0.0       0.1       0.8       0.0       0.3
 5 H  px              0.0       0.0       0.0       0.0       0.6       0.0
 5 H  py              0.0       1.2       0.0       0.0       0.0       0.0

                     48        49        50        51        52        53   
                   0.52502   0.56553   0.62841   0.64380   0.71862   0.72656
                   0.00000   0.00000   0.00000   0.00000   0.00000   0.00000
                  --------  --------  --------  --------  --------  --------
 0 C  s               0.5      20.8       3.9       7.3       2.6       4.4
 0 C  px              8.4       6.8       2.2       1.1       9.8      14.2
 0 C  py             10.8       2.4       8.9       6.9       5.6       0.6
 0 C  dz2             0.1       0.2       0.0       1.1       0.1       0.8
 0 C  dx2y2           0.3       0.2       0.1       0.6       0.6       0.1
 0 C  dxy             0.0       3.2       0.0       1.2       1.2       0.7
 1 C  s               0.5      20.8       3.9       7.3       2.6       4.4
 1 C  px              8.4       6.8       2.2       1.1       9.8      14.2
 1 C  py             10.8       2.4       8.9       6.9       5.6       0.6
 1 C  dz2             0.1       0.2       0.0       1.1       0.1       0.8
 1 C  dx2y2           0.3       0.2       0.1       0.6       0.6       0.1
 1 C  dxy             0.0       3.2       0.0       1.2       1.2       0.7
 2 Cl s               3.5       0.6       1.2       2.6       0.6       1.9
 2 Cl px             14.2       0.0       0.6       0.9       1.2       3.1
 2 Cl py              0.6       0.6       6.4       1.8       2.2       1.8
 2 Cl dz2             0.5       6.9       2.5       2.6       8.0       7.7
 2 Cl dx2y2           3.8       6.7       1.8      19.9       1.2      12.7
 2 Cl dxy             2.2       1.1      17.6       1.9      13.2       0.8
 3 Cl s               3.5       0.6       1.2       2.6       0.6       1.9
 3 Cl px             14.2       0.0       0.6       0.9       1.2       3.1
 3 Cl py              0.6       0.6       6.4       1.8       2.2       1.8
 3 Cl dz2             0.5       6.9       2.5       2.6       8.0       7.7
 3 Cl dx2y2           3.8       6.7       1.8      19.9       1.2      12.7
 3 Cl dxy             2.2       1.1      17.6       1.9      13.2       0.8
 4 H  s               3.3       0.6       2.2       1.1       1.9       1.1
 4 H  px              0.1       0.0       0.7       1.0       0.8       0.1
 4 H  py              1.8       0.0       2.0       0.1       0.9       0.0
 5 H  s               3.3       0.6       2.2       1.1       1.9       1.1
 5 H  px              0.1       0.0       0.7       1.0       0.8       0.1
 5 H  py              1.8       0.0       2.0       0.1       0.9       0.0

                     54        55        56        57        58        59   
                   0.93785   1.02052   1.13744   1.17346   1.26517   1.31422
                   0.00000   0.00000   0.00000   0.00000   0.00000   0.00000
                  --------  --------  --------  --------  --------  --------
 0 C  s               1.1       1.6       2.3      12.7      18.6       7.1
 0 C  pz              0.0       0.0       0.0       0.0       0.0       0.2
 0 C  px              0.9       0.4       0.1       1.3       3.8       6.8
 0 C  py              2.0       2.3       1.4       4.4       3.5      13.5
 0 C  dz2             1.2       0.0       2.7       9.5       0.9       0.6
 0 C  dxz             0.0       0.0       0.0       0.0       0.0       2.1
 0 C  dyz             0.0       0.0       0.0       0.0       0.0       6.7
 0 C  dx2y2           1.0       8.2       0.6       0.4       1.2       3.9
 0 C  dxy             1.0       0.1       1.1       0.2       6.3       0.0
 1 C  s               1.1       1.6       2.3      12.7      18.6       7.1
 1 C  pz              0.0       0.0       0.0       0.0       0.0       0.2
 1 C  px              0.9       0.4       0.1       1.3       3.8       6.9
 1 C  py              2.0       2.3       1.4       4.4       3.5      13.5
 1 C  dz2             1.2       0.0       2.7       9.5       0.9       0.6
 1 C  dxz             0.0       0.0       0.0       0.0       0.0       2.1
 1 C  dyz             0.0       0.0       0.0       0.0       0.0       6.7
 1 C  dx2y2           1.0       8.2       0.6       0.4       1.2       3.8
 1 C  dxy             1.0       0.1       1.1       0.2       6.3       0.0
 2 Cl s              27.5      15.4      20.1       1.2       1.8       0.5
 2 Cl px              1.5       1.2       1.4       0.2       0.0       0.3
 2 Cl py              0.7       0.0       0.2       0.1       0.2       0.3
 2 Cl dz2             0.1       0.8       0.4       0.2       1.5       0.2
 2 Cl dyz             0.0       0.0       0.0       0.0       0.0       0.6
 2 Cl dx2y2           1.5       1.1       3.3       0.3       0.4       1.3
 2 Cl dxy             4.6       0.8       0.5       0.6       0.6       1.9
 3 Cl s              27.5      15.4      20.1       1.2       1.8       0.5
 3 Cl px              1.5       1.2       1.4       0.2       0.0       0.3
 3 Cl py              0.7       0.0       0.2       0.1       0.2       0.3
 3 Cl dz2             0.1       0.8       0.4       0.2       1.5       0.2
 3 Cl dyz             0.0       0.0       0.0       0.0       0.0       0.6
 3 Cl dx2y2           1.5       1.1       3.3       0.3       0.4       1.3
 3 Cl dxy             4.6       0.8       0.5       0.6       0.6       1.9
 4 H  s               3.9      17.5      14.5      18.5      10.6       0.0
 4 H  pz              0.0       0.0       0.0       0.0       0.0       2.8
 4 H  px              2.2       0.4       1.0       0.1       0.5       0.2
 4 H  py              0.8       0.2       0.2       0.4       0.1       1.1
 5 H  s               3.9      17.5      14.5      18.5      10.6       0.0
 5 H  pz              0.0       0.0       0.0       0.0       0.0       2.8
 5 H  px              2.2       0.4       1.0       0.1       0.5       0.2
 5 H  py              0.8       0.2       0.2       0.4       0.1       1.1

                     60        61        62        63        64        65   
                   1.31430   1.35901   1.37541   1.39936   1.42352   1.52117
                   0.00000   0.00000   0.00000   0.00000   0.00000   0.00000
                  --------  --------  --------  --------  --------  --------
 0 C  s               2.3       5.4       8.3       0.0       0.0      16.0
 0 C  pz              0.5       0.0       0.0      19.3      46.9       0.0
 0 C  px              2.3      12.3      18.3       0.0       0.0       4.2
 0 C  py              4.4       6.8       2.3       0.0       0.0      15.1
 0 C  dz2             0.2       0.3       4.4       0.0       0.0       3.2
 0 C  dxz             6.4       0.0       0.0       2.4       0.7       0.0
 0 C  dyz            20.4       0.0       0.0      12.4       0.1       0.0
 0 C  dx2y2           1.3       0.0       0.7       0.0       0.0       2.5
 0 C  dxy             0.0      10.8       2.7       0.0       0.0       0.3
 1 C  s               2.3       5.4       8.3       0.0       0.0      16.0
 1 C  pz              0.5       0.0       0.0      19.3      46.9       0.0
 1 C  px              2.2      12.3      18.3       0.0       0.0       4.2
 1 C  py              4.5       6.8       2.3       0.0       0.0      15.1
 1 C  dz2             0.2       0.3       4.4       0.0       0.0       3.2
 1 C  dxz             6.4       0.0       0.0       2.4       0.7       0.0
 1 C  dyz            20.3       0.0       0.0      12.4       0.1       0.0
 1 C  dx2y2           1.3       0.0       0.7       0.0       0.0       2.5
 1 C  dxy             0.0      10.8       2.7       0.0       0.0       0.3
 2 Cl s               0.2       4.7       3.0       0.0       0.0       0.0
 2 Cl pz              0.0       0.0       0.0       0.3       0.2       0.0
 2 Cl px              0.1       1.1       0.6       0.0       0.0       0.2
 2 Cl py              0.1       0.1       0.0       0.0       0.0       0.5
 2 Cl dz2             0.1       0.8       2.6       0.0       0.0       0.6
 2 Cl dxz             0.1       0.0       0.0       6.8       0.4       0.0
 2 Cl dyz             1.9       0.0       0.0       0.2       0.2       0.0
 2 Cl dx2y2           0.4       1.6       1.3       0.0       0.0       0.1
 2 Cl dxy             0.6       0.7       0.7       0.0       0.0       1.3
 3 Cl s               0.2       4.7       3.0       0.0       0.0       0.0
 3 Cl pz              0.0       0.0       0.0       0.3       0.2       0.0
 3 Cl px              0.1       1.1       0.6       0.0       0.0       0.2
 3 Cl py              0.1       0.1       0.0       0.0       0.0       0.5
 3 Cl dz2             0.1       0.8       2.6       0.0       0.0       0.6
 3 Cl dxz             0.1       0.0       0.0       6.8       0.4       0.0
 3 Cl dyz             1.9       0.0       0.0       0.2       0.2       0.0
 3 Cl dx2y2           0.4       1.6       1.3       0.0       0.0       0.1
 3 Cl dxy             0.6       0.7       0.7       0.0       0.0       1.3
 4 H  s               0.0       0.3       1.1       0.0       0.0       0.8
 4 H  pz              8.4       0.0       0.0       8.5       1.5       0.0
 4 H  px              0.1       4.8       3.7       0.0       0.0       4.7
 4 H  py              0.4       0.3       0.2       0.0       0.0       0.6
 5 H  s               0.0       0.3       1.1       0.0       0.0       0.8
 5 H  pz              8.4       0.0       0.0       8.5       1.5       0.0
 5 H  px              0.0       4.8       3.7       0.0       0.0       4.7
 5 H  py              0.4       0.3       0.2       0.0       0.0       0.6

                     66        67        68        69        70        71   
                   1.55082   1.59506   1.61086   1.61841   1.62790   1.64232
                   0.00000   0.00000   0.00000   0.00000   0.00000   0.00000
                  --------  --------  --------  --------  --------  --------
 0 C  s               0.0       0.0       0.3       0.0       0.0       1.7
 0 C  pz             18.5       0.7       0.0       5.0       1.1       0.0
 0 C  px              0.0       0.0       0.8       0.0       0.0       0.3
 0 C  py              0.0       0.0       0.7       0.0       0.0       0.1
 0 C  dz2             0.0       0.0       1.3       0.0       0.0       0.0
 0 C  dxz             4.4       0.2       0.0       2.8       9.0       0.0
 0 C  dyz             1.5       1.5       0.0       0.5       0.1       0.0
 0 C  dx2y2           0.0       0.0       0.0       0.0       0.0       0.4
 1 C  s               0.0       0.0       0.3       0.0       0.0       1.7
 1 C  pz             18.5       0.7       0.0       5.0       1.1       0.0
 1 C  px              0.0       0.0       0.8       0.0       0.0       0.3
 1 C  py              0.0       0.0       0.7       0.0       0.0       0.1
 1 C  dz2             0.0       0.0       1.3       0.0       0.0       0.0
 1 C  dxz             4.4       0.2       0.0       2.8       9.0       0.0
 1 C  dyz             1.5       1.5       0.0       0.5       0.1       0.0
 1 C  dx2y2           0.0       0.0       0.0       0.0       0.0       0.4
 2 Cl s               0.0       0.0       1.3       0.0       0.0       0.4
 2 Cl pz              0.5       0.1       0.0       0.3       1.0       0.0
 2 Cl px              0.0       0.0       0.3       0.0       0.0       0.7
 2 Cl dz2             0.0       0.0      35.2       0.0       0.0      13.5
 2 Cl dxz            20.2       0.4       0.0       0.1      35.8       0.0
 2 Cl dyz             5.1      45.4       0.0      40.9       1.5       0.0
 2 Cl dx2y2           0.0       0.0       6.0       0.0       0.0       9.9
 2 Cl dxy             0.0       0.0       3.2       0.0       0.0      22.7
 3 Cl s               0.0       0.0       1.3       0.0       0.0       0.4
 3 Cl pz              0.5       0.1       0.0       0.3       1.0       0.0
 3 Cl px              0.0       0.0       0.3       0.0       0.0       0.7
 3 Cl dz2             0.0       0.0      35.2       0.0       0.0      13.5
 3 Cl dxz            20.2       0.4       0.0       0.1      35.9       0.0
 3 Cl dyz             5.1      45.3       0.0      40.9       1.5       0.0
 3 Cl dx2y2           0.0       0.0       6.0       0.0       0.0       9.9
 3 Cl dxy             0.0       0.0       3.2       0.0       0.0      22.7
 4 H  s               0.0       0.0       0.5       0.0       0.0       0.0
 4 H  pz              0.0       1.8       0.0       0.4       1.4       0.0
 4 H  px              0.0       0.0       0.3       0.0       0.0       0.2
 5 H  s               0.0       0.0       0.5       0.0       0.0       0.0
 5 H  pz              0.0       1.8       0.0       0.4       1.4       0.0
 5 H  px              0.0       0.0       0.3       0.0       0.0       0.2

                     72        73        74        75        76        77   
                   1.65809   1.70430   1.73762   1.76373   1.78850   1.81754
                   0.00000   0.00000   0.00000   0.00000   0.00000   0.00000
                  --------  --------  --------  --------  --------  --------
 0 C  s               2.6       4.1       0.0       1.4       2.9       1.8
 0 C  pz              0.0       0.0       3.8       0.0       0.0       0.0
 0 C  px              2.6       5.8       0.0       0.3       1.0       2.3
 0 C  py              0.6       1.3       0.0       0.4       1.6      25.6
 0 C  dz2             0.3       0.0       0.0       0.5       0.8       0.6
 0 C  dxz             0.0       0.0       7.2       0.0       0.0       0.0
 0 C  dyz             0.0       0.0       8.1       0.0       0.0       0.0
 0 C  dx2y2           0.4       0.0       0.0       0.2       0.6       4.7
 0 C  dxy             0.5       0.1       0.0       0.1       0.0       0.0
 1 C  s               2.6       4.1       0.0       1.4       2.9       1.8
 1 C  pz              0.0       0.0       3.8       0.0       0.0       0.0
 1 C  px              2.6       5.8       0.0       0.3       1.0       2.3
 1 C  py              0.6       1.3       0.0       0.4       1.6      25.6
 1 C  dz2             0.3       0.0       0.0       0.5       0.8       0.6
 1 C  dxz             0.0       0.0       7.2       0.0       0.0       0.0
 1 C  dyz             0.0       0.0       8.1       0.0       0.0       0.0
 1 C  dx2y2           0.4       0.0       0.0       0.2       0.6       4.7
 1 C  dxy             0.5       0.1       0.0       0.1       0.0       0.0
 2 Cl s               0.5       1.2       0.0       0.3       0.4       1.0
 2 Cl pz              0.0       0.0       0.8       0.0       0.0       0.0
 2 Cl px              0.8       1.9       0.0       0.5       0.2       0.1
 2 Cl py              0.2       0.1       0.0       0.9       0.5       1.9
 2 Cl dz2             6.3      26.8       0.0       0.5       1.6       1.4
 2 Cl dxz             0.0       0.0      25.1       0.0       0.0       0.0
 2 Cl dyz             0.0       0.0       3.2       0.0       0.0       0.0
 2 Cl dx2y2          29.0       6.1       0.0      10.0      21.4       0.1
 2 Cl dxy             5.4       2.2       0.0      30.5      18.7       1.3
 3 Cl s               0.5       1.2       0.0       0.3       0.4       1.0
 3 Cl pz              0.0       0.0       0.8       0.0       0.0       0.0
 3 Cl px              0.8       1.9       0.0       0.5       0.2       0.1
 3 Cl py              0.2       0.1       0.0       0.9       0.5       1.9
 3 Cl dz2             6.3      26.8       0.0       0.5       1.6       1.4
 3 Cl dxz             0.0       0.0      25.1       0.0       0.0       0.0
 3 Cl dyz             0.0       0.0       3.2       0.0       0.0       0.0
 3 Cl dx2y2          29.0       6.1       0.0      10.0      21.4       0.1
 3 Cl dxy             5.4       2.2       0.0      30.5      18.7       1.3
 4 H  s               0.7       0.0       0.0       0.1       0.2       3.0
 4 H  pz              0.0       0.0       1.7       0.0       0.0       0.0
 4 H  px              0.0       0.5       0.0       4.4       0.0       5.5
 4 H  py              0.1       0.0       0.0       0.0       0.1       0.8
 5 H  s               0.7       0.0       0.0       0.1       0.2       3.0
 5 H  pz              0.0       0.0       1.7       0.0       0.0       0.0
 5 H  px              0.0       0.5       0.0       4.4       0.0       5.5
 5 H  py              0.1       0.0       0.0       0.0       0.1       0.8

                     78        79        80        81        82        83   
                   1.82734   2.01502   2.14538   2.17920   2.18130   2.22685
                   0.00000   0.00000   0.00000   0.00000   0.00000   0.00000
                  --------  --------  --------  --------  --------  --------
 0 C  s               0.0       5.7       0.5       0.0       1.6       0.4
[...]
 1 C  dx2y2           0.1       0.0       0.0       0.4       0.0       8.1
 1 C  dxy             0.5       0.0       0.0       2.1       0.0      11.3
 2 Cl pz              0.0      48.2      40.7       0.0       7.3       0.0
 2 Cl px              3.6       0.0       0.0       3.5       0.0       4.5
 2 Cl py             36.0       0.0       0.0      33.5       0.0       5.3
 2 Cl dxz             0.0       0.0       0.1       0.0       0.1       0.0
 2 Cl dxy             0.1       0.0       0.0       0.1       0.0       0.2
 3 Cl pz              0.0      48.2      40.7       0.0       7.3       0.0
 3 Cl px              3.6       0.0       0.0       3.5       0.0       4.5
 3 Cl py             36.0       0.0       0.0      33.5       0.0       5.3
 3 Cl dxz             0.0       0.0       0.1       0.0       0.1       0.0
 3 Cl dxy             0.1       0.0       0.0       0.1       0.0       0.2
 4 H  s               0.6       0.0       0.0       0.9       0.0       2.8
 4 H  pz              0.0       0.3       5.9       0.0      21.1       0.0
 4 H  px              5.1       0.0       0.0       0.2       0.0       3.8
 4 H  py              0.5       0.0       0.0       1.2       0.0       5.6
 5 H  s               0.6       0.0       0.0       0.9       0.0       2.8
 5 H  pz              0.0       0.3       6.0       0.0      21.1       0.0
 5 H  px              5.1       0.0       0.0       0.2       0.0       3.8
 5 H  py              0.5       0.0       0.0       1.2       0.0       5.6

                     90        91        92        93        94        95   
                   2.55158   2.60568   2.71952   2.84266   2.87388   3.19164
                   0.00000   0.00000   0.00000   0.00000   0.00000   0.00000
                  --------  --------  --------  --------  --------  --------
 0 C  s               0.0       3.7       1.7       1.5       2.5      11.9
 0 C  pz              0.7       0.0       0.0       0.0       0.0       0.0
 0 C  px              0.0       3.1       1.4       4.8       5.1       4.8
 0 C  py              0.0       2.2       0.8       0.0       1.8       3.4
 0 C  dz2             0.0       3.0       0.7       1.7       1.9       8.9
 0 C  dxz            13.8       0.0       0.0       0.0       0.0       0.0
 0 C  dyz            24.9       0.0       0.0       0.0       0.0       0.0
 0 C  dx2y2           0.0       0.3      12.1       2.7       1.2       0.1
 0 C  dxy             0.0       6.3       9.1       2.7       1.5      19.1
 1 C  s               0.0       3.7       1.7       1.5       2.5      11.9
 1 C  pz              0.7       0.0       0.0       0.0       0.0       0.0
 1 C  px              0.0       3.1       1.4       4.8       5.1       4.8
 1 C  py              0.0       2.2       0.8       0.0       1.8       3.4
 1 C  dz2             0.0       3.0       0.7       1.7       1.9       8.9
 1 C  dxz            13.8       0.0       0.0       0.0       0.0       0.0
 1 C  dyz            24.9       0.0       0.0       0.0       0.0       0.0
 1 C  dx2y2           0.0       0.3      12.1       2.7       1.2       0.1
 1 C  dxy             0.0       6.3       9.1       2.7       1.5      19.1
 2 Cl s               0.0       0.2       0.3       2.7       2.1       0.0
 2 Cl pz              0.2       0.0       0.0       0.0       0.0       0.0
 2 Cl px              0.0       0.4       8.5      29.0      19.8       0.6
 2 Cl py              0.0       8.1       0.7       2.3       1.8       0.0
 2 Cl dz2             0.0       0.2       0.5       0.2       0.1       0.0
 2 Cl dyz             0.4       0.0       0.0       0.0       0.0       0.0
 2 Cl dx2y2           0.0       0.5       0.7       0.5       0.1       0.1
 2 Cl dxy             0.0       0.0       0.3       0.2       0.3       0.1
 3 Cl s               0.0       0.2       0.3       2.7       2.1       0.0
 3 Cl pz              0.2       0.0       0.0       0.0       0.0       0.0
 3 Cl px              0.0       0.4       8.5      29.0      19.8       0.6
 3 Cl py              0.0       8.1       0.7       2.3       1.8       0.0
 3 Cl dz2             0.0       0.2       0.5       0.2       0.1       0.0
 3 Cl dyz             0.4       0.0       0.0       0.0       0.0       0.0
 3 Cl dx2y2           0.0       0.5       0.7       0.5       0.1       0.1
 3 Cl dxy             0.0       0.0       0.3       0.2       0.3       0.1
 4 H  s               0.0       0.2       0.6       0.1       0.2       0.0
 4 H  pz             10.0       0.0       0.0       0.0       0.0       0.0
 4 H  px              0.0      21.7       2.8       1.2      10.6       0.3
 4 H  py              0.0       0.2       9.7       0.5       1.2       0.5
 5 H  s               0.0       0.2       0.6       0.1       0.2       0.0
 5 H  pz             10.0       0.0       0.0       0.0       0.0       0.0
 5 H  px              0.0      21.7       2.8       1.2      10.6       0.3
 5 H  py              0.0       0.2       9.7       0.5       1.2       0.5

                     96        97        98        99       100       101   
                   3.36124   3.53439  21.50576  21.99395  24.92637  25.13449
                   0.00000   0.00000   0.00000   0.00000   0.00000   0.00000
                  --------  --------  --------  --------  --------  --------
 0 C  s               1.3       2.5      49.9      49.8       0.1       0.1
 0 C  px              0.1       0.1       0.0       0.1       0.1       0.0
 0 C  py              6.3       3.1       0.0       0.0       0.0       0.0
 0 C  dz2             2.7       0.8       0.0       0.0       0.0       0.0
 0 C  dx2y2           4.9      17.3       0.0       0.0       0.0       0.0
 0 C  dxy             3.2       0.0       0.0       0.0       0.0       0.0
 1 C  s               1.3       2.5      49.9      49.8       0.1       0.1
 1 C  px              0.1       0.1       0.0       0.1       0.1       0.0
 1 C  py              6.3       3.1       0.0       0.0       0.0       0.0
 1 C  dz2             2.7       0.8       0.0       0.0       0.0       0.0
 1 C  dx2y2           4.9      17.3       0.0       0.0       0.0       0.0
 1 C  dxy             3.2       0.0       0.0       0.0       0.0       0.0
 2 Cl s               0.0       0.1       0.0       0.1      49.7      49.8
 2 Cl px              0.1       0.2       0.0       0.0       0.0       0.1
 2 Cl dx2y2           0.0       0.2       0.0       0.0       0.0       0.0
 2 Cl dxy             0.0       0.1       0.0       0.0       0.0       0.0
 3 Cl s               0.0       0.1       0.0       0.1      49.7      49.7
 3 Cl px              0.1       0.2       0.0       0.0       0.0       0.1
 3 Cl dx2y2           0.0       0.2       0.0       0.0       0.0       0.0
 3 Cl dxy             0.0       0.1       0.0       0.0       0.0       0.0
 4 H  s               6.2       6.3       0.0       0.0       0.0       0.0
 4 H  px              0.2       1.3       0.0       0.0       0.0       0.0
 4 H  py             24.9      17.8       0.0       0.0       0.0       0.0
 5 H  s               6.2       6.3       0.0       0.0       0.0       0.0
 5 H  px              0.2       1.3       0.0       0.0       0.0       0.0
 5 H  py             25.0      17.8       0.0       0.0       0.0       0.0



                      *****************************
                      * MAYER POPULATION ANALYSIS *
                      *****************************

  NA   - Mulliken gross atomic population
  ZA   - Total nuclear charge
  QA   - Mulliken gross atomic charge
  VA   - Mayer's total valence
  BVA  - Mayer's bonded valence
  FA   - Mayer's free valence

  ATOM       NA         ZA         QA         VA         BVA        FA
  0 C      6.0982     6.0000    -0.0982     3.8453     3.8453     0.0000
  1 C      6.0982     6.0000    -0.0982     3.8453     3.8453     0.0000
  2 Cl    17.1252    17.0000    -0.1252     1.1343     1.1343    -0.0000
  3 Cl    17.1252    17.0000    -0.1252     1.1343     1.1343    -0.0000
  4 H      0.7765     1.0000     0.2235     0.9344     0.9344     0.0000
  5 H      0.7765     1.0000     0.2235     0.9344     0.9344     0.0000

  Mayer bond orders larger than 0.100000
B(  0-C ,  1-C ) :   1.8436 B(  0-C ,  2-Cl) :   0.1050 B(  0-C ,  3-Cl) :   0.9792 
B(  0-C ,  4-H ) :   0.9275 B(  1-C ,  2-Cl) :   0.9792 B(  1-C ,  3-Cl) :   0.1050 
B(  1-C ,  5-H ) :   0.9275 

-------
TIMINGS
-------

Total SCF time: 0 days 0 hours 0 min 7 sec 

Total time                  ....       7.283 sec
Sum of individual times     ....       6.764 sec  ( 92.9%)

SCF preparation             ....       0.181 sec  (  2.5%)
Fock matrix formation       ....       5.809 sec  ( 79.8%)
  Startup                   ....       0.049 sec  (  0.8% of F)
  Split-RI-J                ....       0.533 sec  (  9.2% of F)
  XC integration            ....       3.934 sec  ( 67.7% of F)
    Basis function eval.    ....       0.612 sec  ( 15.6% of XC)
    Density eval.           ....       0.756 sec  ( 19.2% of XC)
    XC-Functional eval.     ....       0.668 sec  ( 17.0% of XC)
    XC-Potential eval.      ....       0.916 sec  ( 23.3% of XC)
  CPCM terms                ....       0.847 sec  ( 14.6% of F)
Diagonalization             ....       0.000 sec  (  0.0%)
Density matrix formation    ....       0.208 sec  (  2.9%)
Total Energy calculation    ....       0.040 sec  (  0.5%)
Population analysis         ....       0.038 sec  (  0.5%)
Orbital Transformation      ....       0.038 sec  (  0.5%)
Orbital Orthonormalization  ....       0.000 sec  (  0.0%)
DIIS solution               ....       0.393 sec  (  5.4%)
  MO trafo                  ....       0.000 sec  (  0.0 % of DIIS)
  Orb grad                  ....       0.000 sec  (  0.0 % of DIIS)
  Energy W gradient         ....       0.000 sec  (  0.0 % of DIIS)
  DIIS error                ....       0.002 sec  (  0.4 % of DIIS)
  DIIS work                 ....       0.354 sec  ( 90.0 % of DIIS)
  Form Q                    ....       0.000 sec  (  0.0 % of DIIS)
  Form QpQm                 ....       0.000 sec  (  0.0 % of DIIS)
  Exp/Cayley                ....       0.000 sec  (  0.0 % of DIIS)
  Orb update                ....       0.000 sec  (  0.0 % of DIIS)
  Wake-sleep                ....       0.016 sec  (  4.1 % of DIIS)
SOSCF solution              ....       0.056 sec  (  0.8%)
  MO trafo                  ....       0.028 sec  ( 49.1 % of SOSCF)
  Orb grad                  ....       0.001 sec  (  1.9 % of SOSCF)
  Rot update                ....       0.017 sec  ( 30.0 % of SOSCF)
  Step                      ....       0.011 sec  ( 19.0 % of SOSCF)
Finished LeanSCF after   7.4 sec

Maximum memory used throughout the entire LEANSCF-calculation: 10.4 MB


-------------------------------------------------------------------------------
                          DFT DISPERSION CORRECTION                            
                                                                               
                                DFTD4 V3.4.0                                   
-------------------------------------------------------------------------------
The R2SCAN3C composite method is recognized
Using three-body term ABC
Active option DFTDOPT                   ...         5   

-------------------------   ----------------
Dispersion correction           -0.001445059
-------------------------   ----------------

------------------   -----------------
gCP correction             0.005005936
------------------   -----------------

-------------------------   --------------------
FINAL SINGLE POINT ENERGY      -997.716686050158
-------------------------   --------------------


------------------------------------------------------------------------------
                              ORCA PROPERTY CALCULATIONS
------------------------------------------------------------------------------

GBWName                                 ... sp_solv.gbw
Number of atoms                         ...      6
Number of basis functions               ...    102
Max core memory                         ...   1024 MB

Electric properties:
Dipole moment                           ... YES
Quadrupole moment                       ...  NO
Static polarizability (Dipole/Dipole)   ...  NO
Static polarizability (Dipole/Quad.)    ...  NO
Static polarizability (Quad./Quad.)     ...  NO
Static polarizability (Velocity)        ...  NO

Atomic electric properties:
Dipole moment                           ...  NO
Quadrupole moment                       ...  NO
Static polarizability                   ...  NO

Choice of electric origin               ... Center of mass
Position of electric origin             ...    -0.000000     0.000000    -0.000000

General magnetic properties:
Magnetizability                         ...  NO

EPR properties:
g-Tensor (aka g-matrix)                 ...  NO
Zero-Field splitting spin-orbit         ...  NO
Zero-field splitting spin-spin          ...  NO
Hyperfine couplings                     ...  NO (   0 nuclei)
Quadrupole couplings                    ...  NO (   0 nuclei)
Contact density                         ...  NO (   0 nuclei)

NMR properties:
Chemical shifts                         ...  NO (   0 nuclei)
Spin-rotation constants                 ...  NO (   0 nuclei)
Spin-spin couplings                     ...  NO (   0 nuclei,    0 pairs)

Choice of magnetic origin               ... GIAO
Position of magnetic origin             ...     0.000000     0.000000     0.000000

Properties with geometric perturbations:
SCF Hessian                             ...  NO
IR spectrum                             ...  NO
VCD spectrum                            ...  NO
X-ray spectroscopy properties:
SCF XES/XAS/RIXS spectra                ...  NO


-------------
DIPOLE MOMENT
-------------

Method             : SCF
Type of density    : Electron Density
Multiplicity       :   1
Irrep              :   0
Energy             :  -997.7202469271539940 Eh
Relativity type    : 
Basis              : AO
                                X                 Y                 Z
Electronic contribution:      0.000086480      -0.000023644       0.001034100
Nuclear contribution   :     -0.000068525       0.000041939      -0.000606164
                        -----------------------------------------
Total Dipole Moment    :      0.000017955       0.000018295       0.000427936
                        -----------------------------------------
Magnitude (a.u.)       :      0.000428703
Magnitude (Debye)      :      0.001089676



--------------------
Rotational spectrum 
--------------------
 
Rotational constants in cm-1:             1.770341             0.051097             0.049663 
Rotational constants in MHz :         53073.480651          1531.843582          1488.870874 

Dipole components along the rotational axes: 
x,y,z [a.u.] :     0.000018     0.000018     0.000428 
x,y,z [Debye]:     0.000046     0.000047     0.001088 

 

Dipole moment calculation done in   0.0 sec 

Maximum memory used throughout the entire PROP-calculation: 6.0 MB

--------------------------------
SUGGESTED CITATIONS FOR THIS RUN
--------------------------------

Below you find a list of papers that are relevant to this ORCA run
We neither can nor want to force you to cite these papers, but we appreciate if you do
You receive ORCA, which is the product of decades of hard work by many enthusiastic individuals, for free
The only thing we kindly ask in return is that you cite our papers,
We deeply appreciate it, if you show your appreciation for ORCA by not just citing the generic ORCA reference.

Please note that relegating all ORCA citations to the supporting information does *not* help us.
SI sections are not indexed - citations you put there will not count into any citation statistics
But we need these citations in order to attract the funding resources that allow us to do what we are doing

Therefore, if you are a happy ORCA user, please consider citing a few of the papers listed below in the main body of your paper

In addition to the list printed below, the program has created the file sp_solv.bibtex that contains the list in bibtex format
You can import this file easily into all common literature databanks and citation aid programs


List of essential papers. We consider these as the minimum necessary citations

  1. Neese,F.
     Software update: the ORCA program system, version 5.0
     WIRES Comput. Molec. Sci., 2022 12(1)e1606
     doi.org/10.1002/wcms.1606
  2. Grimme,S.; Hansen,A.; Ehlert,S.; Mewes,J.
     r2SCAN-3c: A 'Swiss army knife' composite electronic-structure method
     J. Chem. Phys., 2021 154 064103
     doi.org/10.1063/5.0040021

List of papers to cite with high priority. The work reported in these papers was absolutely
necessary for this run to complete.
Our perspective: the developers of density functionals and basis sets usually get cited in chemistry papers
Good! But without the algorithms to do something with them, the functionals or basis sets would not do anything.
Hence, in our opinion, the algorithm design and method developments papers are equally worthy of getting cited

  1. Neese,F.
     An improvement of the resolution of the identity approximation for the formation of the Coulomb matrix
     J. Comp. Chem., 2003 24(14)1740-1747
     doi.org/10.1002/jcc.10318
  2. Garcia-Rates,M.; Neese,F.
     Effect of the Solute Cavity on the Solvation Energy and its Derivatives within the Framework of the Gaussian Charge Scheme
     J. Comput. Chem., 2020 41 922-939
     doi.org/10.1002/jcc.26139
  3. Neese,F.
     The SHARK Integral Generation and Digestion System
     J. Comp. Chem., 2022  1-16
     doi.org/10.1002/jcc.26942
  4. Lehtola,S.; Steigemann,C.; Oliveira,M.; Marques,M.
     Recent developments in Libxc - A comprehensive library of functionals for density functional theory
     Software X, 2018 7 
     doi.org/10.1016/j.softx.2017.11.002
  5. Caldeweyher,E.; Bannwarth,C.; Grimme,S.
     Extension of the D3 dispersion coefficient model
     J. Chem. Phys., 2017 147 034112-XXXX
     doi.org/10.1063/1.4993215
  6. Caldeweyher,E.; Ehlert,S.; Hansen,A.; Neugebauer,H.; Spicher,S.; Bannwarth,C.; Grimme,S.
     A generally applicable atomic-charge dependent London dispersion correction
     J. Chem. Phys., 2019 150 154122-XXXX
     doi.org/10.1063/1.5090222
  7. Caldeweyher,E.; Mewes,J.; Ehlert,S.; Grimme,S.
     Extension and evaluation of the D4 London-dispersion model for periodic systems
     Phys. Chem. Chem. Phys., 2020 22(16)8499-8512
     doi.org/10.1039/D0CP00502A

List of suggested additional citations. These are papers that are important in the 'surrounding' of 
of this run, or papers that preceded the highly important papers. If you like your results we are grateful for a citation.

  1. Neese,F.
     The ORCA program system
     WIRES Comput. Molec. Sci., 2012 2(1)73-78
     doi.org/10.1002/wcms.81
  2. Neese,F.
     Software update: the ORCA program system, version 4.0
     WIRES Comput. Molec. Sci., 2018 8(1)1-6
     doi.org/10.1002/wcms.1327
  3. Neese,F.; Wennmohs,F.; Becker,U.; Riplinger,C.
     The ORCA quantum chemistry program package
     J. Chem. Phys., 2020 152 Art. No. L224108
     doi.org/10.1063/5.0004608

List of optional additional citations

  1. Neese,F.
     Approximate second-order SCF convergence for spin unrestricted wavefunctions
     Chem. Phys. Lett., 2000 325(1-3)93-98
     doi.org/10.1016/s0009-2614(00)00662-x

Timings for individual modules:

Sum of individual times          ...        8.165 sec (=   0.136 min)
Startup calculation              ...        0.490 sec (=   0.008 min)   6.0 %
SCF iterations                   ...        7.590 sec (=   0.126 min)  93.0 %
Property calculations            ...        0.085 sec (=   0.001 min)   1.0 %
                             ****ORCA TERMINATED NORMALLY****
TOTAL RUN TIME: 0 days 0 hours 0 minutes 8 seconds 807 msec
