12
 energy: -23.043365788419 gnorm: 0.013840309939 xtb: 6.7.1 (edcfbbe)
C           -0.69625778729163       -1.21382655267520       -0.00001315759369
C            0.69627545658222       -1.21383708468324       -0.00000675420370
C            1.37141605003659       -0.00001879765620        0.00001956350286
C            0.69629786687350        1.21381188654764        0.00002161996246
C           -0.69623564408442        1.21382653497222       -0.00001338399021
C           -1.37137787306878        0.00000609881779       -0.00001561975216
Br          -3.28712027683207        0.00002427316500       -0.00008693289013
Br           3.28715552563854       -0.00003872283222        0.00007820666728
H           -1.23296307056027       -2.15528773275784       -0.00003604383715
H            1.23295556231790       -2.15531014822364        0.00001154894640
H            1.23299583557859        2.15527481291030        0.00003244654135
H           -1.23292215394843        2.15529702187814       -0.00001200018828
12
 energy: -23.043685411883 gnorm: 0.004384504355 xtb: 6.7.1 (edcfbbe)
C           -0.69297745473484       -1.20917325642727       -0.00002791511611
C            0.69299293900584       -1.20918550989154        0.00001262849307
C            1.36826207042884       -0.00001925135546        0.00003524893734
C            0.69301563006874        1.20915958411947        0.00002239230457
C           -0.69295489834945        1.20917309846780       -0.00001291737180
C           -1.36822422273008        0.00000621251790       -0.00004106421971
Br          -3.28294356609340        0.00002414905847       -0.00006480502618
Br           3.28298066515669       -0.00003728660536        0.00006679497113
H           -1.23124075532157       -2.14447641612819       -0.00004294459007
H            1.23123436993316       -2.14450082622791        0.00001423544194
H            1.23127475328038        2.14446473207115        0.00003947125896
H           -1.23120003940257        2.14448635986370       -0.00002163191812
12
 energy: -23.043704960969 gnorm: 0.001624142248 xtb: 6.7.1 (edcfbbe)
C           -0.69206165471214       -1.20842084132650       -0.00001901080552
C            0.69207629457961       -1.20843364582662        0.00000149559371
C            1.36802078747981       -0.00001934993411        0.00002055068258
C            0.69209894003505        1.20840758758157        0.00001650809216
C           -0.69203905755189        1.20842071751132       -0.00000733358197
C           -1.36798360857573        0.00000628205491       -0.00002205083005
Br          -3.28246204007670        0.00002421281790       -0.00008215896718
Br           3.28249888588018       -0.00003730974775        0.00007669959205
H           -1.23244868837827       -2.14121211144951       -0.00003736551904
H            1.23244391927272       -2.14123630493360        0.00001206572888
H            1.23248407933103        2.14120009285993        0.00003458115847
H           -1.23240836604192        2.14122225985521       -0.00001448797906
12
 energy: -23.043707967851 gnorm: 0.000328105015 xtb: 6.7.1 (edcfbbe)
C           -0.69179912109299       -1.20866959258672       -0.00003104044923
C            0.69181225963381       -1.20868290200044        0.00001618540757
C            1.36816564230744       -0.00001938671684        0.00004333058393
C            0.69183493908068        1.20865681825629        0.00002689166711
C           -0.69177643980639        1.20866950409182       -0.00001692268957
C           -1.36812876579742        0.00000631783131       -0.00004926104897
Br          -3.28221813941358        0.00002423272499       -0.00005928737969
Br           3.28225654886419       -0.00003730978609        0.00005901242566
H           -1.23431227305060       -2.14019134938428       -0.00004586788830
H            1.23430841098785       -2.14021460632544        0.00001795133916
H            1.23434853811037        2.14017835840375        0.00004149513281
H           -1.23427210858161        2.14020150495439       -0.00002299393546
12
 energy: -23.043708183472 gnorm: 0.000076457470 xtb: 6.7.1 (edcfbbe)
C           -0.69189221539122       -1.20888517900031       -0.00001149672940
C            0.69190626259260       -1.20889807607075       -0.00000646411772
C            1.36814062246270       -0.00001936596676        0.00000386381901
C            0.69192894540418        1.20887202796494        0.00000847969512
C           -0.69186953803501        1.20888509018332        0.00000063113189
C           -1.36810441450652        0.00000630080295       -0.00000432275659
Br          -3.28201775887256        0.00002425898118       -0.00009723398656
Br           3.28205337923329       -0.00003733581892        0.00008951758315
H           -1.23465372847931       -2.14052114345921       -0.00003185969393
H            1.23465067423658       -2.14054401222959        0.00000753340427
H            1.23469082464797        2.14050778909186        0.00002964839986
H           -1.23461356205096        2.14053123498404       -0.00000880358408
12
 energy: -23.043708194494 gnorm: 0.000008335583 xtb: 6.7.1 (edcfbbe)
C           -0.69187396524199       -1.20884841226462       -0.00003674109634
C            0.69188822000472       -1.20886127999914        0.00002158231449
C            1.36811873815444       -0.00001936814974        0.00005650685132
C            0.69191090318786        1.20883523012845        0.00003333945139
C           -0.69185128395717        1.20884832348411       -0.00002348465052
C           -1.36808219854207        0.00000630064407       -0.00006230047685
Br          -3.28200521880239        0.00002425626429       -0.00004843201028
Br           3.28204107331450       -0.00003732668653        0.00004834782631
H           -1.23461706220102       -2.14044929148568       -0.00004999529463
H            1.23461351374678       -2.14047256721164        0.00002217304396
H            1.23465366995787        2.14043633794270        0.00004555771933
H           -1.23457689837979        2.14045938679650       -0.00002706051315
