 Entering Gaussian System
 *********************************************
 Gaussian 98:
 frequency output generated by the xtb code
 *********************************************
                         Standard orientation:
 --------------------------------------------------------------------
  Center     Atomic     Atomic              Coordinates (Angstroms)
  Number     Number      Type              X           Y           Z
 --------------------------------------------------------------------
    1          6             0       -1.584133    0.898690   -0.286525
    2          6             0       -1.331153   -0.490056    0.285004
    3          6             0        0.079795   -0.991597    0.405542
    4          6             0        1.265812   -0.472906    0.121078
    5          6             0        1.658550    0.852872   -0.445833
    6          1             0       -2.657033    1.081127   -0.316357
    7          1             0       -1.201334    0.978663   -1.300495
    8          1             0       -1.131518    1.665901    0.336179
    9          1             0       -1.772072   -0.540545    1.286872
   10          1             0       -1.872942   -1.220976   -0.325684
   11          1             0        0.087958   -1.997238    0.816263
   12          1             0        2.126353   -1.103479    0.322724
   13          1             0        2.365423    1.335345    0.229237
   14          1             0        0.821125    1.517432   -0.605711
   15          1             0        2.170640    0.698941   -1.396062
 --------------------------------------------------------------------
     1 basis functions        1 primitive gaussians
     1 alpha electrons        1 beta electrons
 
 Harmonic frequencies (cm**-1), IR intensities (km*mol⁻¹),
 Raman scattering activities (A**4/amu), Raman depolarization ratios,
 reduced masses (AMU), force constants (mDyne/A) and normal coordinates:
                      1                      2                      3
                        a                      a                      a 
 Frequencies --    13.6611                57.2399               251.7784
 Red. masses --     2.4205                 5.2050                 9.1219
 Frc consts  --     0.0000                 0.0000                 0.0000
 IR Inten    --     0.1537                 1.3521                 0.5760
 Raman Activ --     0.0000                 0.0000                 0.0000
 Depolar     --     0.0000                 0.0000                 0.0000
 Atom AN      X      Y      Z        X      Y      Z        X      Y      Z
   1   6    -0.01   0.08   0.21     0.03   0.10   0.22    -0.63  -0.02   0.04
   2   6    -0.02  -0.07  -0.17    -0.02  -0.15  -0.36    -0.04   0.06  -0.03
   3   6     0.00   0.03   0.04     0.01   0.07   0.19     0.05   0.19  -0.08
   4   6     0.01   0.03   0.06     0.01   0.10   0.24     0.18  -0.03   0.01
   5   6     0.02  -0.07  -0.16    -0.03  -0.09  -0.24     0.49  -0.13   0.03
   6   1     0.00   0.07   0.18     0.01   0.02   0.02    -0.20  -0.13   0.07
   7   1    -0.11   0.07   0.02     0.07   0.17   0.10    -0.23   0.05  -0.01
   8   1     0.10  -0.04   0.06    -0.04  -0.05   0.20    -0.23   0.04  -0.02
   9   1    -0.06  -0.11  -0.08    -0.16  -0.21  -0.18     0.02  -0.02   0.01
  10   1     0.05   0.02  -0.14     0.13   0.01  -0.29     0.02  -0.02   0.01
  11   1     0.00   0.03   0.07     0.01   0.06   0.14    -0.01   0.05  -0.02
  12   1     0.01   0.04   0.11     0.01   0.07   0.17     0.00  -0.07   0.03
  13   1    -0.36   0.22   0.16     0.21  -0.08  -0.27     0.17  -0.08   0.00
  14   1    -0.04  -0.19  -0.51     0.02   0.05   0.13     0.16  -0.00   0.03
  15   1     0.43  -0.10   0.19    -0.27  -0.11  -0.20     0.12  -0.06   0.00
                      4                      5                      6
                        a                      a                      a 
 Frequencies --   313.2956               315.2821               384.9925
 Red. masses --     8.7180                 3.3785                 6.2658
 Frc consts  --     0.0000                 0.0000                 0.0000
 IR Inten    --     3.9782                 0.0654                 0.0015
 Raman Activ --     0.0000                 0.0000                 0.0000
 Depolar     --     0.0000                 0.0000                 0.0000
 Atom AN      X      Y      Z        X      Y      Z        X      Y      Z
   1   6    -0.19   0.23  -0.08    -0.02   0.03   0.03     0.00   0.03   0.07
   2   6     0.32   0.25  -0.13     0.02   0.04   0.05     0.00   0.04   0.10
   3   6     0.20  -0.12   0.01     0.03   0.11   0.26    -0.03  -0.19  -0.46
   4   6     0.28  -0.28   0.12    -0.00  -0.15  -0.32     0.02   0.17   0.41
   5   6    -0.41  -0.14   0.08    -0.01  -0.02  -0.01    -0.00  -0.05  -0.13
   6   1    -0.08  -0.07   0.07    -0.03  -0.19  -0.44    -0.01  -0.11  -0.26
   7   1    -0.16   0.12  -0.06     0.40   0.14   0.17     0.25   0.09   0.12
   8   1    -0.12   0.13  -0.06    -0.40   0.05   0.25    -0.24   0.03   0.17
   9   1     0.09   0.07  -0.03    -0.10  -0.04  -0.03     0.17   0.09   0.11
  10   1     0.08   0.07  -0.03     0.10   0.01  -0.06    -0.15   0.02   0.16
  11   1    -0.04  -0.03   0.01     0.00   0.04   0.10    -0.01  -0.08  -0.19
  12   1     0.10  -0.05   0.03    -0.00  -0.07  -0.15     0.01   0.08   0.18
  13   1    -0.16   0.08  -0.02    -0.12  -0.01   0.12    -0.01   0.11  -0.12
  14   1    -0.24  -0.19   0.08    -0.02  -0.04  -0.04    -0.01  -0.05  -0.16
  15   1    -0.16   0.05  -0.01     0.12   0.09   0.05     0.00  -0.18  -0.01
                      7                      8                      9
                        a                      a                      a 
 Frequencies --   662.9736               701.7108               828.7755
 Red. masses --     8.5465                 2.0727                 2.9157
 Frc consts  --     0.0000                 0.0000                 0.0000
 IR Inten    --     1.9395                22.2801                 1.2334
 Raman Activ --     0.0000                 0.0000                 0.0000
 Depolar     --     0.0000                 0.0000                 0.0000
 Atom AN      X      Y      Z        X      Y      Z        X      Y      Z
   1   6     0.06  -0.12   0.05    -0.00   0.00   0.01    -0.01  -0.04  -0.11
   2   6    -0.35  -0.08   0.06    -0.01  -0.07  -0.17    -0.02  -0.11  -0.25
   3   6    -0.01   0.52  -0.22    -0.01  -0.05  -0.10     0.02   0.10   0.26
   4   6     0.40  -0.17   0.04    -0.02  -0.08  -0.20     0.01   0.02   0.06
   5   6    -0.06  -0.11   0.05     0.00  -0.00  -0.02     0.00   0.02   0.04
   6   1     0.06   0.18  -0.08     0.00   0.02   0.05     0.01   0.06   0.11
   7   1     0.12  -0.13   0.04    -0.00   0.17   0.02    -0.03   0.39  -0.01
   8   1     0.12  -0.12   0.05     0.01  -0.11   0.13     0.05  -0.28   0.27
   9   1    -0.04  -0.06   0.04     0.24   0.21   0.08     0.12   0.36   0.02
  10   1    -0.05  -0.07   0.03    -0.22  -0.08   0.23    -0.11  -0.23   0.28
  11   1    -0.04   0.14  -0.05     0.03   0.20   0.50    -0.01  -0.09  -0.22
  12   1     0.04  -0.13   0.06     0.03   0.19   0.46    -0.02  -0.13  -0.32
  13   1    -0.08   0.14  -0.04    -0.03  -0.14   0.13     0.02   0.08  -0.07
  14   1    -0.19  -0.23   0.10     0.01   0.04   0.11    -0.00  -0.02  -0.05
  15   1    -0.08   0.12  -0.04     0.04   0.20  -0.01    -0.03  -0.12   0.01
                     10                     11                     12
                        a                      a                      a 
 Frequencies --   845.8361               957.3496               971.9928
 Red. masses --     9.5452                 2.9165                 5.8616
 Frc consts  --     0.0000                 0.0000                 0.0000
 IR Inten    --     3.0378                 0.3359                40.8289
 Raman Activ --     0.0000                 0.0000                 0.0000
 Depolar     --     0.0000                 0.0000                 0.0000
 Atom AN      X      Y      Z        X      Y      Z        X      Y      Z
   1   6    -0.18   0.29  -0.11    -0.02   0.01  -0.01     0.20  -0.19   0.06
   2   6    -0.42  -0.12   0.08    -0.01  -0.01   0.01     0.03   0.11  -0.05
   3   6     0.19  -0.46   0.18     0.01  -0.10  -0.27    -0.27  -0.10   0.03
   4   6     0.24  -0.12   0.03     0.03   0.13   0.26    -0.04  -0.17   0.12
   5   6     0.16   0.26  -0.12    -0.03  -0.03  -0.00     0.33   0.29  -0.15
   6   1    -0.01   0.28  -0.12     0.00   0.03  -0.01     0.00  -0.31   0.14
   7   1     0.05   0.00  -0.00     0.01   0.01   0.00    -0.11   0.06  -0.03
   8   1     0.05   0.01  -0.02     0.01  -0.01   0.01    -0.10   0.05  -0.00
   9   1    -0.14   0.00   0.01    -0.00  -0.02  -0.00    -0.07   0.10  -0.04
  10   1    -0.14   0.01   0.00     0.01  -0.00  -0.01    -0.06   0.10  -0.03
  11   1     0.07  -0.13   0.05     0.05   0.25   0.59    -0.18  -0.01   0.07
  12   1     0.14   0.04  -0.02    -0.02  -0.22  -0.60    -0.12  -0.20   0.02
  13   1     0.02   0.14  -0.05    -0.02  -0.03   0.03    -0.03   0.32  -0.10
  14   1    -0.02   0.00  -0.00     0.02   0.03   0.01    -0.16  -0.19   0.09
  15   1     0.02   0.13  -0.06     0.03  -0.01   0.02    -0.03   0.30  -0.13
                     13                     14                     15
                        a                      a                      a 
 Frequencies --  1043.1315              1054.7461              1081.8992
 Red. masses --     4.2234                 6.6897                 4.8783
 Frc consts  --     0.0000                 0.0000                 0.0000
 IR Inten    --     2.6539                 4.6342                 4.4377
 Raman Activ --     0.0000                 0.0000                 0.0000
 Depolar     --     0.0000                 0.0000                 0.0000
 Atom AN      X      Y      Z        X      Y      Z        X      Y      Z
   1   6     0.01   0.00   0.08     0.16   0.28  -0.12     0.27  -0.11   0.01
   2   6    -0.01  -0.01  -0.10    -0.10  -0.33   0.14    -0.36   0.05   0.04
   3   6    -0.01   0.00   0.01     0.07   0.03  -0.02     0.09   0.05  -0.05
   4   6    -0.01  -0.14  -0.28    -0.13   0.32  -0.14     0.27  -0.09   0.01
   5   6     0.02   0.18   0.38     0.13  -0.28   0.13    -0.19   0.03  -0.00
   6   1    -0.00  -0.03  -0.04    -0.01  -0.16   0.06    -0.01  -0.40   0.18
   7   1     0.01  -0.11   0.01    -0.14   0.19  -0.09    -0.17   0.16  -0.07
   8   1    -0.01   0.07  -0.06    -0.14   0.21  -0.07    -0.16   0.12  -0.02
   9   1     0.11  -0.03   0.02    -0.06  -0.03   0.02    -0.25   0.16  -0.05
  10   1    -0.11   0.06  -0.00    -0.08  -0.02   0.01    -0.18   0.14  -0.06
  11   1    -0.01   0.09   0.22     0.33   0.01  -0.00     0.05   0.01  -0.00
  12   1     0.01   0.01   0.03    -0.10  -0.00   0.01     0.19   0.13  -0.04
  13   1     0.17   0.36  -0.32    -0.04   0.10  -0.03     0.04  -0.18   0.05
  14   1    -0.00  -0.04  -0.23    -0.19  -0.34   0.13     0.15   0.23  -0.10
  15   1    -0.19  -0.49   0.07    -0.07   0.02  -0.03     0.06  -0.14   0.08
                     16                     17                     18
                        a                      a                      a 
 Frequencies --  1094.9526              1147.7169              1262.4137
 Red. masses --     4.8168                 8.1138                 2.4445
 Frc consts  --     0.0000                 0.0000                 0.0000
 IR Inten    --     0.3443                17.5180                 0.0381
 Raman Activ --     0.0000                 0.0000                 0.0000
 Depolar     --     0.0000                 0.0000                 0.0000
 Atom AN      X      Y      Z        X      Y      Z        X      Y      Z
   1   6     0.04   0.09   0.25     0.08   0.34  -0.15     0.01   0.12   0.28
   2   6    -0.05  -0.16  -0.40     0.13  -0.43   0.18     0.00  -0.07  -0.15
   3   6     0.02   0.10   0.22    -0.19   0.19  -0.07    -0.01  -0.04  -0.10
   4   6     0.03   0.03   0.10     0.03  -0.32   0.13    -0.00  -0.01  -0.01
   5   6    -0.02  -0.03  -0.09    -0.09   0.25  -0.09    -0.00   0.01   0.01
   6   1    -0.01  -0.09  -0.11    -0.01  -0.04   0.02    -0.00  -0.03  -0.08
   7   1     0.03  -0.33   0.04    -0.06   0.17  -0.06     0.01  -0.26   0.05
   8   1    -0.06   0.29  -0.22    -0.06   0.16  -0.07    -0.02   0.22  -0.15
   9   1     0.37  -0.02   0.08     0.13  -0.23   0.09    -0.33   0.48  -0.16
  10   1    -0.39   0.11   0.07     0.13  -0.22   0.09     0.33  -0.46   0.20
  11   1    -0.01  -0.04  -0.09    -0.12   0.04  -0.01     0.01   0.01   0.02
  12   1     0.01  -0.06  -0.18    -0.06  -0.16   0.07    -0.00   0.01   0.04
  13   1    -0.04  -0.09   0.07     0.03  -0.03  -0.01     0.01   0.00  -0.01
  14   1     0.02   0.04   0.04     0.12   0.23  -0.10     0.00  -0.00  -0.02
  15   1     0.05   0.09  -0.01     0.04  -0.01   0.02    -0.01  -0.00  -0.00
                     19                     20                     21
                        a                      a                      a 
 Frequencies --  1313.5627              1363.9969              1374.6714
 Red. masses --     1.9085                 4.7239                 3.3594
 Frc consts  --     0.0000                 0.0000                 0.0000
 IR Inten    --     2.3469                 5.9800                32.5076
 Raman Activ --     0.0000                 0.0000                 0.0000
 Depolar     --     0.0000                 0.0000                 0.0000
 Atom AN      X      Y      Z        X      Y      Z        X      Y      Z
   1   6    -0.11  -0.04   0.02    -0.11  -0.07   0.03     0.05  -0.05   0.02
   2   6     0.15  -0.04   0.01     0.37  -0.37   0.13    -0.07  -0.04   0.02
   3   6     0.04   0.05  -0.02    -0.09   0.11  -0.04     0.26  -0.08   0.02
   4   6     0.03  -0.10   0.04     0.02   0.01  -0.01     0.10   0.22  -0.10
   5   6    -0.11   0.12  -0.04     0.02  -0.06   0.02    -0.01   0.22  -0.09
   6   1    -0.01   0.08  -0.03     0.02   0.24  -0.10     0.02   0.09  -0.04
   7   1     0.05  -0.03   0.03     0.02   0.14   0.03    -0.08   0.04  -0.03
   8   1     0.05  -0.05  -0.00     0.02   0.08  -0.12    -0.08   0.05  -0.01
   9   1    -0.17   0.20  -0.08    -0.31   0.28  -0.12    -0.02   0.01   0.00
  10   1    -0.18   0.22  -0.08    -0.31   0.30  -0.09    -0.02   0.00  -0.01
  11   1     0.56   0.01  -0.03    -0.32   0.03   0.01    -0.47  -0.01   0.03
  12   1    -0.37  -0.46   0.21     0.16   0.19  -0.09    -0.28  -0.32   0.15
  13   1     0.02  -0.04  -0.01    -0.00   0.03  -0.02    -0.01  -0.29   0.21
  14   1     0.06   0.13  -0.06     0.01  -0.01   0.00    -0.19  -0.18   0.10
  15   1     0.02  -0.02   0.03    -0.00   0.04  -0.01    -0.02  -0.36   0.05
                     22                     23                     24
                        a                      a                      a 
 Frequencies --  1405.7429              1407.3708              1469.4709
 Red. masses --     3.4405                 4.0265                 1.9652
 Frc consts  --     0.0000                 0.0000                 0.0000
 IR Inten    --     7.8171                29.8932                 2.0520
 Raman Activ --     0.0000                 0.0000                 0.0000
 Depolar     --     0.0000                 0.0000                 0.0000
 Atom AN      X      Y      Z        X      Y      Z        X      Y      Z
   1   6     0.09  -0.38   0.16     0.03  -0.07   0.03    -0.03   0.05  -0.01
   2   6    -0.10   0.11  -0.04    -0.10   0.01   0.00    -0.17  -0.20   0.10
   3   6    -0.05  -0.00   0.00     0.21  -0.08   0.02     0.03   0.02  -0.01
   4   6    -0.05  -0.09   0.04     0.06   0.21  -0.09    -0.04  -0.02   0.01
   5   6     0.03   0.05  -0.02    -0.17  -0.31   0.15     0.03  -0.00   0.02
   6   1     0.09   0.43  -0.19     0.01   0.03  -0.02    -0.02  -0.05   0.00
   7   1    -0.17   0.44  -0.01    -0.03   0.11   0.00     0.01  -0.06   0.00
   8   1    -0.18   0.32  -0.29    -0.02   0.08  -0.08     0.03  -0.05   0.04
   9   1     0.15  -0.02   0.06     0.02  -0.02   0.02     0.39   0.49   0.20
  10   1     0.15  -0.07  -0.04     0.02  -0.03   0.00     0.35   0.19  -0.54
  11   1     0.22  -0.00  -0.01    -0.32  -0.01   0.02    -0.04   0.00   0.00
  12   1     0.04   0.04  -0.02    -0.23  -0.24   0.11    -0.00   0.00  -0.00
  13   1    -0.01  -0.01   0.03     0.10   0.25  -0.30    -0.04  -0.00   0.04
  14   1    -0.01  -0.01   0.01     0.23   0.25  -0.15     0.02   0.00  -0.07
  15   1    -0.01  -0.03  -0.01     0.12   0.39   0.02    -0.09   0.03  -0.05
                     25                     26                     27
                        a                      a                      a 
 Frequencies --  1471.9899              1480.4845              1510.7750
 Red. masses --     1.5472                 1.6603                 1.5657
 Frc consts  --     0.0000                 0.0000                 0.0000
 IR Inten    --     3.2391                 0.5857                 0.2010
 Raman Activ --     0.0000                 0.0000                 0.0000
 Depolar     --     0.0000                 0.0000                 0.0000
 Atom AN      X      Y      Z        X      Y      Z        X      Y      Z
   1   6    -0.02  -0.02  -0.05    -0.05  -0.01   0.01    -0.02  -0.09  -0.19
   2   6    -0.02  -0.02  -0.00    -0.03   0.03  -0.01    -0.00  -0.01  -0.03
   3   6     0.00  -0.00  -0.00     0.10   0.00  -0.01     0.00   0.00   0.00
   4   6    -0.01  -0.01  -0.04     0.00   0.02  -0.01     0.00   0.00   0.01
   5   6    -0.03  -0.08  -0.19     0.18  -0.11   0.01     0.01   0.02   0.06
   6   1     0.00   0.06   0.20    -0.02  -0.10   0.03     0.02   0.25   0.64
   7   1     0.14  -0.03   0.05     0.12   0.12   0.06     0.43  -0.12   0.14
   8   1    -0.08   0.06  -0.02     0.13   0.03  -0.14    -0.38   0.21   0.00
   9   1     0.03   0.06   0.02    -0.05  -0.06  -0.02    -0.00   0.02  -0.01
  10   1     0.04   0.00  -0.04    -0.04  -0.03   0.06     0.00  -0.02   0.01
  11   1    -0.01   0.00   0.01    -0.05   0.00   0.00    -0.00  -0.00  -0.00
  12   1    -0.00   0.01   0.02    -0.05  -0.05   0.02    -0.00  -0.00  -0.01
  13   1    -0.22   0.38  -0.06    -0.46   0.18   0.36     0.06  -0.11   0.01
  14   1     0.07   0.24   0.63     0.22   0.23  -0.10    -0.02  -0.08  -0.20
  15   1     0.27  -0.31   0.19    -0.52  -0.09  -0.27    -0.08   0.09  -0.05
                     28                     29                     30
                        a                      a                      a 
 Frequencies --  1518.2517              1752.8426              2913.7794
 Red. masses --     1.5709                11.5564                 1.9507
 Frc consts  --     0.0000                 0.0000                 0.0000
 IR Inten    --     1.7088                16.0045                65.6874
 Raman Activ --     0.0000                 0.0000                 0.0000
 Depolar     --     0.0000                 0.0000                 0.0000
 Atom AN      X      Y      Z        X      Y      Z        X      Y      Z
   1   6     0.19   0.03  -0.03     0.01  -0.00  -0.00     0.00   0.00   0.01
   2   6     0.06  -0.01   0.00    -0.08   0.00   0.00    -0.02  -0.11  -0.27
   3   6     0.02   0.02  -0.01     0.65   0.20  -0.12    -0.00  -0.00  -0.01
   4   6    -0.02  -0.02   0.01    -0.57  -0.34   0.17    -0.00  -0.00  -0.00
   5   6     0.05  -0.07   0.01     0.05   0.07  -0.03     0.00   0.00   0.00
   6   1     0.06   0.31  -0.09    -0.00  -0.02   0.01    -0.00   0.00   0.00
   7   1    -0.44  -0.35  -0.20     0.01   0.00   0.00     0.01   0.01  -0.03
   8   1    -0.46  -0.06   0.42     0.01   0.00  -0.00    -0.02  -0.03  -0.02
   9   1    -0.04   0.01  -0.02    -0.07   0.00  -0.03    -0.28  -0.04   0.61
  10   1    -0.04   0.02   0.01    -0.07   0.03   0.03     0.35   0.45   0.36
  11   1     0.01   0.00  -0.00    -0.06   0.07  -0.02     0.00  -0.00   0.00
  12   1     0.00   0.00  -0.00    -0.02   0.09  -0.04     0.00   0.00   0.00
  13   1    -0.14   0.11   0.07     0.03   0.04  -0.05    -0.00  -0.00  -0.00
  14   1     0.11   0.14  -0.03    -0.03  -0.03   0.01     0.00  -0.00  -0.00
  15   1    -0.13   0.01  -0.07     0.04   0.06   0.01     0.00  -0.00  -0.01
                     31                     32                     33
                        a                      a                      a 
 Frequencies --  2940.7655              2986.9679              2994.8426
 Red. masses --     1.4844                 1.9171                 1.7254
 Frc consts  --     0.0000                 0.0000                 0.0000
 IR Inten    --    85.9162                53.4829                56.7689
 Raman Activ --     0.0000                 0.0000                 0.0000
 Depolar     --     0.0000                 0.0000                 0.0000
 Atom AN      X      Y      Z        X      Y      Z        X      Y      Z
   1   6    -0.02   0.00   0.00    -0.00  -0.00  -0.00     0.01   0.00  -0.00
   2   6     0.15   0.12  -0.06    -0.00  -0.00  -0.00    -0.00  -0.01   0.01
   3   6     0.01  -0.01   0.00    -0.00   0.00  -0.00    -0.01  -0.18   0.08
   4   6     0.00  -0.01   0.00     0.00  -0.00  -0.01    -0.13   0.09  -0.03
   5   6     0.00   0.00  -0.00    -0.01  -0.10  -0.27     0.01   0.00  -0.01
   6   1     0.05  -0.01   0.00     0.00  -0.00   0.00    -0.05   0.01  -0.00
   7   1     0.01   0.00  -0.02     0.00  -0.00  -0.00    -0.00  -0.00   0.01
   8   1     0.01   0.02   0.01    -0.00   0.00  -0.00    -0.00  -0.00  -0.00
   9   1    -0.25  -0.00   0.64    -0.00  -0.00   0.00     0.01  -0.00  -0.02
  10   1    -0.32  -0.45  -0.41     0.00   0.00   0.00     0.01   0.02   0.01
  11   1     0.00   0.06  -0.03     0.00  -0.02   0.01    -0.00   0.69  -0.28
  12   1    -0.02   0.01  -0.00    -0.01   0.01  -0.00     0.49  -0.35   0.11
  13   1    -0.00  -0.00  -0.00     0.40   0.25   0.34    -0.01  -0.01  -0.02
  14   1     0.00  -0.00   0.00    -0.00  -0.02  -0.04    -0.02   0.02  -0.01
  15   1    -0.00   0.00   0.00    -0.37   0.11   0.65    -0.02   0.01   0.04
                     34                     35                     36
                        a                      a                      a 
 Frequencies --  3004.0259              3014.0013              3017.3293
 Red. masses --     1.5401                 1.8490                 1.8359
 Frc consts  --     0.0000                 0.0000                 0.0000
 IR Inten    --    93.4099               225.4189                59.6121
 Raman Activ --     0.0000                 0.0000                 0.0000
 Depolar     --     0.0000                 0.0000                 0.0000
 Atom AN      X      Y      Z        X      Y      Z        X      Y      Z
   1   6    -0.01   0.00  -0.00     0.20   0.01  -0.01     0.19   0.00  -0.00
   2   6     0.00   0.00  -0.00     0.01  -0.00   0.00     0.02   0.01  -0.01
   3   6    -0.00   0.06  -0.03    -0.01  -0.10   0.04     0.01   0.12  -0.05
   4   6    -0.04   0.04  -0.01     0.12  -0.08   0.02    -0.12   0.08  -0.02
   5   6     0.19   0.05  -0.00     0.05   0.02  -0.00    -0.04  -0.02   0.00
   6   1     0.05  -0.01   0.00    -0.65   0.10  -0.01    -0.63   0.10  -0.01
   7   1    -0.00  -0.00   0.01    -0.03  -0.01   0.14    -0.02  -0.01   0.12
   8   1    -0.00  -0.00  -0.00    -0.04  -0.12  -0.10    -0.03  -0.10  -0.09
   9   1    -0.00  -0.00   0.01     0.00   0.00   0.00    -0.02   0.00   0.05
  10   1    -0.01  -0.01  -0.01    -0.00  -0.00  -0.00    -0.03  -0.04  -0.04
  11   1     0.00  -0.23   0.09    -0.00   0.33  -0.13     0.00  -0.40   0.16
  12   1     0.18  -0.13   0.04    -0.40   0.29  -0.09     0.39  -0.29   0.09
  13   1    -0.45  -0.31  -0.47    -0.13  -0.09  -0.13     0.11   0.07   0.11
  14   1     0.01   0.02  -0.00     0.02  -0.01   0.00    -0.03   0.02  -0.01
  15   1    -0.24   0.10   0.50    -0.07   0.03   0.14     0.06  -0.02  -0.12
                     37                     38                     39
                        a                      a                      a 
 Frequencies --  3038.2925              3040.5259              3121.9543
 Red. masses --     1.8328                 1.4377                 1.7053
 Frc consts  --     0.0000                 0.0000                 0.0000
 IR Inten    --    61.8435                42.6126                24.6533
 Raman Activ --     0.0000                 0.0000                 0.0000
 Depolar     --     0.0000                 0.0000                 0.0000
 Atom AN      X      Y      Z        X      Y      Z        X      Y      Z
   1   6    -0.03  -0.16  -0.22     0.05   0.08  -0.18     0.00  -0.00   0.00
   2   6    -0.00  -0.01  -0.02     0.00   0.00  -0.01     0.00   0.00   0.00
   3   6    -0.00  -0.00   0.00     0.00   0.00  -0.00     0.00   0.00  -0.00
   4   6     0.00  -0.00   0.00    -0.00   0.00  -0.00    -0.02   0.01  -0.00
   5   6     0.00  -0.00   0.00    -0.01   0.00  -0.00    -0.19   0.15  -0.04
   6   1    -0.15   0.00  -0.04     0.26  -0.03  -0.02    -0.02   0.00  -0.00
   7   1    -0.13  -0.04   0.28    -0.33  -0.05   0.83    -0.00  -0.00  -0.01
   8   1     0.39   0.62   0.51    -0.12  -0.20  -0.19    -0.00   0.00   0.01
   9   1    -0.01  -0.00   0.02    -0.01   0.00   0.02    -0.00   0.00   0.00
  10   1     0.02   0.02   0.02     0.00   0.00   0.00    -0.00  -0.00  -0.00
  11   1    -0.00  -0.00   0.00     0.00  -0.00   0.00    -0.00  -0.01   0.00
  12   1    -0.01   0.00  -0.00     0.01  -0.01   0.00     0.04  -0.03   0.01
  13   1    -0.01  -0.00  -0.01     0.01   0.01   0.01    -0.03   0.01  -0.01
  14   1    -0.00   0.01  -0.00     0.01  -0.01   0.00     0.77  -0.57   0.13
  15   1    -0.00   0.00   0.01     0.01  -0.00  -0.01    -0.03   0.02   0.00
