 Entering Gaussian System
 *********************************************
 Gaussian 98:
 frequency output generated by the xtb code
 *********************************************
                         Standard orientation:
 --------------------------------------------------------------------
  Center     Atomic     Atomic              Coordinates (Angstroms)
  Number     Number      Type              X           Y           Z
 --------------------------------------------------------------------
    1          6             0        1.833608   -1.444730    0.029351
    2          6             0        0.525665   -0.720848    0.023635
    3          6             0       -0.678927   -1.406634    0.083022
    4          6             0       -1.873710   -0.703442    0.076357
    5          6             0       -1.812350    0.676923    0.009758
    6          7             0       -0.673360    1.349315   -0.047810
    7          6             0        0.472734    0.679473   -0.041880
    8          6             0        1.721781    1.499053   -0.109066
    9          1             0        2.436136   -1.133563    0.881140
   10          1             0        1.675642   -2.518448    0.085288
   11          1             0        2.396768   -1.219030   -0.874757
   12          1             0       -0.682781   -2.486539    0.134213
   13          1             0       -2.823026   -1.213047    0.121513
   14          1             0       -2.709274    1.282362    0.001281
   15          1             0        1.459937    2.551165   -0.154540
   16          1             0        2.340243    1.319126    0.768180
   17          1             0        2.301829    1.233442   -0.990762
 --------------------------------------------------------------------
     1 basis functions        1 primitive gaussians
     1 alpha electrons        1 beta electrons
 
 Harmonic frequencies (cm**-1), IR intensities (km*mol⁻¹),
 Raman scattering activities (A**4/amu), Raman depolarization ratios,
 reduced masses (AMU), force constants (mDyne/A) and normal coordinates:
                      1                      2                      3
                        a                      a                      a 
 Frequencies --   121.5169               144.0356               172.0689
 Red. masses --     1.4901                 9.1494                 1.7359
 Frc consts  --     0.0000                 0.0000                 0.0000
 IR Inten    --     0.0116                 1.4167                 1.8797
 Raman Activ --     0.0000                 0.0000                 0.0000
 Depolar     --     0.0000                 0.0000                 0.0000
 Atom AN      X      Y      Z        X      Y      Z        X      Y      Z
   1   6     0.00   0.01   0.15    -0.01  -0.02  -0.37     0.00   0.00   0.04
   2   6    -0.00  -0.00  -0.00    -0.00   0.00  -0.00    -0.00  -0.01  -0.12
   3   6    -0.00  -0.00  -0.01     0.01   0.02   0.35    -0.00  -0.00  -0.08
   4   6    -0.00  -0.00  -0.00     0.01   0.01   0.29     0.00   0.00   0.10
   5   6     0.00   0.00   0.02    -0.01  -0.01  -0.29     0.00   0.01   0.13
   6   7     0.00   0.00   0.01    -0.01  -0.02  -0.36    -0.00  -0.00  -0.04
   7   6    -0.00  -0.00  -0.02    -0.00  -0.00  -0.03    -0.00  -0.01  -0.11
   8   6    -0.00  -0.01  -0.14     0.01   0.02   0.39    -0.00   0.00   0.00
   9   1    -0.21  -0.29   0.30     0.01  -0.12  -0.07    -0.18  -0.22   0.22
  10   1    -0.01  -0.02  -0.36    -0.01  -0.01  -0.25    -0.01  -0.01  -0.30
  11   1     0.22   0.32   0.26    -0.02   0.12  -0.09     0.19   0.24   0.19
  12   1    -0.00  -0.00  -0.01     0.00   0.01   0.18    -0.00  -0.00  -0.04
  13   1    -0.00  -0.00  -0.00     0.00   0.01   0.17     0.00   0.00   0.06
  14   1     0.00   0.00   0.02    -0.00  -0.01  -0.18     0.00   0.00   0.08
  15   1     0.01   0.01   0.28     0.00   0.01   0.20    -0.01  -0.02  -0.40
  16   1     0.19  -0.25  -0.23    -0.04  -0.08   0.13    -0.24   0.30   0.23
  17   1    -0.20   0.22  -0.24     0.05   0.09   0.12     0.25  -0.28   0.25
                      4                      5                      6
                        a                      a                      a 
 Frequencies --   255.3465               288.4149               395.0070
 Red. masses --     8.6010                 8.3658                 8.8098
 Frc consts  --     0.0000                 0.0000                 0.0000
 IR Inten    --     3.2212                 0.8502                 2.8908
 Raman Activ --     0.0000                 0.0000                 0.0000
 Depolar     --     0.0000                 0.0000                 0.0000
 Atom AN      X      Y      Z        X      Y      Z        X      Y      Z
   1   6    -0.01  -0.01  -0.24    -0.15  -0.53   0.03     0.25   0.18  -0.01
   2   6     0.01   0.02   0.37     0.12  -0.00  -0.00    -0.06  -0.35   0.02
   3   6     0.01   0.01   0.28     0.06   0.07  -0.01    -0.24  -0.10   0.01
   4   6    -0.01  -0.01  -0.30     0.04   0.00   0.00    -0.11   0.20  -0.01
   5   6    -0.01  -0.01  -0.25     0.05  -0.00  -0.00     0.10   0.19  -0.01
   6   7     0.01   0.01   0.29     0.07  -0.07   0.00     0.27  -0.13   0.00
   7   6     0.01   0.02   0.35     0.12   0.01  -0.00     0.08  -0.35   0.01
   8   6    -0.01  -0.01  -0.22    -0.19   0.52  -0.02    -0.26   0.13  -0.00
   9   1     0.06  -0.15  -0.06    -0.01  -0.23   0.01     0.02   0.16  -0.01
  10   1    -0.01  -0.01  -0.24    -0.19  -0.13   0.01     0.26   0.03  -0.01
  11   1    -0.07   0.14  -0.07    -0.01  -0.23   0.01     0.03   0.16  -0.01
  12   1     0.00   0.00   0.10     0.02   0.02  -0.00    -0.15  -0.03   0.01
  13   1    -0.00  -0.01  -0.22     0.02  -0.01   0.00    -0.06   0.11  -0.00
  14   1    -0.00  -0.01  -0.19     0.02   0.01  -0.00     0.07   0.11  -0.01
  15   1    -0.01  -0.01  -0.23    -0.21   0.11   0.00    -0.28  -0.01   0.01
  16   1     0.04   0.15  -0.07    -0.03   0.24  -0.01    -0.04   0.16  -0.00
  17   1    -0.05  -0.15  -0.05    -0.03   0.24  -0.01    -0.03   0.16  -0.01
                      7                      8                      9
                        a                      a                      a 
 Frequencies --   409.0616               483.0774               502.1717
 Red. masses --    10.0692                 9.1471                10.7541
 Frc consts  --     0.0000                 0.0000                 0.0000
 IR Inten    --     0.3545                 0.6302                 0.6593
 Raman Activ --     0.0000                 0.0000                 0.0000
 Depolar     --     0.0000                 0.0000                 0.0000
 Atom AN      X      Y      Z        X      Y      Z        X      Y      Z
   1   6    -0.00   0.00   0.03    -0.00  -0.00  -0.04     0.37  -0.25   0.00
   2   6    -0.01  -0.02  -0.44     0.01   0.02   0.43     0.30  -0.09  -0.00
   3   6     0.01   0.02   0.42     0.00   0.01   0.15     0.19   0.18  -0.01
   4   6    -0.01  -0.01  -0.25    -0.01  -0.02  -0.36     0.18   0.25  -0.02
   5   6    -0.00  -0.01  -0.10     0.01   0.02   0.40    -0.25   0.25  -0.01
   6   7     0.01   0.02   0.46    -0.01  -0.01  -0.24    -0.19   0.12  -0.00
   7   6    -0.01  -0.02  -0.37    -0.01  -0.02  -0.41    -0.28  -0.09   0.01
   8   6     0.00   0.00   0.03     0.00   0.00   0.05    -0.31  -0.25   0.02
   9   1    -0.09   0.06   0.05     0.12  -0.09  -0.06     0.12  -0.10   0.00
  10   1     0.00   0.00   0.07    -0.00  -0.00  -0.10     0.04  -0.06   0.00
  11   1     0.09  -0.06   0.05    -0.12   0.08  -0.07     0.12  -0.10   0.00
  12   1     0.01   0.02   0.38     0.00   0.00   0.05    -0.03   0.05  -0.00
  13   1    -0.00  -0.00  -0.08    -0.01  -0.01  -0.23     0.09   0.01  -0.00
  14   1    -0.00  -0.00  -0.01     0.01   0.01   0.30    -0.09   0.04  -0.00
  15   1     0.00   0.00   0.07     0.00   0.00   0.10    -0.03  -0.06   0.00
  16   1    -0.08  -0.06   0.06    -0.11  -0.09   0.08    -0.10  -0.11   0.01
  17   1     0.08   0.06   0.05     0.11   0.10   0.06    -0.10  -0.11   0.01
                     10                     11                     12
                        a                      a                      a 
 Frequencies --   569.5229               690.4952               774.7071
 Red. masses --    11.5682                10.8632                10.5264
 Frc consts  --     0.0000                 0.0000                 0.0000
 IR Inten    --     3.5019                 5.7840                 4.9227
 Raman Activ --     0.0000                 0.0000                 0.0000
 Depolar     --     0.0000                 0.0000                 0.0000
 Atom AN      X      Y      Z        X      Y      Z        X      Y      Z
   1   6    -0.24   0.04   0.00    -0.00  -0.00  -0.06     0.34  -0.23   0.00
   2   6    -0.18  -0.03   0.01    -0.01  -0.02  -0.39    -0.09  -0.20   0.01
   3   6     0.12  -0.42   0.02     0.01   0.01   0.28    -0.20  -0.40   0.02
   4   6     0.44   0.01  -0.01    -0.01  -0.01  -0.32    -0.08  -0.03   0.00
   5   6     0.33   0.05  -0.01     0.01   0.02   0.33    -0.11   0.03   0.00
   6   7     0.09   0.45  -0.02    -0.01  -0.02  -0.43    -0.20   0.37  -0.01
   7   6    -0.19  -0.01   0.00     0.01   0.02   0.48    -0.09   0.18  -0.01
   8   6    -0.27  -0.09   0.01     0.00   0.00   0.07     0.33   0.27  -0.02
   9   1    -0.06   0.00   0.00    -0.09   0.06   0.03     0.08  -0.02  -0.00
  10   1    -0.09   0.01   0.00     0.00   0.00   0.04     0.19  -0.08  -0.00
  11   1    -0.06   0.00   0.00     0.10  -0.06   0.03     0.08  -0.02   0.00
  12   1     0.03  -0.12   0.00     0.00   0.01   0.13    -0.12  -0.11   0.01
  13   1     0.07   0.10  -0.01    -0.00  -0.00  -0.05    -0.07   0.07  -0.00
  14   1     0.02  -0.09   0.00     0.00   0.01   0.16    -0.08  -0.06   0.00
  15   1    -0.12  -0.03   0.00    -0.00  -0.00  -0.07     0.19   0.10  -0.01
  16   1    -0.07  -0.00   0.00     0.13   0.09  -0.06     0.08   0.03  -0.01
  17   1    -0.07  -0.00   0.00    -0.14  -0.10  -0.04     0.08   0.03  -0.00
                     13                     14                     15
                        a                      a                      a 
 Frequencies --   787.6408               849.8284               906.8901
 Red. masses --     2.8961                10.8764                 3.9073
 Frc consts  --     0.0000                 0.0000                 0.0000
 IR Inten    --     6.9120                 2.0023                 0.5505
 Raman Activ --     0.0000                 0.0000                 0.0000
 Depolar     --     0.0000                 0.0000                 0.0000
 Atom AN      X      Y      Z        X      Y      Z        X      Y      Z
   1   6     0.00   0.00   0.05    -0.28   0.09   0.00    -0.00  -0.00  -0.03
   2   6     0.00   0.01   0.11    -0.03  -0.14   0.01    -0.00  -0.00  -0.04
   3   6    -0.01  -0.01  -0.25     0.16  -0.20   0.01     0.00   0.01   0.17
   4   6    -0.01  -0.01  -0.22     0.43   0.23  -0.02     0.00   0.01   0.21
   5   6    -0.00  -0.01  -0.20    -0.44   0.24  -0.00    -0.01  -0.02  -0.43
   6   7     0.00   0.00   0.04    -0.12  -0.30   0.02     0.00   0.00   0.01
   7   6     0.00   0.00   0.05     0.03  -0.12   0.00     0.00   0.00   0.04
   8   6     0.00   0.00   0.03     0.28   0.12  -0.01     0.00   0.00   0.03
   9   1     0.09  -0.05  -0.03    -0.10   0.08  -0.01    -0.04   0.02   0.01
  10   1    -0.00  -0.00  -0.05    -0.00   0.02  -0.00     0.00   0.00   0.02
  11   1    -0.09   0.05  -0.03    -0.10   0.08   0.00     0.04  -0.02   0.01
  12   1     0.01   0.02   0.47    -0.06  -0.05   0.00    -0.01  -0.01  -0.25
  13   1     0.01   0.03   0.61     0.17  -0.04  -0.00    -0.01  -0.02  -0.33
  14   1     0.01   0.02   0.44    -0.13   0.05   0.00     0.02   0.03   0.74
  15   1    -0.00  -0.00  -0.04     0.03   0.02  -0.00    -0.00  -0.00  -0.02
  16   1     0.06   0.04  -0.03     0.09   0.08  -0.00     0.03   0.02  -0.01
  17   1    -0.06  -0.05  -0.02     0.09   0.08  -0.01    -0.03  -0.02  -0.01
                     16                     17                     18
                        a                      a                      a 
 Frequencies --   917.8735               988.3534              1007.1417
 Red. masses --     3.5903                 4.7699                 4.8308
 Frc consts  --     0.0000                 0.0000                 0.0000
 IR Inten    --     0.0300                15.3248                 7.9947
 Raman Activ --     0.0000                 0.0000                 0.0000
 Depolar     --     0.0000                 0.0000                 0.0000
 Atom AN      X      Y      Z        X      Y      Z        X      Y      Z
   1   6     0.00   0.00   0.02    -0.07  -0.08   0.01    -0.21  -0.33   0.02
   2   6    -0.00  -0.00  -0.01    -0.03  -0.08   0.00     0.01  -0.12   0.01
   3   6    -0.01  -0.02  -0.36     0.02  -0.04   0.00     0.10   0.30  -0.02
   4   6     0.01   0.01   0.30     0.07   0.12  -0.01     0.01  -0.06   0.00
   5   6     0.00   0.00   0.05     0.10  -0.04  -0.00     0.02  -0.10   0.00
   6   7    -0.00  -0.00  -0.07     0.13  -0.26   0.01    -0.02   0.22  -0.01
   7   6     0.00   0.00   0.04    -0.03   0.14  -0.01    -0.02   0.01   0.00
   8   6     0.00   0.00   0.05    -0.27   0.31  -0.01     0.04  -0.06   0.00
   9   1     0.03  -0.01  -0.01    -0.05   0.09  -0.01    -0.19   0.32  -0.04
  10   1    -0.00  -0.00  -0.02     0.16  -0.05  -0.00     0.54  -0.16  -0.00
  11   1    -0.03   0.01  -0.01    -0.05   0.09   0.00    -0.18   0.32   0.02
  12   1     0.01   0.03   0.66    -0.04  -0.01   0.00     0.10   0.09  -0.01
  13   1    -0.01  -0.03  -0.56    -0.01   0.09  -0.00     0.07  -0.14   0.01
  14   1    -0.00  -0.00  -0.01     0.08   0.06  -0.00    -0.05  -0.10   0.01
  15   1    -0.00  -0.00  -0.02     0.53   0.22  -0.02    -0.08  -0.04   0.00
  16   1     0.05   0.04  -0.02    -0.17  -0.33  -0.01     0.03   0.06   0.00
  17   1    -0.06  -0.04  -0.02    -0.17  -0.32   0.05     0.03   0.06  -0.01
                     19                     20                     21
                        a                      a                      a 
 Frequencies --  1016.7185              1029.7584              1112.9699
 Red. masses --     4.4938                 5.0015                 6.4036
 Frc consts  --     0.0000                 0.0000                 0.0000
 IR Inten    --    20.0365                 0.1991                 2.4639
 Raman Activ --     0.0000                 0.0000                 0.0000
 Depolar     --     0.0000                 0.0000                 0.0000
 Atom AN      X      Y      Z        X      Y      Z        X      Y      Z
   1   6    -0.00  -0.01  -0.24     0.01   0.02   0.36     0.01   0.06  -0.00
   2   6     0.00   0.01   0.16    -0.01  -0.02  -0.34     0.03  -0.09   0.00
   3   6    -0.00  -0.01  -0.08     0.00   0.00   0.04    -0.16   0.30  -0.01
   4   6    -0.00  -0.00  -0.02     0.00   0.00   0.03     0.27   0.20  -0.02
   5   6    -0.00  -0.00  -0.03    -0.00  -0.00  -0.02     0.24  -0.35   0.01
   6   7    -0.00  -0.00  -0.04    -0.00  -0.00  -0.02    -0.18  -0.08   0.01
   7   6     0.01   0.02   0.32     0.01   0.01   0.25    -0.10  -0.06   0.01
   8   6    -0.01  -0.02  -0.35    -0.00  -0.01  -0.23     0.10   0.03  -0.00
   9   1    -0.26   0.13   0.08     0.39  -0.20  -0.12     0.01  -0.01   0.01
  10   1    -0.00   0.01   0.13    -0.00  -0.01  -0.19    -0.08   0.03   0.00
  11   1     0.27  -0.13   0.08    -0.40   0.19  -0.12     0.01  -0.02  -0.01
  12   1     0.00   0.01   0.14    -0.00  -0.00  -0.03    -0.50   0.09   0.01
  13   1     0.00   0.00   0.03    -0.00  -0.00  -0.05    -0.01   0.24  -0.01
  14   1     0.00   0.00   0.07     0.00   0.00   0.03    -0.14  -0.41   0.02
  15   1     0.00   0.01   0.19     0.00   0.01   0.12     0.02   0.01  -0.00
  16   1    -0.37  -0.22   0.14    -0.24  -0.14   0.09     0.03   0.04  -0.00
  17   1     0.38   0.23   0.10     0.24   0.15   0.06     0.03   0.04  -0.00
                     22                     23                     24
                        a                      a                      a 
 Frequencies --  1137.0372              1191.0384              1243.1664
 Red. masses --     4.8705                 7.0325                 4.8781
 Frc consts  --     0.0000                 0.0000                 0.0000
 IR Inten    --    18.1157                29.6727                 2.2141
 Raman Activ --     0.0000                 0.0000                 0.0000
 Depolar     --     0.0000                 0.0000                 0.0000
 Atom AN      X      Y      Z        X      Y      Z        X      Y      Z
   1   6    -0.05   0.16  -0.01    -0.15   0.16  -0.00    -0.10   0.01   0.00
   2   6     0.07  -0.28   0.01     0.27  -0.31   0.01     0.24  -0.10  -0.00
   3   6    -0.04   0.15  -0.01     0.16   0.10  -0.01     0.21  -0.02  -0.00
   4   6    -0.06  -0.15   0.01    -0.19  -0.03   0.01    -0.07  -0.07   0.00
   5   6    -0.01   0.03  -0.00    -0.03   0.01   0.00     0.14  -0.12   0.00
   6   7     0.15   0.29  -0.02     0.01   0.19  -0.01    -0.17  -0.02   0.00
   7   6    -0.04  -0.19   0.01    -0.17  -0.38   0.02    -0.36   0.05   0.01
   8   6    -0.00   0.15  -0.01     0.09   0.17  -0.01     0.12  -0.02  -0.00
   9   1     0.00  -0.05   0.02    -0.04  -0.00   0.01    -0.05   0.07  -0.01
  10   1    -0.19   0.07   0.00    -0.17   0.06   0.00    -0.05   0.01   0.00
  11   1     0.00  -0.05  -0.01    -0.04  -0.00  -0.01    -0.05   0.07   0.00
  12   1    -0.29   0.04   0.00     0.41   0.02  -0.01    -0.30  -0.01   0.01
  13   1     0.30  -0.63   0.02    -0.23   0.33  -0.01    -0.09   0.12  -0.00
  14   1    -0.00   0.02  -0.00    -0.13  -0.17   0.01     0.43   0.55  -0.04
  15   1     0.17   0.08  -0.01     0.18   0.08  -0.01     0.01  -0.00  -0.00
  16   1    -0.01  -0.06  -0.01     0.03  -0.01  -0.02     0.06   0.11   0.00
  17   1    -0.01  -0.06   0.02     0.03  -0.00   0.02     0.06   0.11  -0.02
                     25                     26                     27
                        a                      a                      a 
 Frequencies --  1262.8249              1292.2563              1383.8593
 Red. masses --     8.7826                11.1788                 3.5879
 Frc consts  --     0.0000                 0.0000                 0.0000
 IR Inten    --    51.5814                 2.2610                 7.4315
 Raman Activ --     0.0000                 0.0000                 0.0000
 Depolar     --     0.0000                 0.0000                 0.0000
 Atom AN      X      Y      Z        X      Y      Z        X      Y      Z
   1   6     0.15  -0.04  -0.00     0.10   0.05  -0.00    -0.08   0.06  -0.00
   2   6    -0.31   0.12   0.00    -0.36  -0.29   0.02    -0.01  -0.09   0.00
   3   6    -0.26   0.17  -0.00     0.25   0.07  -0.01    -0.02   0.07  -0.00
   4   6     0.22   0.02  -0.01    -0.10   0.36  -0.01     0.06  -0.02  -0.00
   5   6     0.32   0.09  -0.01    -0.12  -0.34   0.02    -0.00  -0.05   0.00
   6   7    -0.26  -0.14   0.01     0.36  -0.06  -0.01    -0.10   0.06  -0.00
   7   6    -0.30  -0.31   0.02    -0.33   0.30  -0.01     0.05  -0.05   0.00
   8   6     0.13   0.10  -0.01     0.09  -0.03  -0.00     0.36   0.23  -0.02
   9   1     0.05  -0.06   0.01     0.03  -0.10   0.03     0.07  -0.07  -0.03
  10   1     0.06  -0.02  -0.00    -0.04   0.01   0.00     0.09  -0.01  -0.00
  11   1     0.05  -0.06  -0.00     0.03  -0.11  -0.02     0.07  -0.06   0.03
  12   1     0.41   0.05  -0.01     0.20   0.02  -0.01     0.04   0.02  -0.00
  13   1     0.16  -0.16   0.00     0.07  -0.08   0.00    -0.01   0.04  -0.00
  14   1     0.16   0.13  -0.01     0.03  -0.02   0.00     0.07   0.09  -0.01
  15   1     0.13   0.05  -0.01    -0.07  -0.02   0.00    -0.46  -0.10   0.01
  16   1     0.06   0.05  -0.01    -0.00   0.08   0.03    -0.34  -0.31   0.20
  17   1     0.06   0.06   0.01    -0.00   0.07  -0.04    -0.35  -0.33  -0.15
                     28                     29                     30
                        a                      a                      a 
 Frequencies --  1400.8103              1421.0673              1440.1008
 Red. masses --     3.1156                 8.0913                10.4175
 Frc consts  --     0.0000                 0.0000                 0.0000
 IR Inten    --     5.7520                28.8576                86.1060
 Raman Activ --     0.0000                 0.0000                 0.0000
 Depolar     --     0.0000                 0.0000                 0.0000
 Atom AN      X      Y      Z        X      Y      Z        X      Y      Z
   1   6     0.39  -0.16  -0.00     0.05   0.11  -0.01     0.14  -0.07   0.00
   2   6    -0.03  -0.00   0.00    -0.19  -0.28   0.02    -0.36   0.29  -0.01
   3   6    -0.03  -0.01   0.00    -0.05   0.19  -0.01     0.19   0.17  -0.01
   4   6     0.01   0.02  -0.00     0.23  -0.05  -0.00     0.15  -0.37   0.01
   5   6     0.02   0.01  -0.00    -0.19  -0.24   0.02    -0.29   0.01   0.01
   6   7    -0.04  -0.02   0.00    -0.20   0.21  -0.01     0.36   0.10  -0.01
   7   6     0.03   0.03  -0.00     0.43   0.03  -0.01    -0.16  -0.31   0.02
   8   6     0.06   0.04  -0.00    -0.21   0.02   0.00     0.06   0.08  -0.00
   9   1    -0.42   0.23   0.23    -0.05  -0.13   0.10    -0.03  -0.03   0.04
  10   1    -0.45   0.06   0.01     0.03   0.01  -0.00     0.08  -0.02  -0.00
  11   1    -0.43   0.21  -0.23    -0.06  -0.14  -0.08    -0.03  -0.04  -0.04
  12   1     0.06  -0.01  -0.00     0.10   0.06  -0.00    -0.26   0.06   0.00
  13   1     0.02  -0.02   0.00    -0.02   0.15  -0.01    -0.14   0.23  -0.01
  14   1     0.00  -0.00  -0.00     0.18   0.27  -0.02    -0.03   0.08  -0.00
  15   1    -0.09  -0.02   0.00    -0.04  -0.00   0.00     0.07   0.03  -0.00
  16   1    -0.07  -0.07   0.04     0.20  -0.12  -0.18    -0.02   0.00   0.02
  17   1    -0.07  -0.07  -0.03     0.20  -0.11   0.19    -0.03   0.00  -0.02
                     31                     32                     33
                        a                      a                      a 
 Frequencies --  1461.0681              1463.2185              1474.4211
 Red. masses --     1.5760                 3.5498                 1.5597
 Frc consts  --     0.0000                 0.0000                 0.0000
 IR Inten    --     0.9989                 1.0017                11.5336
 Raman Activ --     0.0000                 0.0000                 0.0000
 Depolar     --     0.0000                 0.0000                 0.0000
 Atom AN      X      Y      Z        X      Y      Z        X      Y      Z
   1   6     0.00   0.01   0.13     0.00  -0.00  -0.00    -0.00  -0.01  -0.18
   2   6     0.00   0.00   0.03    -0.04  -0.16   0.01    -0.00  -0.00  -0.03
   3   6    -0.00   0.00   0.00    -0.14   0.09  -0.00    -0.00   0.00   0.00
   4   6     0.00  -0.00  -0.00     0.16  -0.07  -0.00     0.00   0.00   0.00
   5   6    -0.00   0.00   0.00    -0.12  -0.10   0.01    -0.00  -0.00   0.00
   6   7    -0.00   0.00  -0.00    -0.05   0.10  -0.00     0.00   0.00  -0.00
   7   6     0.00  -0.00  -0.03     0.25   0.04  -0.01    -0.00  -0.00  -0.02
   8   6    -0.00  -0.01  -0.18    -0.01  -0.21   0.01    -0.00  -0.01  -0.13
   9   1    -0.04   0.25  -0.05     0.06   0.05  -0.06     0.06  -0.37   0.08
  10   1    -0.01  -0.02  -0.41    -0.11   0.02   0.00     0.01   0.03   0.59
  11   1     0.04  -0.26  -0.03     0.06   0.06   0.05    -0.05   0.38   0.05
  12   1     0.00  -0.00  -0.00     0.09   0.03  -0.00     0.00   0.00  -0.00
  13   1    -0.00   0.00   0.00    -0.00   0.07  -0.00     0.00   0.00  -0.00
  14   1     0.00   0.00  -0.00     0.06   0.11  -0.01     0.00   0.00  -0.00
  15   1     0.02   0.03   0.60     0.34   0.06  -0.01     0.01   0.02   0.41
  16   1     0.02   0.37   0.05    -0.33   0.32   0.29     0.02   0.26   0.03
  17   1    -0.02  -0.36   0.08    -0.34   0.29  -0.31    -0.01  -0.26   0.06
                     34                     35                     36
                        a                      a                      a 
 Frequencies --  1477.9513              1567.0622              1581.3348
 Red. masses --     2.1183                11.5966                11.5613
 Frc consts  --     0.0000                 0.0000                 0.0000
 IR Inten    --     2.8115                40.9908                60.8123
 Raman Activ --     0.0000                 0.0000                 0.0000
 Depolar     --     0.0000                 0.0000                 0.0000
 Atom AN      X      Y      Z        X      Y      Z        X      Y      Z
   1   6    -0.01   0.22  -0.01     0.02  -0.05   0.00     0.05  -0.02  -0.00
   2   6     0.10   0.00  -0.00    -0.07   0.35  -0.02    -0.42  -0.23   0.02
   3   6     0.05  -0.03   0.00     0.24  -0.20   0.00     0.54   0.09  -0.02
   4   6    -0.07  -0.01   0.00    -0.23   0.47  -0.02    -0.20  -0.10   0.01
   5   6     0.10   0.11  -0.01    -0.03  -0.35   0.02     0.28   0.33  -0.02
   6   7    -0.06  -0.05   0.00    -0.16   0.19  -0.01    -0.33  -0.10   0.01
   7   6    -0.00   0.04  -0.00     0.23  -0.45   0.02     0.20   0.03  -0.01
   8   6     0.02  -0.07   0.00    -0.01   0.04  -0.00    -0.02  -0.01   0.00
   9   1    -0.29  -0.37   0.34    -0.01   0.01   0.00     0.06   0.02  -0.05
  10   1     0.41  -0.04   0.00     0.05  -0.01  -0.00    -0.08   0.01   0.00
  11   1    -0.30  -0.39  -0.28    -0.01   0.01  -0.00     0.06   0.02   0.04
  12   1    -0.05  -0.01   0.00    -0.05  -0.05   0.00    -0.15   0.03   0.00
  13   1    -0.01  -0.03   0.00     0.06  -0.10   0.00    -0.07  -0.00   0.00
  14   1    -0.03  -0.06   0.00     0.08   0.04  -0.00    -0.06  -0.09   0.01
  15   1     0.09   0.01   0.00     0.10   0.03  -0.00     0.03   0.01  -0.00
  16   1    -0.10   0.11   0.09    -0.05   0.01   0.03    -0.03   0.01   0.02
  17   1    -0.10   0.09  -0.09    -0.05   0.00  -0.03    -0.03   0.01  -0.02
                     37                     38                     39
                        a                      a                      a 
 Frequencies --  3007.0309              3012.0505              3020.9603
 Red. masses --     1.9346                 1.9441                 1.5670
 Frc consts  --     0.0000                 0.0000                 0.0000
 IR Inten    --    46.4765                 6.3124                 3.0624
 Raman Activ --     0.0000                 0.0000                 0.0000
 Depolar     --     0.0000                 0.0000                 0.0000
 Atom AN      X      Y      Z        X      Y      Z        X      Y      Z
   1   6     0.00   0.01   0.27    -0.00  -0.01  -0.12    -0.16  -0.11   0.01
   2   6    -0.00   0.00   0.01     0.00  -0.00  -0.00    -0.01  -0.00   0.00
   3   6     0.00   0.00   0.00    -0.00   0.00  -0.00     0.00   0.00  -0.00
   4   6    -0.00  -0.00  -0.00    -0.00  -0.00   0.00    -0.00   0.00   0.00
   5   6    -0.00   0.00  -0.00     0.00  -0.00  -0.00    -0.00   0.00  -0.00
   6   7    -0.00   0.00   0.00    -0.00   0.00   0.00    -0.00   0.00  -0.00
   7   6     0.00   0.00   0.00     0.00   0.00   0.01     0.00  -0.00  -0.00
   8   6     0.00   0.01   0.12     0.01   0.01   0.27     0.11  -0.05  -0.00
   9   1    -0.35  -0.19  -0.46     0.15   0.08   0.20     0.29   0.16   0.46
  10   1     0.00   0.00   0.04    -0.00  -0.00  -0.02    -0.00   0.10  -0.01
  11   1     0.34   0.14  -0.51    -0.15  -0.06   0.23     0.26   0.11  -0.47
  12   1     0.00  -0.00   0.00    -0.00  -0.00  -0.00     0.00  -0.01   0.00
  13   1    -0.00  -0.00  -0.00     0.00   0.00   0.00     0.00   0.00  -0.00
  14   1     0.00  -0.00  -0.00    -0.00   0.00  -0.00     0.00  -0.00   0.00
  15   1     0.00   0.00   0.02     0.00   0.00   0.04     0.01   0.01  -0.00
  16   1    -0.16   0.05  -0.22    -0.37   0.12  -0.49    -0.21   0.06  -0.33
  17   1     0.15  -0.07  -0.21     0.34  -0.16  -0.48    -0.20   0.10   0.33
                     40                     41                     42
                        a                      a                      a 
 Frequencies --  3024.4331              3044.7254              3047.2663
 Red. masses --     1.4829                 1.6406                 1.7834
 Frc consts  --     0.0000                 0.0000                 0.0000
 IR Inten    --    71.6051                54.4755                96.5716
 Raman Activ --     0.0000                 0.0000                 0.0000
 Depolar     --     0.0000                 0.0000                 0.0000
 Atom AN      X      Y      Z        X      Y      Z        X      Y      Z
   1   6     0.11   0.06  -0.00    -0.02  -0.23   0.01    -0.00   0.04  -0.00
   2   6     0.01  -0.00  -0.00     0.00  -0.01   0.00     0.00   0.00  -0.00
   3   6    -0.00  -0.00   0.00    -0.00   0.01  -0.00    -0.00  -0.03   0.00
   4   6     0.00   0.00  -0.00    -0.00  -0.00   0.00    -0.02  -0.01   0.00
   5   6     0.00  -0.00   0.00     0.04  -0.03   0.00     0.21  -0.15   0.00
   6   7    -0.00   0.00  -0.00     0.00  -0.00   0.00     0.01  -0.00  -0.00
   7   6     0.01   0.00  -0.00    -0.00   0.00  -0.00    -0.00   0.00   0.00
   8   6     0.16  -0.06  -0.00    -0.01   0.01  -0.00    -0.00   0.00  -0.00
   9   1    -0.21  -0.11  -0.33    -0.05  -0.06  -0.06     0.01   0.01   0.02
  10   1     0.01  -0.03   0.00     0.15   0.93  -0.05    -0.03  -0.15   0.01
  11   1    -0.19  -0.07   0.34    -0.05  -0.05   0.07     0.01   0.01  -0.02
  12   1    -0.00  -0.00   0.00     0.00  -0.04   0.00     0.00   0.12  -0.01
  13   1    -0.00  -0.00   0.00     0.02   0.01  -0.00     0.10   0.05  -0.00
  14   1    -0.02   0.01  -0.00    -0.13   0.09  -0.00    -0.78   0.52  -0.01
  15   1     0.02  -0.02   0.00     0.00  -0.02   0.00     0.00  -0.00   0.00
  16   1    -0.30   0.09  -0.46     0.02  -0.00   0.02     0.00  -0.00   0.01
  17   1    -0.28   0.14   0.48     0.01  -0.01  -0.02     0.00  -0.00  -0.01
                     43                     44                     45
                        a                      a                      a 
 Frequencies --  3061.3165              3070.5019              3092.8764
 Red. masses --     1.8011                 1.7206                 1.8767
 Frc consts  --     0.0000                 0.0000                 0.0000
 IR Inten    --    71.6552                21.3189               116.7249
 Raman Activ --     0.0000                 0.0000                 0.0000
 Depolar     --     0.0000                 0.0000                 0.0000
 Atom AN      X      Y      Z        X      Y      Z        X      Y      Z
   1   6    -0.00  -0.01   0.00    -0.00   0.00   0.00     0.00   0.00  -0.00
   2   6     0.01  -0.01   0.00     0.00  -0.00   0.00    -0.00  -0.00   0.00
   3   6    -0.00  -0.26   0.01    -0.00  -0.01   0.00    -0.00   0.07  -0.00
   4   6     0.05   0.02  -0.00     0.00   0.00  -0.00     0.24   0.13  -0.01
   5   6    -0.01   0.02  -0.00    -0.00   0.00  -0.00     0.04  -0.03   0.00
   6   7    -0.00  -0.00   0.00     0.00  -0.00   0.00    -0.00   0.00  -0.00
   7   6    -0.00   0.00  -0.00    -0.00   0.01  -0.00    -0.00  -0.00   0.00
   8   6     0.00  -0.01   0.00    -0.06   0.25  -0.01    -0.00  -0.00   0.00
   9   1    -0.00  -0.00  -0.00     0.01   0.00   0.01     0.00   0.00   0.00
  10   1     0.01   0.06  -0.00    -0.00  -0.01   0.00    -0.00  -0.01   0.00
  11   1    -0.00  -0.00   0.00     0.01   0.00  -0.01     0.00   0.00  -0.00
  12   1     0.01   0.93  -0.04     0.00   0.02  -0.00    -0.00  -0.20   0.01
  13   1    -0.20  -0.10   0.01    -0.01  -0.01   0.00    -0.82  -0.44   0.04
  14   1     0.07  -0.05   0.00     0.00  -0.00   0.00    -0.11   0.07  -0.00
  15   1    -0.01   0.02  -0.00     0.24  -0.93   0.04    -0.00   0.01  -0.00
  16   1    -0.00  -0.00  -0.00    -0.01   0.03  -0.00     0.00  -0.00   0.00
  17   1    -0.00  -0.00   0.00    -0.01   0.03  -0.00     0.00  -0.00  -0.00
