      -----------------------------------------------------------      
     |                   =====================                   |     
     |                           x T B                           |     
     |                   =====================                   |     
     |                         S. Grimme                         |     
     |          Mulliken Center for Theoretical Chemistry        |     
     |                    University of Bonn                     |     
      -----------------------------------------------------------      

   * xtb version 6.7.1 (edcfbbe) compiled by 'albert@albert-system' on 2024-07-22

   xtb is free software: you can redistribute it and/or modify it under
   the terms of the GNU Lesser General Public License as published by
   the Free Software Foundation, either version 3 of the License, or
   (at your option) any later version.
   
   xtb is distributed in the hope that it will be useful,
   but WITHOUT ANY WARRANTY; without even the implied warranty of
   MERCHANTABILITY or FITNESS FOR A PARTICULAR PURPOSE.  See the
   GNU Lesser General Public License for more details.
   
   Cite this work as:
   * C. Bannwarth, E. Caldeweyher, S. Ehlert, A. Hansen, P. Pracht,
     J. Seibert, S. Spicher, S. Grimme, WIREs Comput. Mol. Sci., 2020, 11,
     e01493. DOI: 10.1002/wcms.1493
   
   for GFN2-xTB:
   * C. Bannwarth, S. Ehlert and S. Grimme., J. Chem. Theory Comput., 2019,
     15, 1652-1671. DOI: 10.1021/acs.jctc.8b01176
   for GFN1-xTB:
   * S. Grimme, C. Bannwarth, P. Shushkov, J. Chem. Theory Comput., 2017,
     13, 1989-2009. DOI: 10.1021/acs.jctc.7b00118
   for GFN0-xTB:
   * P. Pracht, E. Caldeweyher, S. Ehlert, S. Grimme, ChemRxiv, 2019, preprint.
     DOI: 10.26434/chemrxiv.8326202.v1
   for GFN-FF:
   * S. Spicher and S. Grimme, Angew. Chem. Int. Ed., 2020, 59, 15665-15673.
     DOI: 10.1002/anie.202004239
   
   for ALPB and GBSA implicit solvation:
   * S. Ehlert, M. Stahn, S. Spicher, S. Grimme, J. Chem. Theory Comput.,
     2021, 17, 4250-4261. DOI: 10.1021/acs.jctc.1c00471
   
   for ddCOSMO and CPCM-X implicit solvation:
   * M. Stahn, S. Ehlert, S. Grimme, J. Phys. Chem. A,
     2023, XX, XXXX-XXXX. DOI: 10.1021/acs.jpca.3c04382
   
   for DFT-D4:
   * E. Caldeweyher, C. Bannwarth and S. Grimme, J. Chem. Phys., 2017,
     147, 034112. DOI: 10.1063/1.4993215
   * E. Caldeweyher, S. Ehlert, A. Hansen, H. Neugebauer, S. Spicher,
     C. Bannwarth and S. Grimme, J. Chem. Phys., 2019, 150, 154122.
     DOI: 10.1063/1.5090222
   * E. Caldeweyher, J.-M. Mewes, S. Ehlert and S. Grimme, Phys. Chem. Chem. Phys.
     2020, 22, 8499-8512. DOI: 10.1039/D0CP00502A
   
   for sTDA-xTB:
   * S. Grimme and C. Bannwarth, J. Chem. Phys., 2016, 145, 054103.
     DOI: 10.1063/1.4959605
   
   in the mass-spec context:
   * V. Asgeirsson, C. Bauer and S. Grimme, Chem. Sci., 2017, 8, 4879.
     DOI: 10.1039/c7sc00601b
   * J. Koopman and S. Grimme, ACS Omega 2019, 4, 12, 15120-15133.
     DOI: 10.1021/acsomega.9b02011
   
   for metadynamics refer to:
   * S. Grimme, J. Chem. Theory Comput., 2019, 155, 2847-2862
     DOI: 10.1021/acs.jctc.9b00143
   
   for SPH calculations refer to:
   * S. Spicher and S. Grimme, J. Chem. Theory Comput., 2021, 17, 1701-1714
     DOI: 10.1021/acs.jctc.0c01306
   
   for ONIOM refer to:
   * C. Plett, A. Katbashev, S. Ehlert, S. Grimme, M. Bursch,
     Phys. Chem. Chem. Phys., 2023, 25, 17860-17868. DOI: 10.1039/D3CP02178E
   
   for DIPRO refer to:
   * J. Kohn, N. Gildemeister, S. Grimme, D. Fazzi, A. Hansen,
     J. Chem. Phys., 2023, just accepted.
   
   for PTB refer to:
   * S. Grimme, M. Mueller, A. Hansen, J. Chem. Phys., 2023, 158, 124111.
     DOI: 10.1063/5.0137838
   
   with help from (in alphabetical order)
   P. Atkinson, C. Bannwarth, F. Bohle, G. Brandenburg, E. Caldeweyher
   M. Checinski, S. Dohm, S. Ehlert, S. Ehrlich, I. Gerasimov, C. Hölzer
   A. Katbashev, J. Kohn, J. Koopman, C. Lavigne, S. Lehtola, F. März, M. Müller,
   F. Musil, H. Neugebauer, J. Pisarek, C. Plett, P. Pracht, F. Pultar,
   J. Seibert, P. Shushkov, S. Spicher, M. Stahn, M. Steiner, T. Strunk,
   J. Stückrath, T. Rose, and J. Unsleber
   
 * started run on 2025/04/06 at 18:00:47.396     
   ID    Z sym.   atoms
    1    6 C      1, 2, 4, 6, 8, 10
    2    1 H      3, 5, 7, 9, 11, 18-24
    3    8 O      12-17

           -------------------------------------------------
          |                Calculation Setup                |
           -------------------------------------------------

          program call               : /srv/scratch/z5358697/.xtb/bin/xtb solv.coord --gfn2 --sp --chrg 0 --norestart --parallel 1 --alpb water reference -I xtb_sp-xcontrol-inp
          hostname                   : k155
          coordinate file            : solv.coord
          omp threads                :                     1


           -------------------------------------------------
          |                 G F N 2 - x T B                 |
           -------------------------------------------------

        Reference                      10.1021/acs.jctc.8b01176
      * Hamiltonian:
        H0-scaling (s, p, d)           1.850000    2.230000    2.230000
        zeta-weighting                 0.500000
      * Dispersion:
        s8                             2.700000
        a1                             0.520000
        a2                             5.000000
        s9                             5.000000
      * Repulsion:
        kExp                           1.500000    1.000000
        rExp                           1.000000
      * Coulomb:
        alpha                          2.000000
        third order                    shell-resolved
        anisotropic                    true
        a3                             3.000000
        a5                             4.000000
        cn-shift                       1.200000
        cn-exp                         4.000000
        max-rad                        5.000000

      * Solvation model:               ALPB
        Solvent                        water
        Parameter file                 internal GFN2-xTB/ALPB
        Dielectric constant                8.0200E+01
        Reference state                gsolv=reference [X=1]
        Free energy shift                  2.8945E-03 Eh       1.8164E+00 kcal/mol
        Temperature                        2.9815E+02 K
        Density                            1.0000E+00 kg/L
        Solvent mass                       1.8000E+01 g/mol
        Interaction kernel             P16
        Born radius scaling (c1)           1.4744E+00
        Born radii integrator          GBOBC
        Born offset                        0.0000E+00 a0       0.0000E+00 AA
        H-bond correction              true
        Ion screening                  false
        Surface tension                    1.0000E-05 Eh       1.5569E+01 dyn/cm
        Grid points                               974 per atom

          ...................................................
          :                      SETUP                      :
          :.................................................:
          :  # basis functions                  60          :
          :  # atomic orbitals                  60          :
          :  # shells                           36          :
          :  # electrons                        72          :
          :  max. iterations                   250          :
          :  Hamiltonian                  GFN2-xTB          :
          :  restarted?                      false          :
          :  GBSA solvation                   true          :
          :  PC potential                    false          :
          :  electronic temp.          300.0000000     K    :
          :  accuracy                    1.0000000          :
          :  -> integral cutoff          0.2500000E+02      :
          :  -> integral neglect         0.1000000E-07      :
          :  -> SCF convergence          0.1000000E-05 Eh   :
          :  -> wf. convergence          0.1000000E-03 e    :
          :  Broyden damping             0.4000000          :
          :  net charge                          0          :
          :  unpaired electrons                  0          :
          ...................................................

 iter      E             dE          RMSdq      gap      omega  full diag
   1    -43.6497684 -0.436498E+02  0.480E+00   10.54       0.0  T
   2    -43.6826034 -0.328349E-01  0.258E+00   10.36       1.0  T
   3    -43.6845856 -0.198224E-02  0.596E-01   10.42       1.0  T
   4    -43.6849570 -0.371445E-03  0.174E-01   10.41       1.0  T
   5    -43.6850147 -0.576948E-04  0.692E-02   10.43       1.0  T
   6    -43.6850300 -0.152326E-04  0.205E-02   10.43       1.0  T
   7    -43.6850306 -0.675985E-06  0.641E-03   10.43       3.2  T
   8    -43.6850309 -0.226466E-06  0.201E-03   10.43      10.1  T
   9    -43.6850309 -0.924464E-08  0.859E-04   10.43      23.8  T
  10    -43.6850309 -0.325073E-08  0.284E-04   10.43      71.8  T

   *** convergence criteria satisfied after 10 iterations ***

         #    Occupation            Energy/Eh            Energy/eV
      -------------------------------------------------------------
         1        2.0000           -0.7279143             -19.8076
       ...           ...                  ...                  ...
        30        2.0000           -0.4608425             -12.5402
        31        2.0000           -0.4509626             -12.2713
        32        2.0000           -0.4418081             -12.0222
        33        2.0000           -0.4309710             -11.7273
        34        2.0000           -0.4253972             -11.5756
        35        2.0000           -0.4138425             -11.2612
        36        2.0000           -0.4019772             -10.9384 (HOMO)
        37                         -0.0185592              -0.5050 (LUMO)
        38                          0.0043845               0.1193
        39                          0.0179976               0.4897
        40                          0.0251687               0.6849
        41                          0.0340203               0.9257
       ...                                ...                  ...
        60                          0.3182709               8.6606
      -------------------------------------------------------------
                  HL-Gap            0.3834179 Eh           10.4333 eV
             Fermi-level           -0.2102682 Eh           -5.7217 eV

 SCC (total)                   0 d,  0 h,  0 min,  0.032 sec
 SCC setup                      ...        0 min,  0.001 sec (  4.394%)
 Dispersion                     ...        0 min,  0.000 sec (  0.431%)
 classical contributions        ...        0 min,  0.000 sec (  0.078%)
 integral evaluation            ...        0 min,  0.003 sec ( 10.490%)
 iterations                     ...        0 min,  0.020 sec ( 61.412%)
 molecular gradient             ...        0 min,  0.007 sec ( 22.771%)
 printout                       ...        0 min,  0.000 sec (  0.385%)

         :::::::::::::::::::::::::::::::::::::::::::::::::::::
         ::                     SUMMARY                     ::
         :::::::::::::::::::::::::::::::::::::::::::::::::::::
         :: total energy             -43.383031961770 Eh    ::
         :: total w/o Gsasa/hb       -43.367499526032 Eh    ::
         :: gradient norm              0.000107806941 Eh/a0 ::
         :: HOMO-LUMO gap             10.433333412093 eV    ::
         ::.................................................::
         :: SCC energy               -43.684869831850 Eh    ::
         :: -> isotropic ES            0.169570115903 Eh    ::
         :: -> anisotropic ES         -0.006705241998 Eh    ::
         :: -> anisotropic XC         -0.009252784295 Eh    ::
         :: -> dispersion             -0.019761577108 Eh    ::
         :: -> Gsolv                  -0.032858986760 Eh    ::
         ::    -> Gelec               -0.017326551022 Eh    ::
         ::    -> Gsasa                0.005034393633 Eh    ::
         ::    -> Ghb                 -0.023461378532 Eh    ::
         ::    -> Gshift               0.002894549160 Eh    ::
         :: repulsion energy           0.301837870080 Eh    ::
         :: add. restraining           0.000000000000 Eh    ::
         :: total charge              -0.000000000000 e     ::
         :::::::::::::::::::::::::::::::::::::::::::::::::::::

           -------------------------------------------------
          |                Property Printout                |
           -------------------------------------------------

    * Orbital Energies and Occupations

         #    Occupation            Energy/Eh            Energy/eV
      -------------------------------------------------------------
         1        2.0000           -0.7279143             -19.8076
       ...           ...                  ...                  ...
        24        2.0000           -0.5132895             -13.9673
        25        2.0000           -0.5045862             -13.7305
        26        2.0000           -0.4961020             -13.4996
        27        2.0000           -0.4941221             -13.4457
        28        2.0000           -0.4840212             -13.1709
        29        2.0000           -0.4628213             -12.5940
        30        2.0000           -0.4608425             -12.5402
        31        2.0000           -0.4509626             -12.2713
        32        2.0000           -0.4418081             -12.0222
        33        2.0000           -0.4309710             -11.7273
        34        2.0000           -0.4253972             -11.5756
        35        2.0000           -0.4138425             -11.2612
        36        2.0000           -0.4019772             -10.9384 (HOMO)
        37                         -0.0185592              -0.5050 (LUMO)
        38                          0.0043845               0.1193
        39                          0.0179976               0.4897
        40                          0.0251687               0.6849
        41                          0.0340203               0.9257
        42                          0.0423314               1.1519
        43                          0.0817015               2.2232
        44                          0.0894752               2.4347
        45                          0.0959135               2.6099
        46                          0.1126539               3.0655
        47                          0.1297097               3.5296
       ...                                ...                  ...
        60                          0.3182709               8.6606
      -------------------------------------------------------------
                  HL-Gap            0.3834179 Eh           10.4333 eV
             Fermi-level           -0.2102682 Eh           -5.7217 eV

     #   Z          covCN         q      C6AA      α(0)
     1   6 C        3.673     0.059    19.817     6.380
     2   6 C        3.740     0.082    19.294     6.267
     3   1 H        0.924     0.059     2.207     2.323
     4   6 C        3.729     0.101    19.013     6.225
     5   1 H        0.924     0.060     2.201     2.320
     6   6 C        3.730     0.107    18.912     6.208
     7   1 H        0.923     0.032     2.559     2.502
     8   6 C        3.725     0.082    19.309     6.274
     9   1 H        0.923     0.047     2.356     2.401
    10   6 C        3.615     0.234    17.379     6.015
    11   1 H        0.923     0.044     2.397     2.421
    12   8 O        1.700    -0.363    20.131     6.058
    13   8 O        1.655    -0.519    23.296     6.516
    14   8 O        1.656    -0.506    23.027     6.478
    15   8 O        1.656    -0.500    22.887     6.458
    16   8 O        1.656    -0.488    22.629     6.422
    17   8 O        1.655    -0.489    22.654     6.425
    18   1 H        0.924     0.056     2.242     2.341
    19   1 H        0.924     0.071     2.080     2.255
    20   1 H        0.803     0.369     0.547     1.162
    21   1 H        0.805     0.371     0.542     1.156
    22   1 H        0.805     0.370     0.543     1.158
    23   1 H        0.805     0.361     0.564     1.180
    24   1 H        0.805     0.360     0.565     1.181

 Mol. C6AA /au·bohr⁶  :       4714.070852
 Mol. C8AA /au·bohr⁸  :     100580.269730
 Mol. α(0) /au        :         98.124559


Wiberg/Mayer (AO) data.
largest (>0.10) Wiberg bond orders for each atom

 ---------------------------------------------------------------------------
     #   Z sym  total        # sym  WBO       # sym  WBO       # sym  WBO
 ---------------------------------------------------------------------------
     1   6 C    3.952 --    17 O    1.002     2 C    0.973    18 H    0.969
                            19 H    0.969
     2   6 C    3.939 --     1 C    0.973     4 C    0.964     3 H    0.957
                            12 O    0.951
     3   1 H    0.996 --     2 C    0.957
     4   6 C    3.961 --    16 O    1.007     6 C    0.969     2 C    0.964
                             5 H    0.955
     5   1 H    0.996 --     4 C    0.955
     6   6 C    3.962 --    15 O    1.001     4 C    0.969     8 C    0.968
                             7 H    0.956
     7   1 H    0.999 --     6 C    0.956
     8   6 C    3.957 --    14 O    1.001     6 C    0.968     9 H    0.957
                            10 C    0.945
     9   1 H    0.998 --     8 C    0.957
    10   6 C    3.928 --    13 O    0.995    12 O    0.982     8 C    0.945
                            11 H    0.944
    11   1 H    0.998 --    10 C    0.944
    12   8 O    2.074 --    10 C    0.982     2 C    0.951
    13   8 O    1.918 --    10 C    0.995    20 H    0.813
    14   8 O    1.920 --     8 C    1.001    21 H    0.847
    15   8 O    1.922 --     6 C    1.001    22 H    0.848
    16   8 O    1.938 --     4 C    1.007    23 H    0.853
    17   8 O    1.962 --     1 C    1.002    24 H    0.856
    18   1 H    0.997 --     1 C    0.969
    19   1 H    0.995 --     1 C    0.969
    20   1 H    0.864 --    13 O    0.813
    21   1 H    0.862 --    14 O    0.847
    22   1 H    0.863 --    15 O    0.848
    23   1 H    0.870 --    16 O    0.853
    24   1 H    0.870 --    17 O    0.856
 ---------------------------------------------------------------------------

Topologies differ in total number of bonds
Writing topology from bond orders to xtbtopo.mol

molecular dipole:
                 x           y           z       tot (Debye)
 q only:        0.090       0.309       0.309
   full:        0.278       0.290       0.473       1.578
molecular quadrupole (traceless):
                xx          xy          yy          xz          yz          zz
 q only:        9.430       0.148      -5.451      -2.177       4.244      -3.980
  q+dip:       10.158       0.074      -6.880      -3.036       4.792      -3.277
   full:       10.631      -0.142      -6.932      -2.837       5.096      -3.699


           -------------------------------------------------
          | TOTAL ENERGY              -43.383031961770 Eh   |
          | GRADIENT NORM               0.000107806941 Eh/α |
          | HOMO-LUMO GAP              10.433333412093 eV   |
           -------------------------------------------------

------------------------------------------------------------------------
 * finished run on 2025/04/06 at 18:00:47.465     
------------------------------------------------------------------------
 total:
 * wall-time:     0 d,  0 h,  0 min,  0.069 sec
 *  cpu-time:     0 d,  0 h,  0 min,  0.029 sec
 * ratio c/w:     0.423 speedup
 SCF:
 * wall-time:     0 d,  0 h,  0 min,  0.032 sec
 *  cpu-time:     0 d,  0 h,  0 min,  0.021 sec
 * ratio c/w:     0.643 speedup

