14
 energy: -20.788705884259 gnorm: 0.028582760037 xtb: 6.7.1 (edcfbbe)
C           -2.48555131004015       -0.05155778150225        0.34461704764196
C           -1.23864722198827       -0.66612113377737       -0.27118006361569
C            0.02762799259221        0.02667842046567        0.14332565675235
O            0.09416868936816        1.06961693944158        0.77142006636675
O            1.11912714651005       -0.64422822207640       -0.28215080583068
C            2.39834253943130       -0.04090469983992        0.04033367584661
H           -2.60058404400605        0.99426146787233        0.04739517014164
H           -3.37194831743099       -0.59898456217785        0.01366680768079
H           -2.44668990210196       -0.09381274752111        1.43685265409800
H           -1.27777433696715       -0.62578373817455       -1.36728148188438
H           -1.14152316131699       -1.72647782538986       -0.01419352410711
H            2.51086082738366        0.05139432980326        1.12300877376299
H            2.48277152588455        0.94091088595577       -0.43167785037172
H            3.14796161066359       -0.72127956397555       -0.36195464376048
14
 energy: -20.789504884791 gnorm: 0.010573425939 xtb: 6.7.1 (edcfbbe)
C           -2.48079881048083       -0.05555504347299        0.34220221245540
C           -1.23429371232370       -0.66929442682300       -0.27376211521359
C            0.02737642679856        0.03278117116655        0.14285733020464
O            0.09055005241755        1.06734120757551        0.77078793032434
O            1.11565694371029       -0.62901920278242       -0.27585406727741
C            2.39198607958043       -0.04435169397081        0.03930039434643
H           -2.57933111560835        0.98774409546499        0.04870869062317
H           -3.36564821988693       -0.59710680787931        0.01379110337834
H           -2.43030310716879       -0.09405451446957        1.42874200169100
H           -1.27968567808027       -0.62275277099233       -1.36618304906668
H           -1.13655012343355       -1.72450253833631       -0.00742777075248
H            2.49589714148257        0.05302043925199        1.11973813334639
H            2.47040905769607        0.93834420334999       -0.42530409653872
H            3.13287710327893       -0.72888234897855       -0.36541521479980
14
 energy: -20.789629883696 gnorm: 0.003722504421 xtb: 6.7.1 (edcfbbe)
C           -2.47718902235091       -0.05615451282437        0.34161488245230
C           -1.23224189813445       -0.67452298079849       -0.27744701015942
C            0.02624336804562        0.03420345813094        0.14373890477217
O            0.08528793132271        1.06802600761935        0.77073143822637
O            1.11164663809236       -0.62076053045745       -0.27344429482395
C            2.38509212985904       -0.04569662057688        0.03853839342701
H           -2.56546492168180        0.98700305858436        0.05036862488691
H           -3.36212335703939       -0.59218659419040        0.01364859271503
H           -2.42128268072704       -0.09548949003406        1.42604078052509
H           -1.27946834851037       -0.62584740434730       -1.36772127723074
H           -1.13244339782425       -1.72602117298152       -0.00415344254169
H            2.49118804328398        0.05385328163080        1.11842092546754
H            2.46783154016867        0.93902752972500       -0.42058811468282
H            3.12106601347779       -0.73172226037622       -0.36756692031276
14
 energy: -20.789642317096 gnorm: 0.001481563743 xtb: 6.7.1 (edcfbbe)
C           -2.47728796450688       -0.05651178446930        0.34176357356150
C           -1.23238117784605       -0.67605095396313       -0.27828668738124
C            0.02606640733484        0.03554832138927        0.14139096368758
O            0.08249547578170        1.06917293206969        0.77042673829954
O            1.11099255824655       -0.61819172185691       -0.27445845091939
C            2.38389670234110       -0.04608658896025        0.03849381240241
H           -2.56202937507198        0.98734112747256        0.05160093868605
H           -3.36357722195969       -0.58977849634014        0.01331768565184
H           -2.42014894306379       -0.09762571856019        1.42617528123451
H           -1.28070832691388       -0.62851532447464       -1.36810447397104
H           -1.13115600438611       -1.72642833161992       -0.00248322654951
H            2.49171771392182        0.05346429965414        1.11884385747261
H            2.47069456533724        0.93974987359001       -0.41900336652789
H            3.11956762876709       -0.73237586482746       -0.36749516292593
14
 energy: -20.789645947417 gnorm: 0.001213251301 xtb: 6.7.1 (edcfbbe)
C           -2.47758678647337       -0.05620756291291        0.34161278530071
C           -1.23284457934361       -0.67751695686479       -0.27822974775116
C            0.02617947142939        0.03510705879310        0.14125716474541
O            0.07904988043771        1.07040669705433        0.76953983007269
O            1.11095717579939       -0.61591654624420       -0.27599730938837
C            2.38361255788686       -0.04584121545844        0.03784697338265
H           -2.55844149150053        0.98902690415876        0.05432254877185
H           -3.36533383068173       -0.58559092132688        0.01008858246569
H           -2.42215539013840       -0.10143925424384        1.42624833865410
H           -1.28153489180000       -0.63313690906048       -1.36805222155974
H           -1.13102613466919       -1.72684567324451        0.00089636915827
H            2.49323444494121        0.05226402997498        1.11888202029706
H            2.47426502215919        0.94132928307884       -0.41773376925417
H            3.11976658993503       -0.73192716460021       -0.36850008217397
14
 energy: -20.789647784217 gnorm: 0.000543923496 xtb: 6.7.1 (edcfbbe)
C           -2.47744962308120       -0.05607575273189        0.34168706341098
C           -1.23286114352818       -0.67747042883306       -0.27749931965244
C            0.02636213445078        0.03572554907262        0.14008218148410
O            0.07925599760705        1.07012364816518        0.76946311728303
O            1.11122997233708       -0.61583869815455       -0.27671310463241
C            2.38406206949298       -0.04558952497490        0.03783158995870
H           -2.55777360428383        0.98953531070722        0.05578538487005
H           -3.36507477315351       -0.58455657650306        0.00816651718543
H           -2.42404159084006       -0.10272143971565        1.42633476315227
H           -1.28180292572154       -0.63424955937975       -1.36748208178053
H           -1.13118585782087       -1.72686545808937        0.00210882799489
H            2.49280205702532        0.05211198061674        1.11882138835808
H            2.47424197553460        0.94128657055093       -0.41797390675968
H            3.12037734996334       -0.73170385162672       -0.36843093815146
14
 energy: -20.789649250318 gnorm: 0.000422017468 xtb: 6.7.1 (edcfbbe)
C           -2.47730537033126       -0.05571385546165        0.34121355121133
C           -1.23270553574649       -0.67790672411689       -0.27622907655878
C            0.02656496677183        0.03518138956084        0.14094162705697
O            0.07974437535787        1.06948097041375        0.76987924147904
O            1.11136563813836       -0.61592195374915       -0.27708977050913
C            2.38431522511136       -0.04493637612920        0.03725376760524
H           -2.55492213262414        0.99081102471810        0.05812767273080
H           -3.36501763096201       -0.58160420821448        0.00378683644935
H           -2.42724261434065       -0.10527229202574        1.42581133825538
H           -1.28111344790011       -0.63645884685357       -1.36640213279063
H           -1.13173913062712       -1.72710359174563        0.00474111347013
H            2.49245517487156        0.05223263485073        1.11807001190388
H            2.47318536262604        0.94174794093750       -0.41849836623614
H            3.12055715763672       -0.73082434308086       -0.36942433134641
14
 energy: -20.789650601874 gnorm: 0.000514060462 xtb: 6.7.1 (edcfbbe)
C           -2.47732433210998       -0.05517777099320        0.34052859660463
C           -1.23257808345574       -0.67926485740784       -0.27462810537135
C            0.02661900620930        0.03462586895464        0.14156956764135
O            0.07964914959753        1.06859734926641        0.77104609253995
O            1.11134057845559       -0.61557972057734       -0.27776643774209
C            2.38431230620616       -0.04410483308659        0.03629472331431
H           -2.54956831637197        0.99293989950873        0.06181042819080
H           -3.36570692149198       -0.57604141703233       -0.00292000503777
H           -2.43200924161253       -0.10973104879933        1.42512199348211
H           -1.28013353803635       -0.64058437635804       -1.36493100874175
H           -1.13205688343339       -1.72778781059296        0.00907448672015
H            2.49263970642857        0.05267690159424        1.11706458544433
H            2.47243239360305        0.94273555067102       -0.41912166182029
H            3.12052621399371       -0.72959196604366       -0.37096177250333
14
 energy: -20.789651253554 gnorm: 0.000227344202 xtb: 6.7.1 (edcfbbe)
C           -2.47758437043490       -0.05470917739986        0.33984704617203
C           -1.23250124492454       -0.68033474868933       -0.27347734264160
C            0.02655526343212        0.03374891702138        0.14277384583367
O            0.07973066319721        1.06757009672045        0.77266889119661
O            1.11136271403945       -0.61562706085528       -0.27777531311574
C            2.38423066677305       -0.04352974332795        0.03542812666285
H           -2.54576691425401        0.99441425904230        0.06398645750765
H           -3.36641465860323       -0.57187038247711       -0.00778195125608
H           -2.43561004250028       -0.11269126153343        1.42439392253851
H           -1.27903318668425       -0.64330136284367       -1.36382654262970
H           -1.13246335232850       -1.72832566103103        0.01207053374057
H            2.49344395566710        0.05338971195814        1.11619424727465
H            2.47163584433129        0.94351890907122       -0.41994971832427
H            3.12055670027146       -0.72854072655210       -0.37237072023813
14
 energy: -20.789651397632 gnorm: 0.000062226004 xtb: 6.7.1 (edcfbbe)
C           -2.47770708542187       -0.05449302163045        0.33953153484758
C           -1.23245193025196       -0.68069223212889       -0.27307500859293
C            0.02651489495556        0.03330597024800        0.14348935641873
O            0.07980549154438        1.06688555524657        0.77384255494964
O            1.11139295502393       -0.61573700378942       -0.27752957581977
C            2.38411605101149       -0.04335710343890        0.03506413507614
H           -2.54469866174564        0.99483785439906        0.06423012922781
H           -3.36656168252197       -0.57072988529668       -0.00928986516971
H           -2.43672936770799       -0.11321809492858        1.42406185762798
H           -1.27847511537332       -0.64393060812295       -1.36342703564759
H           -1.13276617070676       -1.72857190656133        0.01289798835131
H            2.49400307657527        0.05380252197041        1.11579018619797
H            2.47119073462756        0.94374829713735       -0.42040614474418
H            3.12050884797328       -0.72813857400046       -0.37299863000194
14
 energy: -20.789651458881 gnorm: 0.000059124513 xtb: 6.7.1 (edcfbbe)
C           -2.47781157117737       -0.05437260962257        0.33932277166037
C           -1.23242117085614       -0.68078201006738       -0.27285640459582
C            0.02652610610979        0.03301860788673        0.14399830409643
O            0.07989579880427        1.06632958631602        0.77480377192012
O            1.11144610944589       -0.61580738621858       -0.27741999283243
C            2.38410380114089       -0.04327805132215        0.03485432196387
H           -2.54456799924170        0.99493677111119        0.06389973180035
H           -3.36663320479795       -0.57050317295199       -0.00973660324441
H           -2.43718457025352       -0.11300951058706        1.42387092462273
H           -1.27808671014574       -0.64405206959511       -1.36322619380275
H           -1.13300959373775       -1.72867130895714        0.01316790991885
H            2.49437764583361        0.05394688719745        1.11555770208127
H            2.47095776013126        0.94386459198552       -0.42064819830195
H            3.12054963672643       -0.72790855607119       -0.37340656256561
