24
 energy: -31.806523094924 gnorm: 0.021883408966 xtb: 6.7.1 (edcfbbe)
C           -3.61661096351483       -1.03382653746193        0.03351885733745
C           -2.12188765825018       -1.32727052679650       -0.00729944145216
C           -1.21192892351069       -0.12210692148651        0.02027742671006
C           -1.70561810657084        1.16496050812077        0.08131318396016
C           -0.85233413112075        2.29018429244048        0.10771882115378
C            0.50954615274020        2.13347500472631        0.07300036560662
C            1.07238109007006        0.83459646959750        0.01017063959578
C            0.20873613765689       -0.30909165477697       -0.01657777862087
C            0.80564626122257       -1.59439442195362       -0.07908884239932
C            2.17374670939947       -1.74348274619399       -0.11365705462911
C            3.01891295365919       -0.61508897715471       -0.08758718683050
C            2.47619198788779        0.64624003400122       -0.02655933374008
H           -3.90171986225161       -0.50180065072760        0.94691379110416
H           -4.17617628240911       -1.97339949220602        0.00764920770861
H           -3.93603874559596       -0.43264712752539       -0.82395168657690
H           -1.89606533239891       -1.91423375282683       -0.90741437482441
H           -1.86102371650284       -1.97999908060257        0.83627829453705
H           -2.77673689179959        1.33154689694260        0.11011097824216
H           -1.28770743087764        3.28371723541717        0.15588708055773
H            1.17328659301627        2.99326591016691        0.09271738308434
H            0.17706485347899       -2.47742933778860       -0.10009063664391
H            2.60710588076917       -2.73775813074081       -0.16125741652300
H            4.09604612985003       -0.74696644788695       -0.11532141828934
H            3.11696362453527        1.52361798487439       -0.00575917794821
24
 energy: -31.807667501677 gnorm: 0.006245071223 xtb: 6.7.1 (edcfbbe)
C           -3.60937590280854       -1.03222313395076        0.03336594908294
C           -2.11589419290596       -1.32273189838174       -0.00723861361463
C           -1.20788329166619       -0.11910715901684        0.02060339733577
C           -1.69919604436789        1.16153778818668        0.08108531843706
C           -0.85028150720983        2.27956895024117        0.10713360574302
C            0.50478243576938        2.12098052240794        0.07249257008709
C            1.06552316419589        0.82707751510850        0.00999879880298
C            0.20681476853875       -0.30901567580291       -0.01639421305569
C            0.80594023509346       -1.58744297616043       -0.07876745517668
C            2.16689980570400       -1.73558094523004       -0.11313526982397
C            3.00694344256656       -0.61314404526426       -0.08708240741305
C            2.46418005850462        0.64032494797317       -0.02667229024070
H           -3.88484033753234       -0.50480764923172        0.94599935247294
H           -4.16353354329620       -1.96977836784000        0.00754756683019
H           -3.91933855286188       -0.43564665943199       -0.82395714680471
H           -1.89822459114900       -1.89802114080942       -0.91436890256580
H           -1.86317185742099       -1.96474536638904        0.84434823649425
H           -2.76441565930471        1.33262722487163        0.11006260214503
H           -1.28444613334744        3.26894506172585        0.15514395335597
H            1.16610511356532        2.97680914101274        0.09221401859754
H            0.18234146687430       -2.46812353966021       -0.09987327214036
H            2.60141711171352       -2.72461757631533       -0.16076883401086
H            4.07972289880095       -0.74522147721395       -0.11488049333453
H            3.10171144202717        1.51444498932934       -0.00586479008372
24
 energy: -31.807726631275 gnorm: 0.001714598960 xtb: 6.7.1 (edcfbbe)
C           -3.60625506515977       -1.03018077608731        0.03338208684791
C           -2.11197435317100       -1.32362551843077       -0.00737404366709
C           -1.20733118897058       -0.11813351882109        0.02073393139002
C           -1.69900246127443        1.16060222749529        0.08110623663931
C           -0.85087136350129        2.27741500820942        0.10708257746991
C            0.50292496243145        2.11767311408579        0.07239072913063
C            1.06243590728304        0.82447574209788        0.01000890012038
C            0.20524171358321       -0.30936066063811       -0.01630389517961
C            0.80452693235697       -1.58655511175597       -0.07866759545558
C            2.16389502159620       -1.73448702458507       -0.11303609927292
C            3.00331580609460       -0.61285603287994       -0.08697325290043
C            2.46004512672261        0.63886781709523       -0.02664571838070
H           -3.87795359139347       -0.50385797037944        0.94557674989572
H           -4.15819596060021       -1.96722540398715        0.00758718961714
H           -3.91253069635292       -0.43475341004050       -0.82370796330044
H           -1.89481140842703       -1.89435938107222       -0.91572093785057
H           -1.85983440292675       -1.96152025547646        0.84558411915276
H           -2.76252394556700        1.33353505318989        0.11014194500208
H           -1.28473663231296        3.26552321898656        0.15490236069598
H            1.16442225179804        2.97171246894735        0.09194457084177
H            0.18168883723934       -2.46643259487964       -0.09980194309066
H            2.59892236015348       -2.72194278149601       -0.16064907401396
H            4.07476764164552       -0.74523812474068       -0.11469698898904
H            3.09561483823593        1.51283244532131       -0.00587220358255
24
 energy: -31.807729516240 gnorm: 0.000333880911 xtb: 6.7.1 (edcfbbe)
C           -3.60636110512256       -1.03076403661805        0.03338038192454
C           -2.11117114130857       -1.32421885401453       -0.00746657534316
C           -1.20745137241914       -0.11767086053066        0.02082185928416
C           -1.69950753539968        1.16082224194634        0.08118518957002
C           -0.85104133219138        2.27789210471022        0.10708015767231
C            0.50286888353780        2.11764245764989        0.07234431891578
C            1.06188391544056        0.82407286629698        0.01001474448698
C            0.20478912578998       -0.30939522741169       -0.01624670493666
C            0.80390663744324       -1.58695987752944       -0.07863821165200
C            2.16321111748439       -1.73478076217431       -0.11299943202790
C            3.00309603104539       -0.61280330516982       -0.08692732809108
C            2.45972056678568        0.63894800527379       -0.02662484747310
H           -3.87572230560841       -0.50403670773437        0.94559517762843
H           -4.15841162807495       -1.96750810981269        0.00764747034557
H           -3.91040599593381       -0.43495407720944       -0.82376711873097
H           -1.89402769523345       -1.89369797131035       -0.91581040166155
H           -1.85904444597611       -1.96114577434444        0.84536936606791
H           -2.76277320575757        1.33487280718660        0.11028634939874
H           -1.28501978884722        3.26581290870999        0.15487542986791
H            1.16499202008067        2.97107938046535        0.09181965344959
H            0.18095817475370       -2.46679231378688       -0.09977817117057
H            2.59856218495625       -2.72200376807302       -0.16065273873295
H            4.07432787526749       -0.74574429972933       -0.11468130266855
H            3.09440134877067        1.51344170336820       -0.00583558500338
24
 energy: -31.807729675686 gnorm: 0.000141387754 xtb: 6.7.1 (edcfbbe)
C           -3.60647497830473       -1.03062664378727        0.03342185417894
C           -2.11124840590329       -1.32443976827111       -0.00753081798138
C           -1.20753258666802       -0.11775610278243        0.02080836992692
C           -1.69960262745623        1.16077962785888        0.08119213279069
C           -0.85101049760321        2.27793613745652        0.10709958292996
C            0.50289774988335        2.11773803930393        0.07234480489941
C            1.06198248754866        0.82411016312698        0.01002131809788
C            0.20481805247891       -0.30940801240036       -0.01624432573830
C            0.80396641755358       -1.58707632495943       -0.07862891873927
C            2.16328710857983       -1.73475091318584       -0.11298742402125
C            3.00325850930897       -0.61272392165805       -0.08692094349578
C            2.45997216322850        0.63903238285329       -0.02661711424372
H           -3.87606795248582       -0.50398769722045        0.94570106667845
H           -4.15847340881815       -1.96739478666969        0.00772282063370
H           -3.91085745130005       -0.43490944309513       -0.82375958242863
H           -1.89412555042596       -1.89390841406414       -0.91597037568350
H           -1.85906408055960       -1.96153439041366        0.84525173851140
H           -2.76289649485316        1.33515446875303        0.11032296236649
H           -1.28509624670790        3.26591073457527        0.15486594374838
H            1.16512944069980        2.97118288631837        0.09176212705040
H            0.18103337353422       -2.46697676470064       -0.09976564006934
H            2.59883561015143       -2.72197692709019       -0.16062252419960
H            4.07451814663204       -0.74597828295030       -0.11466268276336
H            3.09453155096979        1.51371248316076       -0.00581269132843
24
 energy: -31.807729701266 gnorm: 0.000029546562 xtb: 6.7.1 (edcfbbe)
C           -3.60653203148320       -1.03070860603577        0.03345110292417
C           -2.11133383951443       -1.32435114742478       -0.00757814301739
C           -1.20751391099581       -0.11775334640691        0.02080203671052
C           -1.69955328197701        1.16074101223431        0.08119000944457
C           -0.85095339336346        2.27789122904151        0.10708169568906
C            0.50292067975396        2.11772087913720        0.07232551448112
C            1.06200532405095        0.82409205034279        0.01001637978705
C            0.20485744706235       -0.30938061897039       -0.01624610081297
C            0.80400890147697       -1.58706644113322       -0.07862338386601
C            2.16329935741172       -1.73470146730932       -0.11296448528782
C            3.00328125926664       -0.61268308071217       -0.08689555652688
C            2.46001876381821        0.63903695316286       -0.02660615966792
H           -3.87604709099430       -0.50402775309379        0.94573136678720
H           -4.15857621930945       -1.96748420961983        0.00777898383790
H           -3.91093520754673       -0.43494254021303       -0.82369124970552
H           -1.89428591945828       -1.89379463998212       -0.91605924715705
H           -1.85915669891130       -1.96154091538084        0.84514187091032
H           -2.76282069640954        1.33521457804447        0.11032037786390
H           -1.28510058311422        3.26583015345116        0.15486707820300
H            1.16516812126617        2.97115413684377        0.09175022184241
H            0.18107590744562       -2.46695149061877       -0.09975767243765
H            2.59892560836043       -2.72189625863732       -0.16059823909115
H            4.07453148215369       -0.74605279207992       -0.11464642538309
H            3.09449635049399        1.51376284551850       -0.00579829440771
