 Entering Gaussian System
 *********************************************
 Gaussian 98:
 frequency output generated by the xtb code
 *********************************************
                         Standard orientation:
 --------------------------------------------------------------------
  Center     Atomic     Atomic              Coordinates (Angstroms)
  Number     Number      Type              X           Y           Z
 --------------------------------------------------------------------
    1          7             0        0.730877    0.000004   -0.089214
    2          7             0       -0.730872    0.000011    0.089201
    3          1             0        1.063318    0.813168    0.426548
    4          1             0        1.063319   -0.813124    0.426603
    5          1             0       -1.063313   -0.813162   -0.426547
    6          1             0       -1.063315    0.813131   -0.426630
 --------------------------------------------------------------------
     1 basis functions        1 primitive gaussians
     1 alpha electrons        1 beta electrons
 
 Harmonic frequencies (cm**-1), IR intensities (km*mol⁻¹),
 Raman scattering activities (A**4/amu), Raman depolarization ratios,
 reduced masses (AMU), force constants (mDyne/A) and normal coordinates:
                      1                      2                      3
                        a                      a                      a 
 Frequencies --   312.5599              1005.3034              1026.7939
 Red. masses --     1.4458                 1.1103                 2.6160
 Frc consts  --     0.0000                 0.0000                 0.0000
 IR Inten    --   151.8242                 5.3855               277.0202
 Raman Activ --     0.0000                 0.0000                 0.0000
 Depolar     --     0.0000                 0.0000                 0.0000
 Atom AN      X      Y      Z        X      Y      Z        X      Y      Z
   1   7    -0.00  -0.13   0.00     0.00   0.06  -0.00    -0.17   0.00   0.18
   2   7    -0.00  -0.13   0.00    -0.00   0.06   0.00    -0.17   0.00   0.18
   3   1    -0.02   0.24  -0.43     0.47  -0.12  -0.10     0.32   0.06  -0.33
   4   1     0.02   0.24   0.43    -0.47  -0.12   0.10     0.32  -0.06  -0.33
   5   1    -0.02   0.24  -0.43     0.47  -0.12  -0.10     0.32   0.06  -0.33
   6   1     0.02   0.24   0.43    -0.47  -0.12   0.10     0.32  -0.06  -0.33
                      4                      5                      6
                        a                      a                      a 
 Frequencies --  1076.5092              1217.0977              1355.0436
 Red. masses --    13.3435                 4.0210                 3.3861
 Frc consts  --     0.0000                 0.0000                 0.0000
 IR Inten    --     0.0000                 0.0000                 0.0000
 Raman Activ --     0.0000                 0.0000                 0.0000
 Depolar     --     0.0000                 0.0000                 0.0000
 Atom AN      X      Y      Z        X      Y      Z        X      Y      Z
   1   7    -0.68   0.00   0.07     0.02  -0.00  -0.34     0.00  -0.30   0.00
   2   7     0.68  -0.00  -0.07    -0.02   0.00   0.34    -0.00   0.30  -0.00
   3   1    -0.11   0.01  -0.03    -0.28  -0.11   0.32    -0.44   0.05   0.09
   4   1    -0.11  -0.01  -0.03    -0.28   0.11   0.32     0.44   0.05  -0.09
   5   1     0.11  -0.01   0.03     0.28   0.11  -0.32     0.44  -0.05  -0.09
   6   1     0.11   0.01   0.03     0.28  -0.11  -0.32    -0.44  -0.05   0.09
                      7                      8                      9
                        a                      a                      a 
 Frequencies --  1492.0542              1539.4804              3332.2275
 Red. masses --     2.1384                 1.5454                 1.4796
 Frc consts  --     0.0000                 0.0000                 0.0000
 IR Inten    --    99.0729                 0.0000                 0.0000
 Raman Activ --     0.0000                 0.0000                 0.0000
 Depolar     --     0.0000                 0.0000                 0.0000
 Atom AN      X      Y      Z        X      Y      Z        X      Y      Z
   1   7     0.16   0.00   0.13     0.14   0.00   0.03    -0.07  -0.00  -0.11
   2   7     0.16   0.00   0.13    -0.14  -0.00  -0.03     0.07   0.00   0.11
   3   1    -0.30   0.28  -0.24    -0.36   0.26  -0.20     0.16   0.41   0.22
   4   1    -0.30  -0.28  -0.24    -0.36  -0.26  -0.20     0.16  -0.41   0.22
   5   1    -0.30   0.28  -0.24     0.36  -0.26   0.20    -0.16  -0.41  -0.22
   6   1    -0.30  -0.28  -0.24     0.36   0.26   0.20    -0.16   0.41  -0.22
                     10                     11                     12
                        a                      a                      a 
 Frequencies --  3346.8417              3367.9789              3378.2015
 Red. masses --     1.5403                 2.0607                 2.1032
 Frc consts  --     0.0000                 0.0000                 0.0000
 IR Inten    --    10.3894                 0.0000                 2.2660
 Raman Activ --     0.0000                 0.0000                 0.0000
 Depolar     --     0.0000                 0.0000                 0.0000
 Atom AN      X      Y      Z        X      Y      Z        X      Y      Z
   1   7     0.08   0.00   0.12     0.00  -0.20   0.00    -0.00   0.21  -0.00
   2   7     0.08  -0.00   0.12     0.00   0.20  -0.00     0.00   0.21  -0.00
   3   1    -0.15  -0.41  -0.22     0.16   0.38   0.24    -0.16  -0.38  -0.24
   4   1    -0.15   0.41  -0.22    -0.16   0.38  -0.24     0.16  -0.38   0.24
   5   1    -0.15  -0.41  -0.22    -0.16  -0.38  -0.24    -0.16  -0.38  -0.24
   6   1    -0.15   0.41  -0.22     0.16  -0.38   0.24     0.16  -0.38   0.24
