      -----------------------------------------------------------      
     |                   =====================                   |     
     |                           x T B                           |     
     |                   =====================                   |     
     |                         S. Grimme                         |     
     |          Mulliken Center for Theoretical Chemistry        |     
     |                    University of Bonn                     |     
      -----------------------------------------------------------      

   * xtb version 6.7.1 (edcfbbe) compiled by 'albert@albert-system' on 2024-07-22

   xtb is free software: you can redistribute it and/or modify it under
   the terms of the GNU Lesser General Public License as published by
   the Free Software Foundation, either version 3 of the License, or
   (at your option) any later version.
   
   xtb is distributed in the hope that it will be useful,
   but WITHOUT ANY WARRANTY; without even the implied warranty of
   MERCHANTABILITY or FITNESS FOR A PARTICULAR PURPOSE.  See the
   GNU Lesser General Public License for more details.
   
   Cite this work as:
   * C. Bannwarth, E. Caldeweyher, S. Ehlert, A. Hansen, P. Pracht,
     J. Seibert, S. Spicher, S. Grimme, WIREs Comput. Mol. Sci., 2020, 11,
     e01493. DOI: 10.1002/wcms.1493
   
   for GFN2-xTB:
   * C. Bannwarth, S. Ehlert and S. Grimme., J. Chem. Theory Comput., 2019,
     15, 1652-1671. DOI: 10.1021/acs.jctc.8b01176
   for GFN1-xTB:
   * S. Grimme, C. Bannwarth, P. Shushkov, J. Chem. Theory Comput., 2017,
     13, 1989-2009. DOI: 10.1021/acs.jctc.7b00118
   for GFN0-xTB:
   * P. Pracht, E. Caldeweyher, S. Ehlert, S. Grimme, ChemRxiv, 2019, preprint.
     DOI: 10.26434/chemrxiv.8326202.v1
   for GFN-FF:
   * S. Spicher and S. Grimme, Angew. Chem. Int. Ed., 2020, 59, 15665-15673.
     DOI: 10.1002/anie.202004239
   
   for ALPB and GBSA implicit solvation:
   * S. Ehlert, M. Stahn, S. Spicher, S. Grimme, J. Chem. Theory Comput.,
     2021, 17, 4250-4261. DOI: 10.1021/acs.jctc.1c00471
   
   for ddCOSMO and CPCM-X implicit solvation:
   * M. Stahn, S. Ehlert, S. Grimme, J. Phys. Chem. A,
     2023, XX, XXXX-XXXX. DOI: 10.1021/acs.jpca.3c04382
   
   for DFT-D4:
   * E. Caldeweyher, C. Bannwarth and S. Grimme, J. Chem. Phys., 2017,
     147, 034112. DOI: 10.1063/1.4993215
   * E. Caldeweyher, S. Ehlert, A. Hansen, H. Neugebauer, S. Spicher,
     C. Bannwarth and S. Grimme, J. Chem. Phys., 2019, 150, 154122.
     DOI: 10.1063/1.5090222
   * E. Caldeweyher, J.-M. Mewes, S. Ehlert and S. Grimme, Phys. Chem. Chem. Phys.
     2020, 22, 8499-8512. DOI: 10.1039/D0CP00502A
   
   for sTDA-xTB:
   * S. Grimme and C. Bannwarth, J. Chem. Phys., 2016, 145, 054103.
     DOI: 10.1063/1.4959605
   
   in the mass-spec context:
   * V. Asgeirsson, C. Bauer and S. Grimme, Chem. Sci., 2017, 8, 4879.
     DOI: 10.1039/c7sc00601b
   * J. Koopman and S. Grimme, ACS Omega 2019, 4, 12, 15120-15133.
     DOI: 10.1021/acsomega.9b02011
   
   for metadynamics refer to:
   * S. Grimme, J. Chem. Theory Comput., 2019, 155, 2847-2862
     DOI: 10.1021/acs.jctc.9b00143
   
   for SPH calculations refer to:
   * S. Spicher and S. Grimme, J. Chem. Theory Comput., 2021, 17, 1701-1714
     DOI: 10.1021/acs.jctc.0c01306
   
   for ONIOM refer to:
   * C. Plett, A. Katbashev, S. Ehlert, S. Grimme, M. Bursch,
     Phys. Chem. Chem. Phys., 2023, 25, 17860-17868. DOI: 10.1039/D3CP02178E
   
   for DIPRO refer to:
   * J. Kohn, N. Gildemeister, S. Grimme, D. Fazzi, A. Hansen,
     J. Chem. Phys., 2023, just accepted.
   
   for PTB refer to:
   * S. Grimme, M. Mueller, A. Hansen, J. Chem. Phys., 2023, 158, 124111.
     DOI: 10.1063/5.0137838
   
   with help from (in alphabetical order)
   P. Atkinson, C. Bannwarth, F. Bohle, G. Brandenburg, E. Caldeweyher
   M. Checinski, S. Dohm, S. Ehlert, S. Ehrlich, I. Gerasimov, C. Hölzer
   A. Katbashev, J. Kohn, J. Koopman, C. Lavigne, S. Lehtola, F. März, M. Müller,
   F. Musil, H. Neugebauer, J. Pisarek, C. Plett, P. Pracht, F. Pultar,
   J. Seibert, P. Shushkov, S. Spicher, M. Stahn, M. Steiner, T. Strunk,
   J. Stückrath, T. Rose, and J. Unsleber
   
 * started run on 2025/04/03 at 21:08:16.123     
   ID    Z sym.   atoms
    1    6 C      1-9
    2    7 N      10
    3    1 H      11-17

           -------------------------------------------------
          |                Calculation Setup                |
           -------------------------------------------------

          program call               : /srv/scratch/z5358697/.xtb/bin/xtb solv.coord --gfn2 --sp --chrg 0 --norestart --parallel 1 --alpb water reference -I xtb_sp-xcontrol-inp
          hostname                   : k146
          coordinate file            : solv.coord
          omp threads                :                     1


           -------------------------------------------------
          |                 G F N 2 - x T B                 |
           -------------------------------------------------

        Reference                      10.1021/acs.jctc.8b01176
      * Hamiltonian:
        H0-scaling (s, p, d)           1.850000    2.230000    2.230000
        zeta-weighting                 0.500000
      * Dispersion:
        s8                             2.700000
        a1                             0.520000
        a2                             5.000000
        s9                             5.000000
      * Repulsion:
        kExp                           1.500000    1.000000
        rExp                           1.000000
      * Coulomb:
        alpha                          2.000000
        third order                    shell-resolved
        anisotropic                    true
        a3                             3.000000
        a5                             4.000000
        cn-shift                       1.200000
        cn-exp                         4.000000
        max-rad                        5.000000

      * Solvation model:               ALPB
        Solvent                        water
        Parameter file                 internal GFN2-xTB/ALPB
        Dielectric constant                8.0200E+01
        Reference state                gsolv=reference [X=1]
        Free energy shift                  2.8945E-03 Eh       1.8164E+00 kcal/mol
        Temperature                        2.9815E+02 K
        Density                            1.0000E+00 kg/L
        Solvent mass                       1.8000E+01 g/mol
        Interaction kernel             P16
        Born radius scaling (c1)           1.4744E+00
        Born radii integrator          GBOBC
        Born offset                        0.0000E+00 a0       0.0000E+00 AA
        H-bond correction              true
        Ion screening                  false
        Surface tension                    1.0000E-05 Eh       1.5569E+01 dyn/cm
        Grid points                               974 per atom

          ...................................................
          :                      SETUP                      :
          :.................................................:
          :  # basis functions                  47          :
          :  # atomic orbitals                  47          :
          :  # shells                           27          :
          :  # electrons                        48          :
          :  max. iterations                   250          :
          :  Hamiltonian                  GFN2-xTB          :
          :  restarted?                      false          :
          :  GBSA solvation                   true          :
          :  PC potential                    false          :
          :  electronic temp.          300.0000000     K    :
          :  accuracy                    1.0000000          :
          :  -> integral cutoff          0.2500000E+02      :
          :  -> integral neglect         0.1000000E-07      :
          :  -> SCF convergence          0.1000000E-05 Eh   :
          :  -> wf. convergence          0.1000000E-03 e    :
          :  Broyden damping             0.4000000          :
          :  net charge                          0          :
          :  unpaired electrons                  0          :
          ...................................................

 iter      E             dE          RMSdq      gap      omega  full diag
   1    -26.2094189 -0.262094E+02  0.503E+00    3.00       0.0  T
   2    -26.2206686 -0.112498E-01  0.300E+00    2.64       1.0  T
   3    -26.2101341  0.105346E-01  0.112E+00    2.68       1.0  T
   4    -26.2244971 -0.143630E-01  0.166E-01    2.48       1.0  T
   5    -26.2246220 -0.124885E-03  0.904E-02    2.49       1.0  T
   6    -26.2246715 -0.495087E-04  0.245E-02    2.49       1.0  T
   7    -26.2246736 -0.205372E-05  0.137E-02    2.49       1.8  T
   8    -26.2246739 -0.375623E-06  0.352E-03    2.49       6.9  T
   9    -26.2246740 -0.763623E-07  0.193E-03    2.49      12.6  T
  10    -26.2246740 -0.980718E-08  0.104E-03    2.49      23.2  T
  11    -26.2246740 -0.438216E-08  0.336E-04    2.49      72.2  T
  12    -26.2246740 -0.583782E-09  0.135E-04    2.49     179.6  T

   *** convergence criteria satisfied after 12 iterations ***

         #    Occupation            Energy/Eh            Energy/eV
      -------------------------------------------------------------
         1        2.0000           -0.6626583             -18.0318
       ...           ...                  ...                  ...
        18        2.0000           -0.4669418             -12.7061
        19        2.0000           -0.4460578             -12.1378
        20        2.0000           -0.4354537             -11.8493
        21        2.0000           -0.4261287             -11.5956
        22        2.0000           -0.4090565             -11.1310
        23        2.0000           -0.3945167             -10.7353
        24        2.0000           -0.3678129             -10.0087 (HOMO)
        25                         -0.2762108              -7.5161 (LUMO)
        26                         -0.2378180              -6.4714
        27                         -0.2031834              -5.5289
        28                         -0.1559857              -4.2446
        29                         -0.0678176              -1.8454
       ...                                ...                  ...
        47                          0.6888260              18.7439
      -------------------------------------------------------------
                  HL-Gap            0.0916021 Eh            2.4926 eV
             Fermi-level           -0.3220119 Eh           -8.7624 eV

 SCC (total)                   0 d,  0 h,  0 min,  0.012 sec
 SCC setup                      ...        0 min,  0.001 sec (  7.071%)
 Dispersion                     ...        0 min,  0.000 sec (  0.780%)
 classical contributions        ...        0 min,  0.000 sec (  0.158%)
 integral evaluation            ...        0 min,  0.001 sec ( 12.318%)
 iterations                     ...        0 min,  0.006 sec ( 46.128%)
 molecular gradient             ...        0 min,  0.004 sec ( 32.514%)
 printout                       ...        0 min,  0.000 sec (  0.938%)

         :::::::::::::::::::::::::::::::::::::::::::::::::::::
         ::                     SUMMARY                     ::
         :::::::::::::::::::::::::::::::::::::::::::::::::::::
         :: total energy             -25.748450036562 Eh    ::
         :: total w/o Gsasa/hb       -25.747065757112 Eh    ::
         :: gradient norm              0.000104077601 Eh/a0 ::
         :: HOMO-LUMO gap              2.492620936590 eV    ::
         ::.................................................::
         :: SCC energy               -26.224646461400 Eh    ::
         :: -> isotropic ES            0.010909384163 Eh    ::
         :: -> anisotropic ES          0.002803213993 Eh    ::
         :: -> anisotropic XC          0.021403926533 Eh    ::
         :: -> dispersion             -0.015644554060 Eh    ::
         :: -> Gsolv                  -0.003292495937 Eh    ::
         ::    -> Gelec               -0.001908216486 Eh    ::
         ::    -> Gsasa               -0.003588677717 Eh    ::
         ::    -> Ghb                 -0.000690150894 Eh    ::
         ::    -> Gshift               0.002894549160 Eh    ::
         :: repulsion energy           0.476196424838 Eh    ::
         :: add. restraining           0.000000000000 Eh    ::
         :: total charge              -0.000000000000 e     ::
         :::::::::::::::::::::::::::::::::::::::::::::::::::::

           -------------------------------------------------
          |                Property Printout                |
           -------------------------------------------------

    * Orbital Energies and Occupations

         #    Occupation            Energy/Eh            Energy/eV
      -------------------------------------------------------------
         1        2.0000           -0.6626583             -18.0318
       ...           ...                  ...                  ...
        12        2.0000           -0.5118359             -13.9278
        13        2.0000           -0.4999721             -13.6049
        14        2.0000           -0.4887678             -13.3000
        15        2.0000           -0.4809492             -13.0873
        16        2.0000           -0.4698014             -12.7839
        17        2.0000           -0.4690993             -12.7648
        18        2.0000           -0.4669418             -12.7061
        19        2.0000           -0.4460578             -12.1378
        20        2.0000           -0.4354537             -11.8493
        21        2.0000           -0.4261287             -11.5956
        22        2.0000           -0.4090565             -11.1310
        23        2.0000           -0.3945167             -10.7353
        24        2.0000           -0.3678129             -10.0087 (HOMO)
        25                         -0.2762108              -7.5161 (LUMO)
        26                         -0.2378180              -6.4714
        27                         -0.2031834              -5.5289
        28                         -0.1559857              -4.2446
        29                         -0.0678176              -1.8454
        30                          0.1070524               2.9130
        31                          0.1219374               3.3181
        32                          0.1347314               3.6662
        33                          0.1484691               4.0400
        34                          0.1610983               4.3837
        35                          0.1794469               4.8830
       ...                                ...                  ...
        47                          0.6888260              18.7439
      -------------------------------------------------------------
                  HL-Gap            0.0916021 Eh            2.4926 eV
             Fermi-level           -0.3220119 Eh           -8.7624 eV

     #   Z          covCN         q      C6AA      α(0)
     1   6 C        2.916    -0.034    28.840     8.806
     2   6 C        2.916    -0.032    28.786     8.798
     3   6 C        2.919    -0.045    29.127     8.850
     4   6 C        2.972     0.087    26.051     8.372
     5   6 C        2.985     0.000    28.014     8.682
     6   6 C        2.916    -0.040    28.990     8.829
     7   6 C        2.924    -0.022    28.543     8.761
     8   6 C        2.910    -0.048    29.196     8.860
     9   6 C        2.902     0.061    26.633     8.462
    10   7 N        1.839    -0.263    27.688     7.798
    11   1 H        0.926     0.049     2.334     2.389
    12   1 H        0.926     0.050     2.319     2.382
    13   1 H        0.926     0.057     2.231     2.336
    14   1 H        0.926     0.045     2.382     2.413
    15   1 H        0.926     0.047     2.360     2.402
    16   1 H        0.926     0.046     2.370     2.407
    17   1 H        0.925     0.041     2.441     2.443

 Mol. C6AA /au·bohr⁶  :       4067.516177
 Mol. C8AA /au·bohr⁸  :     101790.363797
 Mol. α(0) /au        :        102.992593


Wiberg/Mayer (AO) data.
largest (>0.10) Wiberg bond orders for each atom

 ---------------------------------------------------------------------------
     #   Z sym  total        # sym  WBO       # sym  WBO       # sym  WBO
 ---------------------------------------------------------------------------
     1   6 C    3.991 --     6 C    1.558     2 C    1.320    11 H    0.970
     2   6 C    3.991 --     3 C    1.559     1 C    1.320    12 H    0.969
     3   6 C    3.990 --     2 C    1.559     4 C    1.271    13 H    0.967
                             6 C    0.119
     4   6 C    3.981 --    10 N    1.280     3 C    1.271     5 C    1.238
     5   6 C    3.991 --     7 C    1.285     6 C    1.278     4 C    1.238
     6   6 C    3.991 --     1 C    1.558     5 C    1.278    14 H    0.967
                             3 C    0.119
     7   6 C    3.989 --     8 C    1.555     5 C    1.285    15 H    0.966
                            10 N    0.107
     8   6 C    3.991 --     7 C    1.555     9 C    1.307    16 H    0.969
     9   6 C    3.980 --    10 N    1.551     8 C    1.307    17 H    0.963
    10   7 N    3.055 --     9 C    1.551     4 C    1.280     7 C    0.107
    11   1 H    0.997 --     1 C    0.970
    12   1 H    0.997 --     2 C    0.969
    13   1 H    0.996 --     3 C    0.967
    14   1 H    0.998 --     6 C    0.967
    15   1 H    0.997 --     7 C    0.966
    16   1 H    0.997 --     8 C    0.969
    17   1 H    0.998 --     9 C    0.963
 ---------------------------------------------------------------------------

Topologies differ in total number of bonds
Writing topology from bond orders to xtbtopo.mol

molecular dipole:
                 x           y           z       tot (Debye)
 q only:        0.301       0.541      -0.000
   full:        0.221       0.903      -0.000       2.364
molecular quadrupole (traceless):
                xx          xy          yy          xz          yz          zz
 q only:        4.113      -2.119      -0.698      -0.000       0.000      -3.416
  q+dip:        7.601      -3.215       0.322      -0.000       0.001      -7.923
   full:        5.643      -3.236      -2.061      -0.000       0.001      -3.582


           -------------------------------------------------
          | TOTAL ENERGY              -25.748450036562 Eh   |
          | GRADIENT NORM               0.000104077601 Eh/α |
          | HOMO-LUMO GAP               2.492620936590 eV   |
           -------------------------------------------------

------------------------------------------------------------------------
 * finished run on 2025/04/03 at 21:08:16.174     
------------------------------------------------------------------------
 total:
 * wall-time:     0 d,  0 h,  0 min,  0.050 sec
 *  cpu-time:     0 d,  0 h,  0 min,  0.020 sec
 * ratio c/w:     0.389 speedup
 SCF:
 * wall-time:     0 d,  0 h,  0 min,  0.012 sec
 *  cpu-time:     0 d,  0 h,  0 min,  0.012 sec
 * ratio c/w:     0.991 speedup

