      -----------------------------------------------------------      
     |                   =====================                   |     
     |                           x T B                           |     
     |                   =====================                   |     
     |                         S. Grimme                         |     
     |          Mulliken Center for Theoretical Chemistry        |     
     |                    University of Bonn                     |     
      -----------------------------------------------------------      

   * xtb version 6.7.1 (edcfbbe) compiled by 'albert@albert-system' on 2024-07-22

   xtb is free software: you can redistribute it and/or modify it under
   the terms of the GNU Lesser General Public License as published by
   the Free Software Foundation, either version 3 of the License, or
   (at your option) any later version.
   
   xtb is distributed in the hope that it will be useful,
   but WITHOUT ANY WARRANTY; without even the implied warranty of
   MERCHANTABILITY or FITNESS FOR A PARTICULAR PURPOSE.  See the
   GNU Lesser General Public License for more details.
   
   Cite this work as:
   * C. Bannwarth, E. Caldeweyher, S. Ehlert, A. Hansen, P. Pracht,
     J. Seibert, S. Spicher, S. Grimme, WIREs Comput. Mol. Sci., 2020, 11,
     e01493. DOI: 10.1002/wcms.1493
   
   for GFN2-xTB:
   * C. Bannwarth, S. Ehlert and S. Grimme., J. Chem. Theory Comput., 2019,
     15, 1652-1671. DOI: 10.1021/acs.jctc.8b01176
   for GFN1-xTB:
   * S. Grimme, C. Bannwarth, P. Shushkov, J. Chem. Theory Comput., 2017,
     13, 1989-2009. DOI: 10.1021/acs.jctc.7b00118
   for GFN0-xTB:
   * P. Pracht, E. Caldeweyher, S. Ehlert, S. Grimme, ChemRxiv, 2019, preprint.
     DOI: 10.26434/chemrxiv.8326202.v1
   for GFN-FF:
   * S. Spicher and S. Grimme, Angew. Chem. Int. Ed., 2020, 59, 15665-15673.
     DOI: 10.1002/anie.202004239
   
   for ALPB and GBSA implicit solvation:
   * S. Ehlert, M. Stahn, S. Spicher, S. Grimme, J. Chem. Theory Comput.,
     2021, 17, 4250-4261. DOI: 10.1021/acs.jctc.1c00471
   
   for ddCOSMO and CPCM-X implicit solvation:
   * M. Stahn, S. Ehlert, S. Grimme, J. Phys. Chem. A,
     2023, XX, XXXX-XXXX. DOI: 10.1021/acs.jpca.3c04382
   
   for DFT-D4:
   * E. Caldeweyher, C. Bannwarth and S. Grimme, J. Chem. Phys., 2017,
     147, 034112. DOI: 10.1063/1.4993215
   * E. Caldeweyher, S. Ehlert, A. Hansen, H. Neugebauer, S. Spicher,
     C. Bannwarth and S. Grimme, J. Chem. Phys., 2019, 150, 154122.
     DOI: 10.1063/1.5090222
   * E. Caldeweyher, J.-M. Mewes, S. Ehlert and S. Grimme, Phys. Chem. Chem. Phys.
     2020, 22, 8499-8512. DOI: 10.1039/D0CP00502A
   
   for sTDA-xTB:
   * S. Grimme and C. Bannwarth, J. Chem. Phys., 2016, 145, 054103.
     DOI: 10.1063/1.4959605
   
   in the mass-spec context:
   * V. Asgeirsson, C. Bauer and S. Grimme, Chem. Sci., 2017, 8, 4879.
     DOI: 10.1039/c7sc00601b
   * J. Koopman and S. Grimme, ACS Omega 2019, 4, 12, 15120-15133.
     DOI: 10.1021/acsomega.9b02011
   
   for metadynamics refer to:
   * S. Grimme, J. Chem. Theory Comput., 2019, 155, 2847-2862
     DOI: 10.1021/acs.jctc.9b00143
   
   for SPH calculations refer to:
   * S. Spicher and S. Grimme, J. Chem. Theory Comput., 2021, 17, 1701-1714
     DOI: 10.1021/acs.jctc.0c01306
   
   for ONIOM refer to:
   * C. Plett, A. Katbashev, S. Ehlert, S. Grimme, M. Bursch,
     Phys. Chem. Chem. Phys., 2023, 25, 17860-17868. DOI: 10.1039/D3CP02178E
   
   for DIPRO refer to:
   * J. Kohn, N. Gildemeister, S. Grimme, D. Fazzi, A. Hansen,
     J. Chem. Phys., 2023, just accepted.
   
   for PTB refer to:
   * S. Grimme, M. Mueller, A. Hansen, J. Chem. Phys., 2023, 158, 124111.
     DOI: 10.1063/5.0137838
   
   with help from (in alphabetical order)
   P. Atkinson, C. Bannwarth, F. Bohle, G. Brandenburg, E. Caldeweyher
   M. Checinski, S. Dohm, S. Ehlert, S. Ehrlich, I. Gerasimov, C. Hölzer
   A. Katbashev, J. Kohn, J. Koopman, C. Lavigne, S. Lehtola, F. März, M. Müller,
   F. Musil, H. Neugebauer, J. Pisarek, C. Plett, P. Pracht, F. Pultar,
   J. Seibert, P. Shushkov, S. Spicher, M. Stahn, M. Steiner, T. Strunk,
   J. Stückrath, T. Rose, and J. Unsleber
   
 * started run on 2025/04/03 at 21:11:13.695     
   ID    Z sym.   atoms
    1    6 C      1-6
    2    1 H      7-18

           -------------------------------------------------
          |                Calculation Setup                |
           -------------------------------------------------

          program call               : /srv/scratch/z5358697/.xtb/bin/xtb xtb_rrho.coord --gfn2 --bhess vtight --chrg 0 --enso --norestart -I rrho-xcontrol-inp --parallel 1 --alpb water
          hostname                   : k161
          coordinate file            : xtb_rrho.coord
          omp threads                :                     1


           -------------------------------------------------
          |                 G F N 2 - x T B                 |
           -------------------------------------------------

        Reference                      10.1021/acs.jctc.8b01176
      * Hamiltonian:
        H0-scaling (s, p, d)           1.850000    2.230000    2.230000
        zeta-weighting                 0.500000
      * Dispersion:
        s8                             2.700000
        a1                             0.520000
        a2                             5.000000
        s9                             5.000000
      * Repulsion:
        kExp                           1.500000    1.000000
        rExp                           1.000000
      * Coulomb:
        alpha                          2.000000
        third order                    shell-resolved
        anisotropic                    true
        a3                             3.000000
        a5                             4.000000
        cn-shift                       1.200000
        cn-exp                         4.000000
        max-rad                        5.000000

      * Solvation model:               ALPB
        Solvent                        water
        Parameter file                 internal GFN2-xTB/ALPB
        Dielectric constant                8.0200E+01
        Reference state                gsolv [1 M gas/solution]
        Free energy shift                  1.0808E-03 Eh       6.7819E-01 kcal/mol
        Temperature                        2.9815E+02 K
        Density                            1.0000E+00 kg/L
        Solvent mass                       1.8000E+01 g/mol
        Interaction kernel             P16
        Born radius scaling (c1)           1.4744E+00
        Born radii integrator          GBOBC
        Born offset                        0.0000E+00 a0       0.0000E+00 AA
        H-bond correction              true
        Ion screening                  false
        Surface tension                    1.0000E-05 Eh       1.5569E+01 dyn/cm
        Grid points                               974 per atom

          ...................................................
          :                      SETUP                      :
          :.................................................:
          :  # basis functions                  36          :
          :  # atomic orbitals                  36          :
          :  # shells                           24          :
          :  # electrons                        36          :
          :  max. iterations                   250          :
          :  Hamiltonian                  GFN2-xTB          :
          :  restarted?                      false          :
          :  GBSA solvation                   true          :
          :  PC potential                    false          :
          :  electronic temp.          300.0000000     K    :
          :  accuracy                    1.0000000          :
          :  -> integral cutoff          0.2500000E+02      :
          :  -> integral neglect         0.1000000E-07      :
          :  -> SCF convergence          0.1000000E-05 Eh   :
          :  -> wf. convergence          0.1000000E-03 e    :
          :  Broyden damping             0.4000000          :
          :  net charge                          0          :
          :  unpaired electrons                  0          :
          ...................................................

 iter      E             dE          RMSdq      gap      omega  full diag
   1    -19.2172594 -0.192173E+02  0.229E+00   13.01       0.0  T
   2    -19.2484120 -0.311526E-01  0.127E+00   12.68       1.0  T
   3    -19.2491082 -0.696203E-03  0.612E-01   12.65       1.0  T
   4    -19.2492140 -0.105867E-03  0.901E-02   12.64       1.0  T
   5    -19.2492366 -0.225914E-04  0.484E-02   12.65       1.0  T
   6    -19.2492372 -0.612693E-06  0.241E-03   12.65       9.8  T
   7    -19.2492373 -0.343928E-07  0.967E-04   12.65      24.4  T
   8    -19.2492373 -0.525858E-09  0.366E-04   12.65      64.4  T

   *** convergence criteria satisfied after 8 iterations ***

         #    Occupation            Energy/Eh            Energy/eV
      -------------------------------------------------------------
         1        2.0000           -0.6309368             -17.1687
       ...           ...                  ...                  ...
        12        2.0000           -0.4588360             -12.4856
        13        2.0000           -0.4385224             -11.9328
        14        2.0000           -0.4354786             -11.8500
        15        2.0000           -0.4265306             -11.6065
        16        2.0000           -0.4230463             -11.5117
        17        2.0000           -0.4196870             -11.4203
        18        2.0000           -0.4114060             -11.1949 (HOMO)
        19                          0.0534756               1.4551 (LUMO)
        20                          0.0606353               1.6500
        21                          0.0818008               2.2259
        22                          0.1096587               2.9840
        23                          0.1141999               3.1075
       ...                                ...                  ...
        36                          0.3377483               9.1906
      -------------------------------------------------------------
                  HL-Gap            0.4648817 Eh           12.6501 eV
             Fermi-level           -0.1789652 Eh           -4.8699 eV

 SCC (total)                   0 d,  0 h,  0 min,  0.020 sec
 SCC setup                      ...        0 min,  0.001 sec (  3.893%)
 Dispersion                     ...        0 min,  0.000 sec (  0.325%)
 classical contributions        ...        0 min,  0.000 sec (  0.076%)
 integral evaluation            ...        0 min,  0.001 sec (  3.630%)
 iterations                     ...        0 min,  0.016 sec ( 80.584%)
 molecular gradient             ...        0 min,  0.002 sec ( 11.002%)
 printout                       ...        0 min,  0.000 sec (  0.450%)

         :::::::::::::::::::::::::::::::::::::::::::::::::::::
         ::                     SUMMARY                     ::
         :::::::::::::::::::::::::::::::::::::::::::::::::::::
         :: total energy             -18.980105422830 Eh    ::
         :: total w/o Gsasa/hb       -18.980041724996 Eh    ::
         :: gradient norm              0.016730055560 Eh/a0 ::
         :: HOMO-LUMO gap             12.650073977301 eV    ::
         ::.................................................::
         :: SCC energy               -19.249205562935 Eh    ::
         :: -> isotropic ES            0.003499341155 Eh    ::
         :: -> anisotropic ES          0.005729129549 Eh    ::
         :: -> anisotropic XC          0.011776471175 Eh    ::
         :: -> dispersion             -0.011163040459 Eh    ::
         :: -> Gsolv                  -0.000222418278 Eh    ::
         ::    -> Gelec               -0.000158720443 Eh    ::
         ::    -> Gsasa               -0.000793450568 Eh    ::
         ::    -> Ghb                 -0.000351006964 Eh    ::
         ::    -> Gshift               0.001080759698 Eh    ::
         :: repulsion energy           0.269100140105 Eh    ::
         :: add. restraining           0.000000000000 Eh    ::
         :: total charge              -0.000000000000 e     ::
         :::::::::::::::::::::::::::::::::::::::::::::::::::::

metadynamics with 1 initial structures loaded
           -------------------------------------------------
          |           Optimal kpush determination           |
           -------------------------------------------------
      ----------------------------------------------------------- 
     |                   =====================                   |
     |                        A N C O P T                        |
     |                   =====================                   |
     |               Approximate Normal Coordinate               |
     |                Rational Function Optimizer                |
      ----------------------------------------------------------- 
target rmsd / Å         0.100000
unbiased initial rmsd   0.038635
 
iter. min.        max.        rmsd       kpush
final kpush:  0.000000
           -------------------------------------------------
          |            Biased Numerical Hessian             |
           -------------------------------------------------
kpush                :   0.00000
alpha                :   1.00000
step length          :   0.00500
SCC accuracy         :   0.30000
Hessian scale factor :   1.00000
frozen atoms in %    :   0.00000    0
RMS gradient         :   0.00003
estimated CPU  time      0.01 min
estimated wall time      0.01 min

writing file <hessian>.

 projected vibrational frequencies (cm⁻¹)
eigval :       -0.00    -0.00    -0.00     0.00     0.00     0.00
eigval :       64.81   171.40   208.54   352.16   370.28   625.70
eigval :      661.29   799.92   836.33   876.18   939.97   954.60
eigval :      964.89   994.92  1053.52  1060.94  1070.21  1133.09
eigval :     1134.35  1182.26  1202.01  1217.96  1227.92  1275.00
eigval :     1301.74  1303.35  1321.97  1322.33  1346.40  1409.98
eigval :     1479.24  1486.19  1488.38  1505.12  1505.23  1515.46
eigval :     2933.66  2967.24  2973.35  2978.99  2992.22  2996.82
eigval :     3002.35  3005.35  3013.04  3022.20  3030.25  3051.92
           -------------------------------------------------
          |                Property Printout                |
           -------------------------------------------------

    * Orbital Energies and Occupations

         #    Occupation            Energy/Eh            Energy/eV
      -------------------------------------------------------------
         1        2.0000           -0.6328595             -17.2210
       ...           ...                  ...                  ...
         6        2.0000           -0.5421814             -14.7535
         7        2.0000           -0.5221658             -14.2089
         8        2.0000           -0.5123919             -13.9429
         9        2.0000           -0.4904159             -13.3449
        10        2.0000           -0.4782969             -13.0151
        11        2.0000           -0.4666602             -12.6985
        12        2.0000           -0.4601021             -12.5200
        13        2.0000           -0.4391102             -11.9488
        14        2.0000           -0.4347822             -11.8310
        15        2.0000           -0.4271347             -11.6229
        16        2.0000           -0.4227253             -11.5029
        17        2.0000           -0.4187017             -11.3935
        18        2.0000           -0.4108107             -11.1787 (HOMO)
        19                          0.0628622               1.7106 (LUMO)
        20                          0.0684643               1.8630
        21                          0.0857119               2.3323
        22                          0.1203114               3.2738
        23                          0.1310901               3.5671
        24                          0.1323440               3.6013
        25                          0.1485140               4.0413
        26                          0.1652175               4.4958
        27                          0.1888976               5.1402
        28                          0.1904663               5.1829
        29                          0.2068617               5.6290
       ...                                ...                  ...
        36                          0.3535661               9.6210
      -------------------------------------------------------------
                  HL-Gap            0.4736729 Eh           12.8893 eV
             Fermi-level           -0.1739743 Eh           -4.7341 eV

     #   Z          covCN         q      C6AA      α(0)
     1   6 C        3.754    -0.112    22.694     6.793
     2   6 C        3.870    -0.015    20.799     6.485
     3   6 C        3.828    -0.065    21.720     6.631
     4   6 C        3.816    -0.061    21.660     6.624
     5   6 C        3.816    -0.061    21.660     6.624
     6   6 C        3.828    -0.065    21.720     6.631
     7   1 H        0.925     0.044     2.397     2.421
     8   1 H        0.925     0.034     2.529     2.487
     9   1 H        0.925     0.034     2.529     2.487
    10   1 H        0.924     0.022     2.706     2.572
    11   1 H        0.924     0.030     2.582     2.513
    12   1 H        0.925     0.032     2.553     2.499
    13   1 H        0.925     0.029     2.599     2.521
    14   1 H        0.925     0.030     2.580     2.512
    15   1 H        0.925     0.029     2.599     2.521
    16   1 H        0.925     0.030     2.580     2.512
    17   1 H        0.924     0.030     2.582     2.513
    18   1 H        0.925     0.032     2.553     2.499

 Mol. C6AA /au·bohr⁶  :       2218.483725
 Mol. C8AA /au·bohr⁸  :      47028.375622
 Mol. α(0) /au        :         69.844907


Wiberg/Mayer (AO) data.
largest (>0.10) Wiberg bond orders for each atom

 ---------------------------------------------------------------------------
     #   Z sym  total        # sym  WBO       # sym  WBO       # sym  WBO
 ---------------------------------------------------------------------------
     1   6 C    3.996 --     2 C    1.011     9 H    0.987     8 H    0.987
                             7 H    0.986
     2   6 C    3.996 --     1 C    1.011     3 C    0.996     6 C    0.996
                            10 H    0.972
     3   6 C    3.997 --     4 C    1.005     2 C    0.996    11 H    0.981
                            12 H    0.979
     4   6 C    3.998 --     3 C    1.005     5 C    1.002    14 H    0.984
                            13 H    0.983
     5   6 C    3.998 --     6 C    1.005     4 C    1.002    16 H    0.984
                            15 H    0.983
     6   6 C    3.997 --     5 C    1.005     2 C    0.996    17 H    0.981
                            18 H    0.979
     7   1 H    0.998 --     1 C    0.986
     8   1 H    0.999 --     1 C    0.987
     9   1 H    0.999 --     1 C    0.987
    10   1 H    1.000 --     2 C    0.972
    11   1 H    0.999 --     3 C    0.981
    12   1 H    0.999 --     3 C    0.979
    13   1 H    0.999 --     4 C    0.983
    14   1 H    0.999 --     4 C    0.984
    15   1 H    0.999 --     5 C    0.983
    16   1 H    0.999 --     5 C    0.984
    17   1 H    0.999 --     6 C    0.981
    18   1 H    0.999 --     6 C    0.979
 ---------------------------------------------------------------------------

Topologies differ in total number of bonds
Writing topology from bond orders to xtbtopo.mol

molecular dipole:
                 x           y           z       tot (Debye)
 q only:       -0.011       0.000      -0.037
   full:       -0.004       0.000      -0.027       0.070
molecular quadrupole (traceless):
                xx          xy          yy          xz          yz          zz
 q only:       -0.072      -0.005       0.072       0.083       0.004      -0.000
  q+dip:       -0.330      -0.009      -0.413       0.664      -0.001       0.743
   full:       -0.194      -0.007      -0.195       0.398       0.001       0.390

           -------------------------------------------------
          |                Geometry Summary                 |
           -------------------------------------------------

      molecular mass/u    :       84.1597044
   center of mass at/Å    :       -0.0000478      -0.0000007       0.0000499
  moments of inertia/u·Å² :        0.1020704E+03   0.1467635E+03   0.1808038E+03
rotational constants/cm⁻¹ :        0.1651569E+00   0.1148626E+00   0.9323716E-01

 * 18 selected distances

     #   Z          #   Z                                           value/Å
     1   6 C        2   6 C                                       1.5257453
     2   6 C        3   6 C                                       1.5309793
     3   6 C        4   6 C                                       1.5340423
     4   6 C        5   6 C                                       1.5405299 (max)
     2   6 C        6   6 C                                       1.5309837
     5   6 C        6   6 C                                       1.5340493
     1   6 C        7   1 H                                       1.0861386 (min)
     1   6 C        8   1 H                                       1.0878432
     1   6 C        9   1 H                                       1.0878439
     2   6 C       10   1 H                                       1.0939576
     3   6 C       11   1 H                                       1.0910852
     3   6 C       12   1 H                                       1.0890154
     4   6 C       13   1 H                                       1.0892141
     4   6 C       14   1 H                                       1.0898706
     5   6 C       15   1 H                                       1.0892148
     5   6 C       16   1 H                                       1.0898702
     6   6 C       17   1 H                                       1.0910855
     6   6 C       18   1 H                                       1.0890141

 * 2 distinct bonds (by element types)

   Z      Z             #   av. dist./Å        max./Å        min./Å
   1 H    6 C          12     1.0895128     1.0939576     1.0861386
   6 C    6 C           6     1.5327217     1.5405299     1.5257453

           -------------------------------------------------
          |               Frequency Printout                |
           -------------------------------------------------
 projected vibrational frequencies (cm⁻¹)
eigval :       -0.00    -0.00    -0.00     0.00     0.00     0.00
eigval :       64.81   171.40   208.54   352.16   370.28   625.70
eigval :      661.29   799.92   836.33   876.18   939.97   954.60
eigval :      964.89   994.92  1053.52  1060.94  1070.21  1133.09
eigval :     1134.35  1182.26  1202.01  1217.96  1227.92  1275.00
eigval :     1301.74  1303.35  1321.97  1322.33  1346.40  1409.98
eigval :     1479.24  1486.19  1488.38  1505.12  1505.23  1515.46
eigval :     2933.66  2967.24  2973.35  2978.99  2992.22  2996.82
eigval :     3002.35  3005.35  3013.04  3022.20  3030.25  3051.92
 reduced masses (amu)
   1:  8.92   2:  9.78   3:  9.32   4: 10.34   5:  9.61   6:  9.54   7:  5.48   8:  7.75
   9:  1.42  10:  7.22  11:  7.04  12:  9.28  13:  7.99  14:  3.97  15:  4.54  16:  8.13
  17:  5.77  18:  6.49  19:  8.16  20:  4.23  21:  6.28  22:  3.85  23:  6.18  24:  7.47
  25:  2.23  26:  6.53  27:  4.49  28:  3.03  29:  4.95  30:  5.48  31:  2.95  32:  4.03
  33:  4.67  34:  4.85  35:  5.31  36:  3.32  37:  1.91  38:  1.89  39:  1.82  40:  1.67
  41:  1.71  42:  1.97  43:  1.76  44:  1.91  45:  1.90  46:  1.93  47:  1.96  48:  1.56
  49:  1.63  50:  1.56  51:  1.52  52:  1.94  53:  1.64  54:  1.55
 IR intensities (km·mol⁻¹)
   1:  0.00   2:  0.00   3:  0.00   4:  0.00   5:  0.00   6:  0.00   7:  0.00   8:  0.05
   9:  0.05  10:  0.22  11:  1.08  12:  0.09  13:  5.19  14:  3.06  15:  0.17  16:  1.18
  17:  0.69  18:  0.01  19:  1.73  20:  1.32  21:  1.59  22:  2.37  23:  2.04  24:  0.15
  25:  1.32  26:  3.13  27:  0.76  28:  0.79  29:  0.93  30:  1.90  31:  0.80  32:  0.04
  33:  6.28  34:  7.35  35: 13.25  36:  2.09  37:  0.00  38:  1.39  39:  0.14  40:  0.34
  41:  0.49  42:  0.06  43: 99.14  44:  0.10  45: 64.15  46:  0.25  47:288.02  48:  0.00
  49: 85.22  50:188.70  51: 40.27  52: 98.49  53: 74.42  54: 49.07
 Raman intensities (Ä⁴*amu⁻¹)
   1:  0.00   2:  0.00   3:  0.00   4:  0.00   5:  0.00   6:  0.00   7:  0.00   8:  0.00
   9:  0.00  10:  0.00  11:  0.00  12:  0.00  13:  0.00  14:  0.00  15:  0.00  16:  0.00
  17:  0.00  18:  0.00  19:  0.00  20:  0.00  21:  0.00  22:  0.00  23:  0.00  24:  0.00
  25:  0.00  26:  0.00  27:  0.00  28:  0.00  29:  0.00  30:  0.00  31:  0.00  32:  0.00
  33:  0.00  34:  0.00  35:  0.00  36:  0.00  37:  0.00  38:  0.00  39:  0.00  40:  0.00
  41:  0.00  42:  0.00  43:  0.00  44:  0.00  45:  0.00  46:  0.00  47:  0.00  48:  0.00
  49:  0.00  50:  0.00  51:  0.00  52:  0.00  53:  0.00  54:  0.00
 output can be read by thermo (or use thermo option).
 writing <g98.out> molden fake output.
 recommended (thermochemical) frequency scaling factor: 1.0
           -------------------------------------------------
          |             Thermodynamic Functions             |
           -------------------------------------------------

Molecule has the following symmetry elements: (sigma) 
It seems to be the Cs point group
cs  symmetry found (for desy threshold:  0.10E+00) used in thermo

          ...................................................
          :                      SETUP                      :
          :.................................................:
          :  # frequencies                          48      :
          :  # imaginary freq.                       0      :
          :  linear?                             false      :
          :  only rotor calc.                    false      :
          :  symmetry                               cs      :
          :  rotational number                       1      :
          :  scaling factor                  1.0000000      :
          :  rotor cutoff                    0.0000000 cm⁻¹ :
          :  imag. cutoff                 -100.0000000 cm⁻¹ :
          :.................................................:

    mode    ω/cm⁻¹     T·S(HO)/kcal·mol⁻¹    T·S(FR)/kcal·mol⁻¹   T·S(vib)
   ------------------------------------------------------------------------
       1     64.81    -1.28352 (100.00%)    -0.97914 (  0.00%)    -1.28352
       2    171.40    -0.72154 (100.00%)    -0.69138 (  0.00%)    -0.72154
       3    208.54    -0.61313 (100.00%)    -0.63332 (  0.00%)    -0.61313
   ------------------------------------------------------------------------

   temp. (K)  partition function   enthalpy   heat capacity  entropy
                                   cal/mol     cal/K/mol   cal/K/mol   J/K/mol
 298.15  VIB   19.5                 2262.749     17.784     13.489
         ROT  0.126E+06              888.752      2.981     26.315
         INT  0.245E+07             3151.502     20.765     39.804
         TR   0.747E+27             1481.254      4.968     39.186
         TOT                        4632.7554    25.7333    78.9900   330.4942

       T/K    H(0)-H(T)+PV         H(T)/Eh          T*S/Eh         G(T)/Eh
   ------------------------------------------------------------------------
    298.15    0.738277E-02    0.174443E+00    0.375307E-01    0.136912E+00
   ------------------------------------------------------------------------

         :::::::::::::::::::::::::::::::::::::::::::::::::::::
         ::                  THERMODYNAMIC                  ::
         :::::::::::::::::::::::::::::::::::::::::::::::::::::
         :: total free energy         -18.844025067502 Eh   ::
         ::.................................................::
         :: total energy              -18.980937471183 Eh   ::
         :: zero point energy           0.167060340518 Eh   ::
         :: G(RRHO) w/o ZPVE           -0.030147936837 Eh   ::
         :: G(RRHO) contrib.            0.136912403681 Eh   ::
         :::::::::::::::::::::::::::::::::::::::::::::::::::::

optimized geometry written to: xtbopt.coord


           -------------------------------------------------
          | TOTAL ENERGY              -18.980937471183 Eh   |
          | TOTAL ENTHALPY            -18.806494364959 Eh   |
          | TOTAL FREE ENERGY         -18.844025067502 Eh   |
          | GRADIENT NORM               0.000032311318 Eh/α |
          | HOMO-LUMO GAP              12.889295713535 eV   |
           -------------------------------------------------

------------------------------------------------------------------------
 * finished run on 2025/04/03 at 21:11:14.287     
------------------------------------------------------------------------
 total:
 * wall-time:     0 d,  0 h,  0 min,  0.591 sec
 *  cpu-time:     0 d,  0 h,  0 min,  0.528 sec
 * ratio c/w:     0.894 speedup
 SCF:
 * wall-time:     0 d,  0 h,  0 min,  0.020 sec
 *  cpu-time:     0 d,  0 h,  0 min,  0.007 sec
 * ratio c/w:     0.358 speedup
 analytical hessian:
 * wall-time:     0 d,  0 h,  0 min,  0.465 sec
 *  cpu-time:     0 d,  0 h,  0 min,  0.456 sec
 * ratio c/w:     0.981 speedup

