
                                 *****************
                                 * O   R   C   A *
                                 *****************

                                            #,                                       
                                            ###                                      
                                            ####                                     
                                            #####                                    
                                            ######                                   
                                           ########,                                 
                                     ,,################,,,,,                         
                               ,,#################################,,                 
                          ,,##########################################,,             
                       ,#########################################, ''#####,          
                    ,#############################################,,   '####,        
                  ,##################################################,,,,####,       
                ,###########''''           ''''###############################       
              ,#####''   ,,,,##########,,,,          '''####'''          '####       
            ,##' ,,,,###########################,,,                        '##       
           ' ,,###''''                  '''############,,,                           
         ,,##''                                '''############,,,,        ,,,,,,###''
      ,#''                                            '''#######################'''  
     '                                                          ''''####''''         
             ,#######,   #######,   ,#######,      ##                                
            ,#'     '#,  ##    ##  ,#'     '#,    #''#        ,####,   ,####,        
            ##       ##  ##   ,#'  ##            #'  '#       #'       #'  '#        
            ##       ##  #######   ##           ,######,      #####,   #    #        
            '#,     ,#'  ##    ##  '#,     ,#' ,#      #,     #,   #   #,  ,#        
             '#######'   ##     ##  '#######'  #'      '#     '####' # '####'        



                #########################################################
                #                        -***-                          #
                #          Department of theory and spectroscopy        #
                #                                                       #
                #                      Frank Neese                      #
                #                                                       #
                #     Directorship, Architecture, Infrastructure        #
                #                    SHARK, DRIVERS                     #
                #        Core code/Algorithms in most modules           #
                #                                                       #
                #        Max Planck Institute fuer Kohlenforschung      #
                #                Kaiser Wilhelm Platz 1                 #
                #                 D-45470 Muelheim/Ruhr                 #
                #                      Germany                          #
                #                                                       #
                #                  All rights reserved                  #
                #                        -***-                          #
                #########################################################


                         Program Version 6.0.0  -   RELEASE  -


 With contributions from (in alphabetic order):
   Daniel Aravena         : Magnetic Suceptibility
   Michael Atanasov       : Ab Initio Ligand Field Theory (pilot matlab implementation)
   Alexander A. Auer      : GIAO ZORA, VPT2 properties, NMR spectrum
   Ute Becker             : All parallelization in ORCA, NUMFREQ, NUMCALC
   Giovanni Bistoni       : ED, misc. LED, open-shell LED, HFLD
   Martin Brehm           : Molecular dynamics
   Dmytro Bykov           : pre 5.0 version of the SCF Hessian
   Marcos Casanova-Páez   : Triplet and SCS-CIS(D). UHF-(DLPNO)-IP/EA/STEOM-CCSD. UHF-CVS-IP/STEOM-CCSD
   Vijay G. Chilkuri      : MRCI spin determinant printing, contributions to CSF-ICE
   Pauline Colinet        : FMM embedding
   Dipayan Datta          : RHF DLPNO-CCSD density
   Achintya Kumar Dutta   : EOM-CC, STEOM-CC
   Nicolas Foglia         : Exact transition moments, OPA infrastructure, MCD improvements
   Dmitry Ganyushin       : Spin-Orbit,Spin-Spin,Magnetic field MRCI
   Miquel Garcia          : C-PCM and meta-GGA Hessian, CCSD/C-PCM, Gaussian charge scheme
   Tiago L. C. Gouveia    : GS-ROHF, GS-ROCIS
   Yang Guo               : DLPNO-NEVPT2, F12-NEVPT2, CIM, IAO-localization
   Andreas Hansen         : Spin unrestricted coupled pair/coupled cluster methods
   Ingolf Harden          : AUTO-CI MPn and infrastructure 
   Benjamin Helmich-Paris : MC-RPA, TRAH-(SCF,CASSCF), AVAS, COSX integrals, SCF dyn. polar.
   Lee Huntington         : MR-EOM, pCC
   Robert Izsak           : Overlap fitted RIJCOSX, COSX-SCS-MP3, EOM
   Riya Kayal             : Wick's Theorem for AUTO-CI, AUTO-CI UHF-CCSDT
   Emily Kempfer          : AUTO-CI, RHF CISDT and CCSDT
   Christian Kollmar      : KDIIS, OOCD, Brueckner-CCSD(T), CCSD density, CASPT2, CASPT2-K, improved NEVPT2
   Axel Koslowski         : Symmetry handling
   Simone Kossmann        : Meta GGA functionals, TD-DFT gradient, OOMP2, (MP2 Hessian; deprecated post 5.0)
   Lucas Lang             : DCDCAS
   Marvin Lechner         : AUTO-CI (C++ implementation), FIC-MRCC
   Spencer Leger          : CASSCF response
   Dagmar Lenk            : GEPOL surface, SMD, ORCA-2-JSON
   Dimitrios Liakos       : Extrapolation schemes; Compound Job, initial MDCI parallelization
   Dimitrios Manganas     : Further ROCIS development; embedding schemes. LFT, Crystal Embedding
   Dimitrios Pantazis     : SARC Basis sets
   Anastasios Papadopoulos: AUTO-CI, single reference methods and gradients
   Taras Petrenko         : pre 6.0 DFT Hessian and TD-DFT gradient, (ASA, deprecated), ECA, 1-Electron XAS/XES, NRVS
   Peter Pinski           : DLPNO-MP2, DLPNO-MP2 Gradient
   Christoph Reimann      : Effective Core Potentials
   Marius Retegan         : Local ZFS, SOC
   Christoph Riplinger    : Optimizer, TS searches, QM/MM, DLPNO-CCSD(T), (RO)-DLPNO pert. Triples
   Michael Roemelt        : Original ROCIS implementation
   Masaaki Saitow         : Open-shell DLPNO-CCSD energy and density
   Barbara Sandhoefer     : DKH picture change effects
   Kantharuban Sivalingam : CASSCF convergence/infrastructure, NEVPT2 and variants, FIC-MRCI
   Bernardo de Souza      : ESD, SOC TD-DFT
   Georgi Stoychev        : AutoAux, RI-MP2 NMR, DLPNO-MP2 response, X2C
   Van Anh Tran           : RI-MP2 g-tensors
   Willem Van den Heuvel  : Paramagnetic NMR
   Zikuan Wang            : NOTCH, Electric field optimization 
   Frank Wennmohs         : Technical directorship and infrastructure
   Hang Xu                : AUTO-CI-Response properties 


 We gratefully acknowledge several colleagues who have allowed us to
 interface, adapt or use parts of their codes:
   Stefan Grimme, W. Hujo, H. Kruse, P. Pracht,  : VdW corrections, initial TS optimization,
                  C. Bannwarth, S. Ehlert,         DFT functionals, gCP, sTDA/sTD-DF
                  L. Wittmann, M. Mueller
   Ed Valeev, F. Pavosevic, A. Kumar             : LibInt (2-el integral package), F12 methods
   Garnet Chan, S. Sharma, J. Yang, R. Olivares  : DMRG
   Ulf Ekstrom                                   : XCFun DFT Library
   Mihaly Kallay                                 : mrcc  (arbitrary order and MRCC methods)
   Frank Weinhold                                : gennbo (NPA and NBO analysis)
   Simon Mueller                                 : openCOSMO-RS
   Christopher J. Cramer and Donald G. Truhlar   : smd solvation model
   Lars Goerigk                                  : TD-DFT with DH, B97 family of functionals
   V. Asgeirsson, H. Jonsson                     : NEB implementation
   FAccTs GmbH                                   : IRC, NEB, NEB-TS, DLPNO-Multilevel, CI-OPT
                                                   MM, QMMM, 2- and 3-layer-ONIOM, Crystal-QMMM,
                                                   LR-CPCM, SF, NACMEs, symmetry and pop. for TD-DFT,
                                                   nearIR, NL-DFT gradient (VV10), updates on ESD,
                                                   ML-optimized integration grids, MBIS, APM,
                                                   GOAT, DOCKER, SOLVATOR, interface openCOSMO-RS
   S Lehtola, MJT Oliveira, MAL Marques          : LibXC Library
   Liviu Ungur et al                             : ANISO software


 Your calculation uses the libint2 library for the computation of 2-el integrals
 For citations please refer to: http://libint.valeyev.net

 Your ORCA version has been built with support for libXC version: 6.2.2
 For citations please refer to: https://libxc.gitlab.io

 This ORCA versions uses:
   CBLAS   interface :  Fast vector & matrix operations
   LAPACKE interface :  Fast linear algebra routines
   SCALAPACK package :  Parallel linear algebra routines
   Shared memory     :  Shared parallel matrices
   BLAS/LAPACK       :  OpenBLAS 0.3.27  USE64BITINT DYNAMIC_ARCH NO_AFFINITY SkylakeX SINGLE_THREADED
        Core in use  :  SkylakeX
   Copyright (c) 2011-2014, The OpenBLAS Project


Your calculation utilizes the geometrical counterpoise correction gCP
Please cite in your paper:
H.Kruse, S. Grimme J.Chem.Phys., 136, (2012), 154101 
   

Your calculation utilizes the atom-pairwise dispersion correction
based on EEQ partial charges (D4)


================================================================================

----- Orbital basis set information -----
Your calculation utilizes the basis: def2-SV(P)
   F. Weigend and R. Ahlrichs, Phys. Chem. Chem. Phys. 7, 3297 (2005).

----- AuxJ basis set information -----
Your calculation utilizes the auxiliary basis: def2/J
   F. Weigend, Phys. Chem. Chem. Phys. 8, 1057 (2006).

================================================================================
                                        WARNINGS
                       Please study these warnings very carefully!
================================================================================


================================================================================
                                       INPUT FILE
================================================================================
NAME = sp.inp
|  1> ! pbe def2-sv(p) def2/J RI DEFGRID1 loosescf d4 GCP(DFT/SV(P)) printgap
|  2> %output
|  3>     printlevel normal
|  4> end
|  5> * xyz 0 1
|  6> C -2.2136342742 -1.2095513548 0.0693299926
|  7> C -0.8596779263 -0.5746369116 0.4070350213
|  8> H -0.8295709651 -0.3401961224 1.480919653
|  9> C -0.622277935 0.7234271137 -0.3790161528
| 10> H -0.7194540103 0.5037752916 -1.4563981081
| 11> C 0.7980188938 1.283084532 -0.1282372874
| 12> H 0.6878638686 2.1314780769 0.5562079724
| 13> C 1.723845298 0.2231182834 0.506294335
| 14> H 2.7584240671 0.4835719957 0.2404285212
| 15> C 1.421454549 -1.1393407532 -0.1263814078
| 16> H 2.0676604431 -1.9065523137 0.3275422533
| 17> O 0.109373284 -1.5750039343 0.1119163565
| 18> O 1.6712764159 -1.0223277538 -1.4958600295
| 19> O 1.5752840643 0.0951088435 1.8950325941
| 20> O 1.3779979495 1.8116391987 -1.2916416065
| 21> O -1.5391426148 1.7232978817 -0.0092035869
| 22> O -3.2498895872 -0.3815811182 0.5448844725
| 23> H -2.2374550449 -2.1960702557 0.5447609157
| 24> H -2.2834378406 -1.3386417646 -1.018486037
| 25> H 1.538693606 -1.8799884375 -1.9286268501
| 26> H 1.8833632942 0.903689897 2.3302927687
| 27> H 1.5678567056 1.0797068342 -1.9014843708
| 28> H -2.40939513 1.3125244877 0.1422177162
| 29> H -4.1020304148 -0.8202857088 0.4104443907
| 30> *
| 31> 
| 32>                          ****END OF INPUT****
================================================================================

                       ****************************
                       * Single Point Calculation *
                       ****************************

---------------------------------
CARTESIAN COORDINATES (ANGSTROEM)
---------------------------------
  C     -2.213634   -1.209551    0.069330
  C     -0.859678   -0.574637    0.407035
  H     -0.829571   -0.340196    1.480920
  C     -0.622278    0.723427   -0.379016
  H     -0.719454    0.503775   -1.456398
  C      0.798019    1.283085   -0.128237
  H      0.687864    2.131478    0.556208
  C      1.723845    0.223118    0.506294
  H      2.758424    0.483572    0.240429
  C      1.421455   -1.139341   -0.126381
  H      2.067660   -1.906552    0.327542
  O      0.109373   -1.575004    0.111916
  O      1.671276   -1.022328   -1.495860
  O      1.575284    0.095109    1.895033
  O      1.377998    1.811639   -1.291642
  O     -1.539143    1.723298   -0.009204
  O     -3.249890   -0.381581    0.544884
  H     -2.237455   -2.196070    0.544761
  H     -2.283438   -1.338642   -1.018486
  H      1.538694   -1.879988   -1.928627
  H      1.883363    0.903690    2.330293
  H      1.567857    1.079707   -1.901484
  H     -2.409395    1.312524    0.142218
  H     -4.102030   -0.820286    0.410444

----------------------------
CARTESIAN COORDINATES (A.U.)
----------------------------
  NO LB      ZA    FRAG     MASS         X           Y           Z
   0 C     6.0000    0    12.011   -4.183163   -2.285721    0.131015
   1 C     6.0000    0    12.011   -1.624556   -1.085906    0.769185
   2 H     1.0000    0     1.008   -1.567662   -0.642878    2.798533
   3 C     6.0000    0    12.011   -1.175935    1.367079   -0.716237
   4 H     1.0000    0     1.008   -1.359571    0.951997   -2.752194
   5 C     6.0000    0    12.011    1.508037    2.424678   -0.242333
   6 H     1.0000    0     1.008    1.299874    4.027910    1.051081
   7 C     6.0000    0    12.011    3.257596    0.421632    0.956758
   8 H     1.0000    0     1.008    5.212666    0.913819    0.454344
   9 C     6.0000    0    12.011    2.686160   -2.153042   -0.238826
  10 H     1.0000    0     1.008    3.907312   -3.602862    0.618965
  11 O     8.0000    0    15.999    0.206686   -2.976326    0.211491
  12 O     8.0000    0    15.999    3.158255   -1.931919   -2.826766
  13 O     8.0000    0    15.999    2.976855    0.179730    3.581093
  14 O     8.0000    0    15.999    2.604039    3.423502   -2.440849
  15 O     8.0000    0    15.999   -2.908558    3.256561   -0.017392
  16 O     8.0000    0    15.999   -6.141401   -0.721084    1.029682
  17 H     1.0000    0     1.008   -4.228177   -4.149971    1.029449
  18 H     1.0000    0     1.008   -4.315072   -2.529666   -1.924660
  19 H     1.0000    0     1.008    2.907710   -3.552663   -3.644577
  20 H     1.0000    0     1.008    3.559041    1.707726    4.403615
  21 H     1.0000    0     1.008    2.962820    2.040350   -3.593285
  22 H     1.0000    0     1.008   -4.553097    2.480312    0.268753
  23 H     1.0000    0     1.008   -7.751714   -1.550115    0.775627

--------------------------------
INTERNAL COORDINATES (ANGSTROEM)
--------------------------------
 C      0   0   0     0.000000000000     0.00000000     0.00000000
 C      1   0   0     1.533088004197     0.00000000     0.00000000
 H      2   1   0     1.099589521119   109.12360728     0.00000000
 C      2   1   3     1.535970513373   111.94805010   240.02545748
 H      4   2   1     1.103830598493   108.52534025   304.16709296
 C      4   2   1     1.547045425024   111.38701249   185.25190533
 H      6   4   2     1.095614462422   106.80361708   256.12559202
 C      6   4   2     1.543798354291   111.64273272    15.89614242
 H      8   6   4     1.099488061177   107.59394270   154.37662713
 C      8   6   4     1.532322872968   108.81012078    38.49020495
 H     10   8   6     1.101018767434   109.48307443   180.69616435
 O     10   8   6     1.402906083029   112.98878252   297.60378186
 O     10   8   6     1.396987724536   107.15694834    60.28698261
 O      8   6   4     1.402515885525   113.96163211   278.09049828
 O      6   4   2     1.403301589268   112.41432743   140.83711667
 O      4   2   1     1.406109429477   111.44277669    65.34911570
 O      1   2   3     1.409081917338   109.37770591    52.43020507
 H      1   2   3     1.095363653582   107.25260803   291.34612079
 H      1   2   3     1.097670527089   108.85454638   173.74764690
 H     13  10   8     0.969766554825   109.81256439   176.88068327
 H     14   8   6     0.968590497356   109.57712745   292.81128853
 H     15   6   4     0.971431691185   108.50833868   291.12517290
 H     16   4   2     0.974167661372   108.87715869   321.81376791
 H     17   1   2     0.967822216872   109.52859451   185.48900402

---------------------------
INTERNAL COORDINATES (A.U.)
---------------------------
 C      0   0   0     0.000000000000     0.00000000     0.00000000
 C      1   0   0     2.897116467132     0.00000000     0.00000000
 H      2   1   0     2.077923054645   109.12360728     0.00000000
 C      2   1   3     2.902563620053   111.94805010   240.02545748
 H      4   2   1     2.085937529393   108.52534025   304.16709296
 C      4   2   1     2.923492170032   111.38701249   185.25190533
 H      6   4   2     2.070411282340   106.80361708   256.12559202
 C      6   4   2     2.917356095608   111.64273272    15.89614242
 H      8   6   4     2.077731323141   107.59394270   154.37662713
 C      8   6   4     2.895670578653   108.81012078    38.49020495
 H     10   8   6     2.080623938757   109.48307443   180.69616435
 O     10   8   6     2.651108288538   112.98878252   297.60378186
 O     10   8   6     2.639924211822   107.15694834    60.28698261
 O      8   6   4     2.650370922116   113.96163211   278.09049828
 O      6   4   2     2.651855687013   112.41432743   140.83711667
 O      4   2   1     2.657161736035   111.44277669    65.34911570
 O      1   2   3     2.662778924030   109.37770591    52.43020507
 H      1   2   3     2.069937322322   107.25260803   291.34612079
 H      1   2   3     2.074296681475   108.85454638   173.74764690
 H     13  10   8     1.832593202456   109.81256439   176.88068327
 H     14   8   6     1.830370775921   109.57712745   292.81128853
 H     15   6   4     1.835739854153   108.50833868   291.12517290
 H     16   4   2     1.840910088515   108.87715869   321.81376791
 H     17   1   2     1.828918936212   109.52859451   185.48900402

---------------------
BASIS SET INFORMATION
---------------------
There are 3 groups of distinct atoms

 Group   1 Type C   : 7s4p1d contracted to 3s2p1d pattern {511/31/1}
 Group   2 Type H   : 4s contracted to 2s pattern {31}
 Group   3 Type O   : 7s4p1d contracted to 3s2p1d pattern {511/31/1}

Atom   0C    basis set group =>   1
Atom   1C    basis set group =>   1
Atom   2H    basis set group =>   2
Atom   3C    basis set group =>   1
Atom   4H    basis set group =>   2
Atom   5C    basis set group =>   1
Atom   6H    basis set group =>   2
Atom   7C    basis set group =>   1
Atom   8H    basis set group =>   2
Atom   9C    basis set group =>   1
Atom  10H    basis set group =>   2
Atom  11O    basis set group =>   3
Atom  12O    basis set group =>   3
Atom  13O    basis set group =>   3
Atom  14O    basis set group =>   3
Atom  15O    basis set group =>   3
Atom  16O    basis set group =>   3
Atom  17H    basis set group =>   2
Atom  18H    basis set group =>   2
Atom  19H    basis set group =>   2
Atom  20H    basis set group =>   2
Atom  21H    basis set group =>   2
Atom  22H    basis set group =>   2
Atom  23H    basis set group =>   2
---------------------------------
AUXILIARY/J BASIS SET INFORMATION
---------------------------------
There are 3 groups of distinct atoms

 Group   1 Type C   : 12s5p4d2f1g contracted to 6s4p3d1f1g pattern {711111/2111/211/2/1}
 Group   2 Type H   : 5s2p1d contracted to 3s1p1d pattern {311/2/1}
 Group   3 Type O   : 12s5p4d2f1g contracted to 6s4p3d1f1g pattern {711111/2111/211/2/1}

Atom   0C    basis set group =>   1
Atom   1C    basis set group =>   1
Atom   2H    basis set group =>   2
Atom   3C    basis set group =>   1
Atom   4H    basis set group =>   2
Atom   5C    basis set group =>   1
Atom   6H    basis set group =>   2
Atom   7C    basis set group =>   1
Atom   8H    basis set group =>   2
Atom   9C    basis set group =>   1
Atom  10H    basis set group =>   2
Atom  11O    basis set group =>   3
Atom  12O    basis set group =>   3
Atom  13O    basis set group =>   3
Atom  14O    basis set group =>   3
Atom  15O    basis set group =>   3
Atom  16O    basis set group =>   3
Atom  17H    basis set group =>   2
Atom  18H    basis set group =>   2
Atom  19H    basis set group =>   2
Atom  20H    basis set group =>   2
Atom  21H    basis set group =>   2
Atom  22H    basis set group =>   2
Atom  23H    basis set group =>   2
------------------------------------------------------------------------------
                             ORCA STARTUP CALCULATIONS
                           -- RI-GTO INTEGRALS CHOSEN --
------------------------------------------------------------------------------
------------------------------------------------------------------------------
                   ___                                                        
                  /   \      - P O W E R E D   B Y -                         
                 /     \                                                     
                 |  |  |   _    _      __       _____    __    __             
                 |  |  |  | |  | |    /  \     |  _  \  |  |  /  |          
                  \  \/   | |  | |   /    \    | | | |  |  | /  /          
                 / \  \   | |__| |  /  /\  \   | |_| |  |  |/  /          
                |  |  |   |  __  | /  /__\  \  |    /   |      \           
                |  |  |   | |  | | |   __   |  |    \   |  |\   \          
                \     /   | |  | | |  |  |  |  | |\  \  |  | \   \       
                 \___/    |_|  |_| |__|  |__|  |_| \__\ |__|  \__/        
                                                                              
                      - O R C A' S   B I G   F R I E N D -                    
                                      &                                       
                       - I N T E G R A L  F E E D E R -                       
                                                                              
 v1 FN, 2020, v2 2021, v3 2022-2024                                           
------------------------------------------------------------------------------


----------------------
SHARK INTEGRAL PACKAGE
----------------------

Number of atoms                             ...     24
Number of basis functions                   ...    192
Number of shells                            ...     96
Maximum angular momentum                    ...      2
Integral batch strategy                     ... SHARK/LIBINT Hybrid
RI-J (if used) integral strategy            ... SPLIT-RIJ (Revised 2003 algorithm where possible)
Printlevel                                  ...      1
Contraction scheme used                     ... SEGMENTED contraction
Prescreening option                         ... SCHWARTZ
   Thresh                                   ... 1.000e-09
   Tcut                                     ... 1.000e-10
   Tpresel                                  ... 1.000e-10 
Coulomb Range Separation                    ... NOT USED
Exchange Range Separation                   ... NOT USED
Multipole approximations                    ... NOT USED
Finite Nucleus Model                        ... NOT USED
CABS basis                                  ... NOT available
Auxiliary Coulomb fitting basis             ... AVAILABLE
   # of basis functions in Aux-J            ...    720
   # of shells in Aux-J                     ...    240
   Maximum angular momentum in Aux-J        ...      4
Auxiliary J/K fitting basis                 ... NOT available
Auxiliary Correlation fitting basis         ... NOT available
Auxiliary 'external' fitting basis          ... NOT available

Checking pre-screening integrals            ... done (  0.0 sec) Dimension = 96
Check shell pair data                       ... done (  0.0 sec)
Shell pair information
Shell pair cut-off parameter TPreSel        ...   1.0e-10
Total number of shell pairs                 ...      4656
Shell pairs after pre-screening             ...      4223
Total number of primitive shell pairs       ...     18720
Primitive shell pairs kept                  ...     11373
          la=0 lb=0:   1641 shell pairs
          la=1 lb=0:   1340 shell pairs
          la=1 lb=1:    291 shell pairs
          la=2 lb=0:    618 shell pairs
          la=2 lb=1:    267 shell pairs
          la=2 lb=2:     66 shell pairs

Calculating one electron integrals          ... done (  0.0 sec)
Calculating RI/J V-Matrix + Cholesky decomp.... done (  0.1 sec)
Calculating Nuclear repulsion               ... done (  0.0 sec) ENN=    847.414017414010 Eh

Diagonalization of the overlap matrix:
Smallest eigenvalue                        ... 4.777e-04
Time for diagonalization                   ...    0.003 sec
Threshold for overlap eigenvalues          ... 1.000e-07
Number of eigenvalues below threshold      ... 0
Time for construction of square roots      ...    0.015 sec
Total time needed                          ...    0.026 sec

-------------------
DFT GRID GENERATION
-------------------

General Integration Accuracy     IntAcc      ... 4.159
Radial Grid Type                 RadialGrid  ... OptM3 with GC (2021)
Angular Grid (max. ang.)         AngularGrid ... 3 (Lebedev-194)
Angular grid pruning method      GridPruning ... 4 (adaptive)
Weight generation scheme         WeightScheme... mBecke (2022)
Basis function cutoff            BFCut       ... 1.0000e-10
Integration weight cutoff        WCut        ... 1.0000e-14
Partially contracted basis set               ... off
Rotationally invariant grid construction     ... off
Angular grids for H and He will be reduced by one unit

Total number of grid points                  ...    55675
Total number of batches                      ...      882
Average number of points per batch           ...       63
Average number of grid points per atom       ...     2320
Initializing property integral containers    ... done (  0.0 sec)

SHARK setup successfully completed in   0.9 seconds

Maximum memory used throughout the entire STARTUP-calculation: 28.1 MB
-------------------------------------------------------------------------------
                                 ORCA GUESS
                   Start orbitals & Density for SCF / CASSCF
-------------------------------------------------------------------------------

------------
SCF SETTINGS
------------
Hamiltonian:
 Density Functional     Method          .... DFT(GTOs)
 Exchange Functional    Exchange        .... PBE
   PBE kappa parameter   XKappa         ....  0.804000
   PBE mue parameter    XMuePBE         ....  0.219520
 Correlation Functional Correlation     .... PBE
   PBE beta parameter  CBetaPBE         ....  0.066725
 LDA part of GGA corr.  LDAOpt          .... PW91-LDA
 Gradients option       PostSCFGGA      .... off
   NL short-range parameter             ....  6.400000
 RI-approximation to the Coulomb term is turned on
   Number of AuxJ basis functions       .... 720


General Settings:
 Integral files         IntName         .... sp
 Hartree-Fock type      HFTyp           .... RHF
 Total Charge           Charge          ....    0
 Multiplicity           Mult            ....    1
 Number of Electrons    NEL             ....   96
 Basis Dimension        Dim             ....  192
 Nuclear Repulsion      ENuc            ....    847.4140174140 Eh

Convergence Acceleration:
 AO-DIIS                CNVDIIS         .... on
   Start iteration      DIISMaxIt       ....    12
   Startup error        DIISStart       ....  0.200000
   # of expansion vecs  DIISMaxEq       ....     5
   Bias factor          DIISBfac        ....   1.050
   Max. coefficient     DIISMaxC        ....  10.000
 MO-DIIS                CNVKDIIS        .... off
 Trust-Rad. Augm. Hess. CNVTRAH         .... auto
   Auto Start mean grad. ratio tolernc. ....  1.125000
   Auto Start start iteration           ....    50
   Auto Start num. interpolation iter.  ....    10
   Max. Number of Micro iterations      ....    24
   Max. Number of Macro iterations      .... Maxiter - #DIIS iter
   Number of Davidson start vectors     ....     2
   Converg. threshold    (grad. norm)   ....   1.000e-04
   Grad. Scal. Fac. for Micro threshold ....   0.100
   Minimum threshold for Micro iter.    ....   1.000e-02
   NR start threshold (gradient norm)   ....   1.000e-04
   Initial trust radius                 ....   0.400
   Minimum AH scaling param. (alpha)    ....   1.000
   Maximum AH scaling param. (alpha)    .... 1000.000
   Quad. conv. algorithm                .... NR
   White noise on init. David. guess    .... on
   Maximum white noise                  ....   0.010
   Pseudo random numbers                .... off
   Inactive MOs                         .... canonical
   Orbital update algorithm             .... Taylor
   Preconditioner                       .... Diag
   Full preconditioner red. dimension   ....   250
 SOSCF                  CNVSOSCF        .... on
   Start iteration      SOSCFMaxIt      ....   150
   Startup grad/error   SOSCFStart      ....  0.003300
   Hessian update       SOSCFHessUp     .... L-BFGS
 Level Shifting         CNVShift        .... on
   Level shift para.    LevelShift      ....    0.2500
   Turn off err/grad.   ShiftErr        ....    0.0010
 Zerner damping         CNVZerner       .... off
 Static damping         CNVDamp         .... on
   Fraction old density DampFac         ....    0.7000
   Max. Damping (<1)    DampMax         ....    0.9800
   Min. Damping (>=0)   DampMin         ....    0.0000
   Turn off err/grad.   DampErr         ....    0.1000

SCF Procedure:
 Maximum # iterations   MaxIter         ....   125
 SCF integral mode      SCFMode         .... Direct
   Integral package                     .... SHARK and LIBINT hybrid scheme
 Reset frequency        DirectResetFreq ....    20
 Integral Threshold     Thresh          ....  1.000e-09 Eh
 Primitive CutOff       TCut            ....  1.000e-10 Eh

Convergence Tolerance:
 Convergence Check Mode ConvCheckMode   .... Total+1el-Energy
 Convergence forced     ConvForced      .... 0
 Energy Change          TolE            ....  1.000e-05 Eh
 1-El. energy change                    ....  1.000e-02 Eh
 Orbital Gradient       TolG            ....  1.000e-04
 Orbital Rotation angle TolX            ....  1.000e-04
 DIIS Error             TolErr          ....  5.000e-04

------------------------------
INITIAL GUESS: MODEL POTENTIAL
------------------------------
Loading Hartree-Fock densities                     ... done
Calculating cut-offs                               ... done
Initializing the effective Hamiltonian             ... done
Setting up the integral package (SHARK)            ... done
Starting the Coulomb interaction                   ... done (   0.2 sec)
Making the grid                                    ... done (   0.3 sec)
Mapping shells                                     ... done
Starting the XC term evaluation                    ... done (   0.3 sec)
  promolecular density results
     # of electrons  =     95.991042808
     EX              =    -83.239220291
     EC              =     -3.272383670
     EX+EC           =    -86.511603961
Transforming the Hamiltonian                       ... done (   0.0 sec)
Diagonalizing the Hamiltonian                      ... done (   0.0 sec)
Back transforming the eigenvectors                 ... done (   0.0 sec)
Now organizing SCF variables                       ... done
                      ------------------
                      INITIAL GUESS DONE (   0.8 sec)
                      ------------------
             **** ENERGY FILE WAS UPDATED (sp.en.tmp) ****
Finished Guess after   1.0 sec
Maximum memory used throughout the entire GUESS-calculation: 21.9 MB

-------------------------------------------------------------------------------------------
                                      ORCA LEAN-SCF
                              memory conserving SCF solver
-------------------------------------------------------------------------------------------

----------------------------------------D-I-I-S--------------------------------------------
Iteration    Energy (Eh)           Delta-E    RMSDP     MaxDP     DIISErr   Damp  Time(sec)
-------------------------------------------------------------------------------------------
               ***  Starting incremental Fock matrix formation  ***
    1    -685.5280166123015988     0.00e+00  4.75e-03  1.54e-01  2.18e-01  0.700   1.2
    2    -685.6753213250378849    -1.47e-01  3.10e-03  1.07e-01  8.34e-02  0.700   1.2
                               ***Turning on AO-DIIS***
    3    -685.7222088832934332    -4.69e-02  1.12e-03  2.77e-02  1.81e-02  0.700   1.2
    4    -685.7532242608845081    -3.10e-02  1.46e-03  2.11e-02  1.06e-02  0.000   1.1
    5    -685.8249423477748223    -7.17e-02  4.73e-04  1.83e-02  4.55e-03  0.000   1.1
                              *** Initializing SOSCF ***
---------------------------------------S-O-S-C-F--------------------------------------
Iteration    Energy (Eh)           Delta-E    RMSDP     MaxDP     MaxGrad    Time(sec)
--------------------------------------------------------------------------------------
    6    -685.8252501966408090    -3.08e-04  1.42e-04  3.51e-03  1.21e-03     1.2
               *** Restarting incremental Fock matrix formation ***
    7    -685.8252777096774935    -2.75e-05  9.76e-05  2.96e-03  1.50e-04     1.2
    8    -685.8252766291827811     1.08e-06  3.78e-05  8.88e-04  2.41e-04     1.1
                 **** Energy Check signals convergence ****

               *****************************************************
               *                     SUCCESS                       *
               *           SCF CONVERGED AFTER   8 CYCLES          *
               *****************************************************

             **** ENERGY FILE WAS UPDATED (sp.en.tmp) ****

----------------
TOTAL SCF ENERGY
----------------

Total Energy       :       -685.82527662918278 Eh          -18662.25455 eV

Components:
Nuclear Repulsion  :        847.41401741401023 Eh           23059.30773 eV
Electronic Energy  :      -1533.23929404319301 Eh          -41721.56227 eV
One Electron Energy:      -2624.41228042364764 Eh          -71413.88876 eV
Two Electron Energy:       1091.17298638045463 Eh           29692.32649 eV

Virial components:
Potential Energy   :      -1366.89443071766937 Eh          -37195.08842 eV
Kinetic Energy     :        681.06915408848647 Eh           18532.83387 eV
Virial Ratio       :          2.00698331808473

DFT components:
N(Alpha)           :       47.999982244655 electrons
N(Beta)            :       47.999982244655 electrons
N(Total)           :       95.999964489310 electrons
E(X)               :      -84.602453604176 Eh       
E(C)               :       -3.283861425097 Eh       
E(XC)              :      -87.886315029273 Eh       

---------------
SCF CONVERGENCE
---------------

  Last Energy change         ...   -1.0805e-06  Tolerance :   1.0000e-05
  Last MAX-Density change    ...    8.8759e-04  Tolerance :   1.0000e-03
  Last RMS-Density change    ...    3.7811e-05  Tolerance :   1.0000e-04
  Last DIIS Error            ...    1.2076e-03  Tolerance :   5.0000e-04
  Last Orbital Gradient      ...    2.4113e-04  Tolerance :   1.0000e-04
  Last Orbital Rotation      ...    1.7386e-04  Tolerance :   1.0000e-04


----------------
ORBITAL ENERGIES
----------------

  NO   OCC          E(Eh)            E(eV) 
   0   2.0000     -18.776221      -510.9269 
   1   2.0000     -18.775923      -510.9188 
   2   2.0000     -18.768623      -510.7202 
   3   2.0000     -18.758754      -510.4516 
   4   2.0000     -18.728300      -509.6230 
   5   2.0000     -18.725250      -509.5400 
   6   2.0000      -9.989946      -271.8403 
   7   2.0000      -9.941902      -270.5329 
   8   2.0000      -9.940886      -270.5053 
   9   2.0000      -9.937778      -270.4207 
  10   2.0000      -9.927452      -270.1397 
  11   2.0000      -9.927305      -270.1357 
  12   2.0000      -0.985414       -26.8145 
  13   2.0000      -0.949454       -25.8360 
  14   2.0000      -0.935840       -25.4655 
  15   2.0000      -0.918993       -25.0071 
  16   2.0000      -0.913824       -24.8664 
  17   2.0000      -0.898211       -24.4416 
  18   2.0000      -0.698754       -19.0141 
  19   2.0000      -0.686570       -18.6825 
  20   2.0000      -0.624867       -17.0035 
  21   2.0000      -0.571516       -15.5517 
  22   2.0000      -0.564845       -15.3702 
  23   2.0000      -0.523390       -14.2422 
  24   2.0000      -0.505436       -13.7536 
  25   2.0000      -0.489379       -13.3167 
  26   2.0000      -0.465207       -12.6589 
  27   2.0000      -0.458439       -12.4748 
  28   2.0000      -0.451459       -12.2848 
  29   2.0000      -0.430179       -11.7058 
  30   2.0000      -0.408019       -11.1028 
  31   2.0000      -0.405364       -11.0305 
  32   2.0000      -0.376112       -10.2345 
  33   2.0000      -0.360358        -9.8058 
  34   2.0000      -0.355555        -9.6752 
  35   2.0000      -0.351043        -9.5524 
  36   2.0000      -0.337190        -9.1754 
  37   2.0000      -0.317334        -8.6351 
  38   2.0000      -0.312428        -8.5016 
  39   2.0000      -0.292926        -7.9709 
  40   2.0000      -0.281020        -7.6469 
  41   2.0000      -0.259663        -7.0658 
  42   2.0000      -0.243727        -6.6321 
  43   2.0000      -0.239393        -6.5142 
  44   2.0000      -0.234326        -6.3763 
  45   2.0000      -0.223491        -6.0815 
  46   2.0000      -0.201815        -5.4917 
  47   2.0000      -0.192124        -5.2280 
  48   0.0000       0.006615         0.1800 
  49   0.0000       0.014895         0.4053 
  50   0.0000       0.027048         0.7360 
  51   0.0000       0.063437         1.7262 
  52   0.0000       0.079114         2.1528 
  53   0.0000       0.082619         2.2482 
  54   0.0000       0.086810         2.3622 
  55   0.0000       0.095949         2.6109 
  56   0.0000       0.099425         2.7055 
  57   0.0000       0.115353         3.1389 
  58   0.0000       0.123950         3.3729 
*Only the first 10 virtual orbitals were printed.

                    ********************************
                    * MULLIKEN POPULATION ANALYSIS *
                    ********************************

-----------------------
MULLIKEN ATOMIC CHARGES
-----------------------
   0 C :    0.064182
   1 C :    0.026655
   2 H :    0.073304
   3 C :    0.053345
   4 H :    0.027877
   5 C :    0.134316
   6 H :    0.055635
   7 C :   -0.026885
   8 H :    0.076972
   9 C :    0.191062
  10 H :    0.068367
  11 O :   -0.320566
  12 O :   -0.405450
  13 O :   -0.409349
  14 O :   -0.430833
  15 O :   -0.429886
  16 O :   -0.441147
  17 H :    0.089052
  18 H :    0.066152
  19 H :    0.309124
  20 H :    0.310593
  21 H :    0.300986
  22 H :    0.300322
  23 H :    0.316172
Sum of atomic charges:    0.0000000

--------------------------------
MULLIKEN REDUCED ORBITAL CHARGES
--------------------------------
  0 C s       :     3.005009  s :     3.005009
      pz      :     1.018519  p :     2.869427
      px      :     0.872254
      py      :     0.978655
      dz2     :     0.014996  d :     0.061381
      dxz     :     0.010202
      dyz     :     0.009096
      dx2y2   :     0.013446
      dxy     :     0.013641

  1 C s       :     3.051613  s :     3.051613
      pz      :     1.084719  p :     2.856234
      px      :     0.884074
      py      :     0.887441
      dz2     :     0.015322  d :     0.065498
      dxz     :     0.008562
      dyz     :     0.011798
      dx2y2   :     0.012244
      dxy     :     0.017573

  2 H s       :     0.926696  s :     0.926696

  3 C s       :     3.045997  s :     3.045997
      pz      :     1.037262  p :     2.832631
      px      :     0.945393
      py      :     0.849975
      dz2     :     0.015549  d :     0.068027
      dxz     :     0.008117
      dyz     :     0.013108
      dx2y2   :     0.014493
      dxy     :     0.016759

  4 H s       :     0.972123  s :     0.972123

  5 C s       :     2.996086  s :     2.996086
      pz      :     0.840281  p :     2.802198
      px      :     0.931096
      py      :     1.030821
      dz2     :     0.013528  d :     0.067400
      dxz     :     0.014655
      dyz     :     0.018110
      dx2y2   :     0.010361
      dxy     :     0.010746

  6 H s       :     0.944365  s :     0.944365

  7 C s       :     3.074959  s :     3.074959
      pz      :     0.755457  p :     2.884889
      px      :     1.066579
      py      :     1.062853
      dz2     :     0.019732  d :     0.067037
      dxz     :     0.015878
      dyz     :     0.014919
      dx2y2   :     0.010261
      dxy     :     0.006247

  8 H s       :     0.923028  s :     0.923028

  9 C s       :     2.999331  s :     2.999331
      pz      :     0.773405  p :     2.709945
      px      :     0.849894
      py      :     1.086645
      dz2     :     0.025566  d :     0.099663
      dxz     :     0.025002
      dyz     :     0.014909
      dx2y2   :     0.015532
      dxy     :     0.018653

 10 H s       :     0.931633  s :     0.931633

 11 O s       :     3.754204  s :     3.754204
      pz      :     1.781806  p :     4.551565
      px      :     1.211757
      py      :     1.558002
      dz2     :     0.002268  d :     0.014797
      dxz     :     0.001753
      dyz     :     0.001861
      dx2y2   :     0.003523
      dxy     :     0.005393

 12 O s       :     3.765679  s :     3.765679
      pz      :     1.296771  p :     4.625202
      px      :     1.861904
      py      :     1.466527
      dz2     :     0.003476  d :     0.014570
      dxz     :     0.001730
      dyz     :     0.004471
      dx2y2   :     0.003777
      dxy     :     0.001116

 13 O s       :     3.788371  s :     3.788371
      pz      :     1.265090  p :     4.605647
      px      :     1.832728
      py      :     1.507829
      dz2     :     0.003662  d :     0.015330
      dxz     :     0.002206
      dyz     :     0.004290
      dx2y2   :     0.002777
      dxy     :     0.002396

 14 O s       :     3.786472  s :     3.786472
      pz      :     1.307621  p :     4.628847
      px      :     1.777495
      py      :     1.543731
      dz2     :     0.001430  d :     0.015514
      dxz     :     0.001592
      dyz     :     0.007108
      dx2y2   :     0.003264
      dxy     :     0.002121

 15 O s       :     3.771625  s :     3.771625
      pz      :     1.840763  p :     4.643093
      px      :     1.259750
      py      :     1.542580
      dz2     :     0.002621  d :     0.015169
      dxz     :     0.000753
      dyz     :     0.002236
      dx2y2   :     0.003315
      dxy     :     0.006244

 16 O s       :     3.784266  s :     3.784266
      pz      :     1.850287  p :     4.641927
      px      :     1.206368
      py      :     1.585272
      dz2     :     0.002476  d :     0.014954
      dxz     :     0.001719
      dyz     :     0.002218
      dx2y2   :     0.002340
      dxy     :     0.006201

 17 H s       :     0.910948  s :     0.910948

 18 H s       :     0.933848  s :     0.933848

 19 H s       :     0.690876  s :     0.690876

 20 H s       :     0.689407  s :     0.689407

 21 H s       :     0.699014  s :     0.699014

 22 H s       :     0.699678  s :     0.699678

 23 H s       :     0.683828  s :     0.683828


------------------------
MULLIKEN OVERLAP CHARGES
------------------------
B(  0-C ,  1-C ) :   0.4713 B(  0-C ,  2-H ) :  -0.1151 B(  0-C ,  4-H ) :  -0.0733 
B(  0-C , 11-O ) :  -0.0809 B(  0-C , 16-O ) :   0.5974 B(  0-C , 17-H ) :   0.6868 
B(  0-C , 18-H ) :   0.6484 B(  1-C ,  2-H ) :   0.6640 B(  1-C ,  3-C ) :   0.4625 
B(  1-C ,  9-C ) :  -0.1091 B(  1-C , 11-O ) :   0.5163 B(  1-C , 16-O ) :  -0.0930 
B(  2-H ,  3-C ) :  -0.0548 B(  2-H ,  5-C ) :  -0.0633 B(  3-C ,  4-H ) :   0.5408 
B(  3-C ,  5-C ) :   0.0511 B(  3-C ,  7-C ) :   0.1274 B(  3-C ,  9-C ) :  -0.1078 
B(  3-C , 11-O ) :  -0.0593 B(  3-C , 14-O ) :  -0.0912 B(  3-C , 15-O ) :   0.5967 
B(  3-C , 18-H ) :  -0.0583 B(  3-C , 22-H ) :  -0.0629 B(  4-H ,  5-C ) :  -0.0684 
B(  4-H , 15-O ) :  -0.0600 B(  5-C ,  6-H ) :   0.4990 B(  5-C ,  7-C ) :   0.1788 
B(  5-C ,  8-H ) :  -0.1125 B(  5-C ,  9-C ) :   0.0648 B(  5-C , 14-O ) :   0.5565 
B(  5-C , 15-O ) :  -0.1108 B(  5-C , 21-H ) :  -0.1144 B(  7-C ,  8-H ) :   0.6528 
B(  7-C ,  9-C ) :   0.2984 B(  7-C , 11-O ) :  -0.0642 B(  7-C , 12-O ) :  -0.1452 
B(  7-C , 13-O ) :   0.4397 B(  7-C , 20-H ) :  -0.0763 B(  9-C , 10-H ) :   0.6782 
B(  9-C , 11-O ) :   0.6980 B(  9-C , 12-O ) :   0.6272 B(  9-C , 13-O ) :  -0.0784 
B( 10-H , 11-O ) :  -0.0851 B( 10-H , 12-O ) :  -0.0667 B( 11-O , 12-O ) :  -0.1446 
B( 12-O , 19-H ) :   0.5016 B( 12-O , 21-H ) :   0.0709 B( 13-O , 20-H ) :   0.5310 
B( 14-O , 21-H ) :   0.5537 B( 15-O , 22-H ) :   0.5359 B( 16-O , 18-H ) :  -0.0621 
B( 16-O , 22-H ) :   0.1126 B( 16-O , 23-H ) :   0.5154 B( 17-H , 18-H ) :  -0.1013 



                     *******************************
                     * LOEWDIN POPULATION ANALYSIS *
                     *******************************

----------------------
LOEWDIN ATOMIC CHARGES
----------------------
   0 C :   -0.126360
   1 C :   -0.069840
   2 H :    0.113514
   3 C :   -0.069094
   4 H :    0.095114
   5 C :   -0.065894
   6 H :    0.117659
   7 C :   -0.093221
   8 H :    0.109760
   9 C :    0.005006
  10 H :    0.100064
  11 O :   -0.144598
  12 O :   -0.311715
  13 O :   -0.309217
  14 O :   -0.317741
  15 O :   -0.329227
  16 O :   -0.329735
  17 H :    0.106602
  18 H :    0.096977
  19 H :    0.290290
  20 H :    0.292896
  21 H :    0.271983
  22 H :    0.270490
  23 H :    0.296288

-------------------------------
LOEWDIN REDUCED ORBITAL CHARGES
-------------------------------
  0 C s       :     2.925790  s :     2.925790
      pz      :     1.086831  p :     3.059602
      px      :     0.941648
      py      :     1.031123
      dz2     :     0.036066  d :     0.140968
      dxz     :     0.021575
      dyz     :     0.020327
      dx2y2   :     0.030225
      dxy     :     0.032775

  1 C s       :     2.900115  s :     2.900115
      pz      :     1.108640  p :     3.017733
      px      :     0.941125
      py      :     0.967968
      dz2     :     0.035206  d :     0.151992
      dxz     :     0.017065
      dyz     :     0.028732
      dx2y2   :     0.029193
      dxy     :     0.041796

  2 H s       :     0.886486  s :     0.886486

  3 C s       :     2.897141  s :     2.897141
      pz      :     1.072606  p :     3.013292
      px      :     0.982733
      py      :     0.957953
      dz2     :     0.037187  d :     0.158661
      dxz     :     0.016458
      dyz     :     0.032052
      dx2y2   :     0.034556
      dxy     :     0.038408

  4 H s       :     0.904886  s :     0.904886

  5 C s       :     2.896638  s :     2.896638
      pz      :     0.940901  p :     3.013318
      px      :     1.028069
      py      :     1.044348
      dz2     :     0.029541  d :     0.155937
      dxz     :     0.032322
      dyz     :     0.042195
      dx2y2   :     0.023375
      dxy     :     0.028505

  6 H s       :     0.882341  s :     0.882341

  7 C s       :     2.899558  s :     2.899558
      pz      :     0.866211  p :     3.035621
      px      :     1.089354
      py      :     1.080056
      dz2     :     0.046225  d :     0.158042
      dxz     :     0.035501
      dyz     :     0.034964
      dx2y2   :     0.024711
      dxy     :     0.016640

  8 H s       :     0.890240  s :     0.890240

  9 C s       :     2.883845  s :     2.883845
      pz      :     0.886591  p :     2.887286
      px      :     0.910539
      py      :     1.090157
      dz2     :     0.060095  d :     0.223863
      dxz     :     0.052907
      dyz     :     0.033415
      dx2y2   :     0.036736
      dxy     :     0.040710

 10 H s       :     0.899936  s :     0.899936

 11 O s       :     3.464192  s :     3.464192
      pz      :     1.783460  p :     4.651207
      px      :     1.277805
      py      :     1.589942
      dz2     :     0.003858  d :     0.029198
      dxz     :     0.003691
      dyz     :     0.002553
      dx2y2   :     0.007689
      dxy     :     0.011406

 12 O s       :     3.529558  s :     3.529558
      pz      :     1.367858  p :     4.755921
      px      :     1.862958
      py      :     1.525105
      dz2     :     0.007928  d :     0.026236
      dxz     :     0.003020
      dyz     :     0.008312
      dx2y2   :     0.005648
      dxy     :     0.001329

 13 O s       :     3.531579  s :     3.531579
      pz      :     1.342490  p :     4.750503
      px      :     1.843777
      py      :     1.564237
      dz2     :     0.008068  d :     0.027134
      dxz     :     0.003842
      dyz     :     0.007932
      dx2y2   :     0.004003
      dxy     :     0.003289

 14 O s       :     3.530300  s :     3.530300
      pz      :     1.374792  p :     4.760361
      px      :     1.784689
      py      :     1.600880
      dz2     :     0.003335  d :     0.027081
      dxz     :     0.003449
      dyz     :     0.012806
      dx2y2   :     0.004442
      dxy     :     0.003048

 15 O s       :     3.529028  s :     3.529028
      pz      :     1.854498  p :     4.773745
      px      :     1.324162
      py      :     1.595085
      dz2     :     0.004071  d :     0.026454
      dxz     :     0.001656
      dyz     :     0.003160
      dx2y2   :     0.005958
      dxy     :     0.011609

 16 O s       :     3.530466  s :     3.530466
      pz      :     1.862436  p :     4.773107
      px      :     1.270087
      py      :     1.640584
      dz2     :     0.003833  d :     0.026163
      dxz     :     0.003247
      dyz     :     0.002940
      dx2y2   :     0.004745
      dxy     :     0.011398

 17 H s       :     0.893398  s :     0.893398

 18 H s       :     0.903023  s :     0.903023

 19 H s       :     0.709710  s :     0.709710

 20 H s       :     0.707104  s :     0.707104

 21 H s       :     0.728017  s :     0.728017

 22 H s       :     0.729510  s :     0.729510

 23 H s       :     0.703712  s :     0.703712


---------------------------------
LOEWDIN BOND ORDERS (THRESH 0.050000)
---------------------------------
B(  0-C ,  1-C ) :   1.0605 B(  0-C ,  3-C ) :   0.0563 B(  0-C , 11-O ) :   0.0691 
B(  0-C , 16-O ) :   1.2132 B(  0-C , 17-H ) :   0.9077 B(  0-C , 18-H ) :   0.9063 
B(  1-C ,  2-H ) :   0.8650 B(  1-C ,  3-C ) :   1.0247 B(  1-C ,  5-C ) :   0.0517 
B(  1-C ,  9-C ) :   0.0599 B(  1-C , 11-O ) :   1.1152 B(  1-C , 15-O ) :   0.0822 
B(  1-C , 16-O ) :   0.0577 B(  3-C ,  4-H ) :   0.8639 B(  3-C ,  5-C ) :   1.0102 
B(  3-C ,  7-C ) :   0.0522 B(  3-C , 11-O ) :   0.0597 B(  3-C , 14-O ) :   0.0743 
B(  3-C , 15-O ) :   1.2275 B(  5-C ,  6-H ) :   0.8686 B(  5-C ,  7-C ) :   1.0135 
B(  5-C ,  9-C ) :   0.0550 B(  5-C , 13-O ) :   0.0766 B(  5-C , 14-O ) :   1.2367 
B(  5-C , 15-O ) :   0.0658 B(  7-C ,  8-H ) :   0.8662 B(  7-C ,  9-C ) :   1.0234 
B(  7-C , 11-O ) :   0.0536 B(  7-C , 12-O ) :   0.0626 B(  7-C , 13-O ) :   1.2227 
B(  7-C , 14-O ) :   0.0860 B(  9-C , 10-H ) :   0.8828 B(  9-C , 11-O ) :   1.2016 
B(  9-C , 12-O ) :   1.2403 B(  9-C , 13-O ) :   0.0626 B( 11-O , 12-O ) :   0.0948 
B( 12-O , 19-H ) :   0.8715 B( 12-O , 21-H ) :   0.0577 B( 13-O , 20-H ) :   0.8801 
B( 14-O , 21-H ) :   0.8675 B( 15-O , 22-H ) :   0.8457 B( 16-O , 22-H ) :   0.0912 
B( 16-O , 23-H ) :   0.8802 

------------------------------------------
LOEWDIN REDUCED ORBITAL POPULATIONS PER MO
-------------------------------------------
THRESHOLD FOR PRINTING IS 0.1%%
                      0         1         2         3         4         5   
                 -18.77622 -18.77592 -18.76862 -18.75875 -18.72830 -18.72525
                   2.00000   2.00000   2.00000   2.00000   2.00000   2.00000
                  --------  --------  --------  --------  --------  --------
11 O  s               0.0       0.0      99.9       0.0       0.0       0.0
12 O  s               0.0      99.9       0.0       0.0       0.0       0.0
13 O  s               0.0       0.0       0.0      99.9       0.0       0.0
14 O  s               0.0       0.0       0.0       0.0      99.9       0.0
15 O  s               0.0       0.0       0.0       0.0       0.0      99.9
16 O  s              99.9       0.0       0.0       0.0       0.0       0.0

                      6         7         8         9        10        11   
                  -9.98995  -9.94190  -9.94089  -9.93778  -9.92745  -9.92731
                   2.00000   2.00000   2.00000   2.00000   2.00000   2.00000
                  --------  --------  --------  --------  --------  --------
 0 C  s               0.0      99.6       0.0       0.0       0.0       0.0
 1 C  s               0.0       0.0       0.0      99.6       0.0       0.0
 3 C  s               0.0       0.0       0.0       0.0      93.3       6.3
 5 C  s               0.0       0.0       0.0       0.0       6.3      93.3
 7 C  s               0.0       0.0      99.6       0.0       0.0       0.0
 9 C  s              99.6       0.0       0.0       0.0       0.0       0.0
11 O  px              0.1       0.0       0.0       0.0       0.0       0.0
12 O  pz              0.1       0.0       0.0       0.0       0.0       0.0
13 O  pz              0.0       0.0       0.1       0.0       0.0       0.0

                     12        13        14        15        16        17   
                  -0.98541  -0.94945  -0.93584  -0.91899  -0.91382  -0.89821
                   2.00000   2.00000   2.00000   2.00000   2.00000   2.00000
                  --------  --------  --------  --------  --------  --------
 0 C  s               0.5       9.7       0.0       0.0       0.1       0.1
 0 C  pz              0.0       0.9       0.0       0.0       0.0       0.0
 0 C  px              0.3       4.3       0.0       1.7       0.2       0.1
 0 C  py              0.0       2.8       0.0       0.0       0.0       0.0
 0 C  dz2             0.0       0.1       0.0       0.0       0.0       0.0
 0 C  dxz             0.0       0.1       0.0       0.0       0.0       0.0
 0 C  dxy             0.0       0.4       0.0       0.0       0.0       0.0
 1 C  s               3.6       1.1       0.0       5.0       0.2       0.0
 1 C  pz              0.3       0.0       0.0       0.3       0.1       0.0
 1 C  px              1.8       1.1       0.1       2.3       0.0       0.2
 1 C  py              1.1       0.0       0.1       1.6       0.9       1.3
 1 C  dxy             0.2       0.0       0.0       0.3       0.0       0.0
 2 H  s               0.5       0.2       0.1       0.5       0.0       0.0
 3 C  s               0.7       0.5       0.3       0.6       6.2       4.0
 3 C  pz              0.1       0.1       0.0       0.2       0.2       0.5
 3 C  px              0.1       0.3       0.1       0.2       0.3       5.0
 3 C  py              0.2       0.0       0.1       0.3       2.2       2.1
 3 C  dxy             0.0       0.0       0.0       0.0       0.1       0.4
 4 H  s               0.2       0.1       0.0       0.0       1.0       0.3
 5 C  s               0.7       0.0       1.6       0.4       7.8       1.8
 5 C  pz              0.0       0.0       0.1       0.2       4.5       2.5
 5 C  px              0.0       0.1       0.3       0.5       0.1       2.5
 5 C  py              0.4       0.0       0.2       0.0       0.5       0.4
 5 C  dz2             0.0       0.0       0.0       0.0       0.1       0.2
 5 C  dxz             0.0       0.0       0.0       0.0       0.2       0.1
 6 H  s               0.1       0.0       0.3       0.0       1.1       0.1
 7 C  s               2.7       0.0       8.5       0.6       0.0       0.0
 7 C  pz              0.1       0.0       8.3       0.1       1.8       0.4
 7 C  px              0.3       0.0       0.2       0.1       0.1       0.0
 7 C  py              1.0       0.0       0.1       0.1       0.7       0.2
 7 C  dz2             0.0       0.0       0.7       0.1       0.1       0.0
 8 H  s               0.4       0.0       1.0       0.2       0.0       0.0
 9 C  s              15.9       0.2       0.2       0.0       0.1       0.0
 9 C  pz              2.0       0.3       3.2       5.4       0.0       0.4
 9 C  px              2.1       0.1       0.0       6.5       0.0       0.3
 9 C  py              0.0       0.0       0.7       0.7       0.0       0.0
 9 C  dz2             0.1       0.0       0.1       0.8       0.0       0.1
 9 C  dx2y2           0.1       0.0       0.0       0.2       0.0       0.0
10 H  s               1.8       0.0       0.0       0.0       0.0       0.0
11 O  s              23.8       0.1       0.0      28.7       0.2       1.7
11 O  px              0.6       0.1       0.0       0.1       0.0       0.0
11 O  py              1.2       0.0       0.0       1.3       0.0       0.0
12 O  s              25.0       1.8       7.0      24.4       0.3       1.9
12 O  pz              1.2       0.0       0.0       0.1       0.0       0.0
12 O  px              0.2       0.0       0.0       0.0       0.0       0.0
12 O  py              0.7       0.1       0.3       0.7       0.0       0.1
13 O  s               2.1       0.0      49.5       2.8       3.5       0.7
13 O  pz              0.2       0.0       0.9       0.0       0.0       0.0
13 O  px              0.0       0.0       0.3       0.0       0.0       0.0
13 O  py              0.0       0.0       1.7       0.1       0.1       0.0
14 O  s               0.4       0.0       1.5       2.3      31.9      21.2
14 O  pz              0.0       0.0       0.0       0.0       0.2       0.1
14 O  px              0.0       0.0       0.0       0.0       0.1       0.0
14 O  py              0.0       0.0       0.1       0.2       1.7       1.1
15 O  s               0.2       1.5       0.3       0.8      19.3      35.1
15 O  py              0.0       0.1       0.0       0.1       1.2       1.9
16 O  s               0.3      55.5       0.2       2.1       1.2       0.8
16 O  pz              0.0       0.6       0.0       0.0       0.0       0.0
16 O  py              0.0       2.3       0.0       0.1       0.1       0.1
17 H  s               0.1       1.1       0.0       0.0       0.0       0.0
18 H  s               0.1       1.1       0.0       0.0       0.0       0.0
19 H  s               4.9       0.4       1.4       4.8       0.1       0.4
20 H  s               0.4       0.0       9.9       0.6       0.7       0.1
21 H  s               0.3       0.0       0.2       0.8       6.3       4.0
22 H  s               0.1       1.3       0.0       0.1       3.5       6.8
23 H  s               0.1      11.1       0.1       0.4       0.3       0.2

                     18        19        20        21        22        23   
                  -0.69875  -0.68657  -0.62487  -0.57152  -0.56485  -0.52339
                   2.00000   2.00000   2.00000   2.00000   2.00000   2.00000
                  --------  --------  --------  --------  --------  --------
 0 C  s              11.2       0.1      11.4       0.6       7.3       0.1
 0 C  pz              0.0       0.0       0.0       0.2       0.3       0.0
 0 C  px              4.9       0.0       0.4       0.2       1.0       0.4
 0 C  py              0.1       0.1       0.1       0.3       1.5       0.3
 0 C  dxy             0.1       0.0       0.0       0.0       0.0       0.0
 1 C  s              18.3       0.8       0.1       0.2       5.6       0.1
 1 C  pz              0.2       0.1       0.1       1.1       0.1       0.0
 1 C  px              2.2       0.1       5.5       1.0       1.9       0.1
 1 C  py              0.0       2.7       1.6       5.4       2.0       1.6
 1 C  dyz             0.0       0.0       0.0       0.1       0.0       0.0
 1 C  dxy             0.1       0.1       0.1       0.2       0.0       0.0
 2 H  s               3.2       0.2       0.0       0.1       2.0       0.0
 3 C  s               3.7       5.9       6.4       8.1       0.7       0.9
 3 C  pz              0.2       0.2       0.0       0.8       0.1       0.0
 3 C  px              0.0       3.3       3.0       0.0       1.0       0.2
 3 C  py              3.6       0.3       0.2       0.2       5.2       0.0
 4 H  s               0.9       0.9       1.3       3.4       0.3       0.3
 5 C  s               0.1      10.8       5.0       1.1       8.7       0.6
 5 C  pz              0.0       1.9       0.1       2.0       0.7       0.0
 5 C  px              0.9       0.1       3.9       5.8       0.0       0.6
 5 C  py              0.0       3.7       0.1       0.0       2.9       0.1
 5 C  dz2             0.0       0.1       0.0       0.0       0.0       0.0
 5 C  dxz             0.0       0.1       0.0       0.0       0.0       0.0
 5 C  dxy             0.0       0.0       0.1       0.1       0.0       0.0
 6 H  s               0.0       1.9       1.8       0.6       5.2       0.3
 7 C  s               1.5      14.3       2.9       6.3       0.2       0.8
 7 C  pz              0.4       3.6       0.3       0.0       0.0       5.7
 7 C  px              0.0       0.9       1.3       0.1       0.3       0.1
 7 C  py              1.3       0.0       3.5       3.2       3.8       1.3
 7 C  dz2             0.0       0.1       0.0       0.0       0.0       0.0
 7 C  dyz             0.0       0.0       0.0       0.1       0.0       0.1
 8 H  s               0.3       2.6       1.2       2.6       0.1       0.0
 9 C  s               7.2       3.3       4.8       5.7       0.0       0.2
 9 C  pz              1.2       0.6       0.6       0.1       0.0       9.3
 9 C  px              0.4       1.2       2.1       0.1       1.3       0.7
 9 C  py              0.1       5.5       0.6       3.0       3.2       2.1
 9 C  dz2             0.1       0.0       0.0       0.0       0.0       0.1
 9 C  dyz             0.0       0.0       0.0       0.1       0.0       0.2
 9 C  dx2y2           0.0       0.2       0.1       0.0       0.0       0.0
10 H  s               1.7       0.5       1.7       2.6       0.0       0.6
11 O  s               1.0       3.6       0.8       0.9       1.1       0.0
11 O  pz              0.3       0.0       0.0       1.2       0.5       0.2
11 O  px             10.9       0.2       0.2      10.4       3.1       4.1
11 O  py              0.6       0.4       0.1       0.3       2.7       0.3
11 O  dxy             0.1       0.0       0.0       0.1       0.0       0.0
12 O  s               1.8       0.8       0.5       1.0       0.1       0.0
12 O  pz              2.0       1.9       3.4       6.2       0.4      18.2
12 O  px              0.0       0.0       0.1       0.2       0.1       0.0
12 O  py              0.3       1.0       1.0       0.4       1.5       9.3
12 O  dz2             0.0       0.0       0.0       0.1       0.0       0.1
13 O  s               0.3       3.8       0.2       1.0       0.0       0.0
13 O  pz              0.5       4.0       1.5       4.9       0.5      13.6
13 O  px              0.0       0.1       0.0       0.0       0.0       0.4
13 O  py              0.2       0.7       0.7       0.2       0.8       5.6
13 O  dz2             0.0       0.1       0.0       0.0       0.0       0.1
14 O  s               0.0       4.7       0.8       0.2       0.8       0.4
14 O  pz              0.0       2.0       1.3       1.4       8.5       1.8
14 O  px              0.0       0.3       0.7       0.1       1.4       0.1
14 O  py              0.0       0.1       0.1       0.0       0.6       0.0
15 O  s               2.2       2.0       0.9       1.7       0.2       0.2
15 O  pz              0.0       0.1       0.2       0.6       0.0       0.1
15 O  px              0.5       1.5       3.3       4.5       0.1       1.1
15 O  py              0.1       0.1       0.1       0.8       0.4       0.3
16 O  s               2.1       0.0       1.6       0.1       0.8       0.0
16 O  pz              0.1       0.0       0.2       0.1       0.4       0.0
16 O  px              3.7       0.0       8.1       1.4       6.3       1.5
16 O  py              0.1       0.0       0.2       0.1       1.0       0.0
16 O  dxy             0.1       0.0       0.1       0.0       0.1       0.0
17 H  s               2.3       0.0       3.0       0.0       3.2       0.0
18 H  s               2.4       0.0       2.8       0.3       2.8       0.0
19 H  s               1.1       1.1       1.4       1.9       0.4       7.8
20 H  s               0.3       2.4       0.7       1.5       0.3       5.8
21 H  s               0.0       1.7       0.8       0.3       3.4       0.5
22 H  s               0.7       1.0       1.3       2.0       0.0       0.4
23 H  s               1.7       0.0       2.9       0.4       2.0       0.4

                     24        25        26        27        28        29   
                  -0.50544  -0.48938  -0.46521  -0.45844  -0.45146  -0.43018
                   2.00000   2.00000   2.00000   2.00000   2.00000   2.00000
                  --------  --------  --------  --------  --------  --------
 0 C  s               2.1       0.0       0.3       1.0       0.3       0.0
 0 C  pz              4.8       1.2       3.6       4.9       0.3       0.8
 0 C  px              0.1       2.3       2.3       0.7       0.1       1.3
 0 C  py             11.5       2.4       2.0       3.9       2.5       0.8
 0 C  dyz             0.1       0.0       0.0       0.1       0.0       0.0
 0 C  dxy             0.0       0.1       0.1       0.2       0.1       0.1
 1 C  s               2.8       2.4       0.3       0.5       0.4       0.3
 1 C  pz              5.6       5.1       6.7       0.3       2.3       0.4
 1 C  px              0.4       0.2       1.3       0.0       0.3       2.2
 1 C  py              4.2       1.0       0.3       1.9       1.6       1.0
 1 C  dxy             0.0       0.0       0.0       0.2       0.1       0.0
 2 H  s               5.2       3.4       1.1       0.2       1.6       0.0
 3 C  s               1.3       0.1       0.6       0.5       0.0       0.1
 3 C  pz              4.8       1.6       3.2       0.7       5.0       3.2
 3 C  px              0.0       0.1       2.7       1.0       0.1       3.9
 3 C  py              1.7       2.8       5.2       6.0       0.0       0.0
 3 C  dyz             0.1       0.0       0.0       0.1       0.0       0.0
 3 C  dxy             0.1       0.0       0.0       0.1       0.0       0.0
 4 H  s               2.5       1.1       2.8       0.2       1.4       1.0
 5 C  s               0.7       0.1       0.0       0.5       0.0       0.1
 5 C  pz              0.5       0.2       1.0       0.1       4.3       5.5
 5 C  px              0.6       0.7       3.6       0.0       0.7       0.8
 5 C  py              0.7       7.7       0.7       0.2       3.7       2.5
 5 C  dx2y2           0.0       0.0       0.0       0.1       0.0       0.0
 5 C  dxy             0.0       0.0       0.0       0.0       0.1       0.0
 6 H  s               0.8       1.2       0.1       0.1       0.0       1.7
 7 C  s               0.6       0.7       0.8       0.9       0.9       0.1
 7 C  pz              0.1       0.9       0.3       0.3       4.3       5.9
 7 C  px              0.9       0.6       9.7       9.9       0.5       0.2
 7 C  py              0.3       2.8       0.9       0.2       4.7       5.8
 7 C  dz2             0.0       0.0       0.1       0.0       0.4       0.2
 8 H  s               0.5       0.2       5.4       5.8       2.9       0.1
 9 C  s               0.4       2.0       0.2       0.4       0.1       0.5
 9 C  pz              0.0       1.3       0.6       0.0       1.0       8.9
 9 C  px              0.1       8.8       1.8       1.5       0.2       2.2
 9 C  py              1.3       3.7       3.4       0.1       1.5       1.7
 9 C  dz2             0.0       0.0       0.1       0.0       0.2       0.2
10 H  s               0.5       7.1       2.8       0.0       0.7       1.9
11 O  s               0.4       0.3       0.1       2.5       0.0       0.3
11 O  pz              0.2       2.9       0.8       0.5       0.1       5.4
11 O  px              2.9       1.3       0.0       3.1       3.8       0.5
11 O  py              0.1       0.4       0.9       1.1       0.7       1.5
12 O  s               0.1       0.1       0.8       0.1       0.4       0.0
12 O  pz              0.1       1.5       0.5       0.0       2.3       7.9
12 O  px              0.0       1.5       0.2       0.7       0.0       1.6
12 O  py              0.6       1.2       4.3       0.5       1.5       0.3
13 O  s               0.0       0.1       0.5       0.3       1.6       0.1
13 O  pz              1.1       0.1       0.4       0.1       5.7      12.2
13 O  px              0.2       0.0       3.0       2.3       0.5       0.0
13 O  py              0.3       1.3       1.0       0.5       8.4       0.1
13 O  dyz             0.0       0.0       0.0       0.0       0.0       0.1
14 O  s               0.1       0.4       0.0       0.1       0.1       0.6
14 O  pz              2.0       2.6       5.2       0.4       7.0       0.8
14 O  px              0.0       0.9       0.2       0.1       4.4       1.8
14 O  py              0.4       2.1       0.5       0.0       2.0       0.9
15 O  s               0.2       0.1       0.7       0.0       0.0       0.1
15 O  pz              1.6       0.0       0.2       2.0       0.2       0.0
15 O  px              4.0       4.1       2.9      14.7       1.5       3.5
15 O  py              0.0       0.0       0.9       0.2       0.1       1.0
15 O  dxy             0.0       0.0       0.0       0.1       0.0       0.0
16 O  s               1.0       0.1       0.1       1.1       0.5       0.0
16 O  pz              0.3       0.8       0.1       0.3       0.1       0.0
16 O  px             10.5       8.4       2.2      12.4       3.0       1.1
16 O  py              2.9       0.3       2.4       0.0       1.3       0.4
17 H  s               3.9       1.0       1.9       1.2       1.7       0.6
18 H  s               4.9       0.3       0.5       4.3       0.0       0.2
19 H  s               0.0       0.0       1.0       0.1       1.1       1.7
20 H  s               0.3       0.2       0.6       0.2       3.9       2.1
21 H  s               0.7       1.5       1.9       0.2       3.2       0.2
22 H  s               1.9       1.4       0.8       4.0       0.6       0.9
23 H  s               3.1       2.6       0.5       3.5       1.1       0.3

                     30        31        32        33        34        35   
                  -0.40802  -0.40536  -0.37611  -0.36036  -0.35556  -0.35104
                   2.00000   2.00000   2.00000   2.00000   2.00000   2.00000
                  --------  --------  --------  --------  --------  --------
 0 C  s               0.0       0.0       0.1       0.0       0.1       0.0
 0 C  pz              9.0      13.3       0.9       3.1       0.0       2.5
 0 C  px              0.1       2.9      14.4       2.7       0.8       0.1
 0 C  py              2.8       1.7       2.3       0.1       0.4       0.7
 0 C  dxz             0.0       0.0       0.1       0.1       0.0       0.1
 1 C  s               0.2       0.1       0.1       0.1       0.0       0.1
 1 C  pz              2.2       0.0       0.1      10.4       0.2       2.1
 1 C  px              1.0       2.1      11.7       0.2       0.4       0.1
 1 C  py              1.1       1.7       2.7       1.1       0.7       0.0
 1 C  dz2             0.1       0.0       0.0       0.2       0.0       0.0
 1 C  dxz             0.0       0.0       0.1       0.1       0.0       0.0
 1 C  dyz             0.0       0.0       0.0       0.0       0.0       0.1
 1 C  dxy             0.1       0.1       0.1       0.0       0.1       0.0
 2 H  s               1.7       0.1       0.0       6.3       0.0       1.5
 3 C  s               0.1       0.5       0.6       0.2       0.1       0.2
 3 C  pz              1.0       6.2       0.4       1.2       2.1       2.3
 3 C  px              2.8       2.9       0.9       0.1       6.4       5.6
 3 C  py              0.2       0.2       3.2       0.0       0.1       2.2
 3 C  dz2             0.0       0.1       0.0       0.1       0.0       0.1
 3 C  dx2y2           0.0       0.2       0.0       0.1       0.0       0.0
 3 C  dxy             0.0       0.1       0.0       0.0       0.4       0.0
 4 H  s               0.6       3.9       0.0       1.6       0.6       3.0
 5 C  s               1.1       0.7       0.2       0.1       0.1       0.1
 5 C  pz              6.1       0.1       0.0       0.8       0.0       9.8
 5 C  px              3.2       0.8       0.4       0.1      12.6       1.5
 5 C  py              0.2       2.9       0.3       0.2       4.1       6.6
 5 C  dxz             0.0       0.2       0.0       0.0       0.0       0.0
 5 C  dyz             0.2       0.0       0.0       0.0       0.2       0.1
 5 C  dx2y2           0.0       0.0       0.0       0.0       0.0       0.2
 5 C  dxy             0.0       0.0       0.1       0.0       0.1       0.0
 6 H  s               2.9       0.1       0.0       0.3       2.9       7.9
 7 C  s               0.2       0.0       0.0       0.2       0.1       0.2
 7 C  pz              0.1       1.2       1.8       0.8       0.6       0.0
 7 C  px              1.3       0.3       4.1       0.7      12.0       1.5
 7 C  py              0.1       2.4       0.7       2.6       2.4       0.1
 7 C  dx2y2           0.0       0.0       0.1       0.0       0.1       0.2
 7 C  dxy             0.2       0.1       0.0       0.0       0.1       0.0
 8 H  s               0.9       0.2       1.6       0.3       3.6       1.0
 9 C  s               0.2       0.0       0.1       1.1       0.0       0.2
 9 C  pz              0.3       1.1       1.8       0.0       0.5       2.7
 9 C  px              8.7       0.5       0.9       0.1       0.8       0.3
 9 C  py              2.6       5.0       1.5       2.7       0.6       0.2
 9 C  dxz             0.0       0.0       0.0       0.2       0.0       0.1
 9 C  dyz             0.0       0.0       0.0       0.4       0.0       0.1
 9 C  dxy             0.2       0.0       0.1       0.1       0.2       0.0
10 H  s               5.6       1.0       0.2       0.1       0.5       0.5
11 O  s               0.2       0.2       0.1       1.6       0.0       0.0
11 O  pz              0.6       0.6       0.1       8.0       0.8       1.5
11 O  px              6.5       0.4       1.0       1.2       1.9       0.2
11 O  py              0.4       6.8       3.5       9.1       0.0       0.7
12 O  s               0.1       0.3       0.7       3.3       1.3       2.4
12 O  pz              0.5       1.8       3.9       0.2       3.3       2.9
12 O  px              3.6       0.1       0.0       3.4       0.0       3.9
12 O  py              0.5       0.6       4.5      12.7       7.8       8.7
13 O  s               0.0       0.0       0.4       0.0       0.2       0.2
13 O  pz              0.0       2.5       1.6       1.0       0.0       0.0
13 O  px              0.4       0.0       2.0       0.1      10.0       1.0
13 O  py              0.2       0.1       0.6       0.0       0.3       1.0
14 O  s               0.1       0.8       0.6       1.0       0.0       0.5
14 O  pz              9.2       2.4       0.1       0.8       2.3       0.4
14 O  px              0.8       0.1       0.0       0.4       1.7       3.6
14 O  py              0.5       2.7       1.7       2.5       0.8       6.0
15 O  s               0.0       0.1       0.0       0.4       0.1       0.7
15 O  pz              0.7       0.0       0.9       0.2       5.1       1.3
15 O  px              0.2       6.4       2.9       1.8       1.4       1.1
15 O  py              0.7       0.3       0.2       0.6       1.3       2.6
16 O  s               0.3       0.4       1.4       0.8       0.2       0.0
16 O  pz              3.3       7.7       1.0       5.6       1.0       1.3
16 O  px              0.7       0.0       1.7       0.1       0.1       0.0
16 O  py              2.6       0.6      16.6       0.6       2.9       1.1
17 H  s               3.8       3.3       0.9       0.4       0.4       1.3
18 H  s               2.5       5.5       0.4       1.8       0.1       1.4
19 H  s               0.0       0.1       0.0       2.4       0.3       0.6
20 H  s               0.0       0.4       0.0       0.3       0.1       0.2
21 H  s               2.7       0.8       0.2       0.2       0.6       0.5
22 H  s               0.4       1.9       0.4       0.3       1.2       0.1
23 H  s               0.4       0.0       0.1       0.1       0.0       0.0

                     36        37        38        39        40        41   
                  -0.33719  -0.31733  -0.31243  -0.29293  -0.28102  -0.25966
                   2.00000   2.00000   2.00000   2.00000   2.00000   2.00000
                  --------  --------  --------  --------  --------  --------
 0 C  s               0.0       0.3       0.1       0.0       0.0       0.3
 0 C  pz              1.0       1.2       0.0       0.2       0.4       0.2
 0 C  px              0.3       1.1       0.4       0.1       0.0       1.3
 0 C  py              0.7       9.8       0.0       1.1       0.1       0.9
 0 C  dz2             0.1       0.1       0.0       0.1       0.1       0.0
 0 C  dxz             0.1       0.0       0.0       0.0       0.0       0.0
 0 C  dx2y2           0.0       0.8       0.0       0.1       0.0       0.0
 1 C  s               0.3       1.4       0.2       0.2       0.1       0.0
 1 C  pz              7.5       1.5       1.4       0.5       0.1       0.2
 1 C  px              0.0       4.8       0.0       2.8       0.3       1.7
 1 C  py              2.5       0.3       0.0       0.1       1.6       0.2
 1 C  dz2             0.2       0.0       0.1       0.0       0.1       0.1
 1 C  dx2y2           0.3       0.1       0.0       0.1       0.0       0.2
 1 C  dxy             0.0       0.0       0.0       0.0       0.1       0.0
 2 H  s               4.5       0.1       1.6       0.0       0.4       0.6
 3 C  s               0.5       0.5       0.1       0.1       0.2       0.0
 3 C  pz             13.0       0.5       1.2       0.2       0.1       0.0
 3 C  px              0.2       0.2       0.1       0.1       1.6       0.1
 3 C  py              1.5       0.5       0.0       0.2       1.4       0.5
 3 C  dz2             0.1       0.0       0.1       0.0       0.1       0.0
 3 C  dx2y2           0.0       0.1       0.0       0.2       0.2       0.0
 4 H  s               5.6       0.1       1.6       0.0       0.4       0.4
 5 C  s               0.2       0.1       0.3       0.0       1.0       0.2
 5 C  pz              0.9       0.1       3.5       0.1       0.1       0.0
 5 C  px              0.5       0.1       0.1       2.5       0.1       0.8
 5 C  py              1.6       0.2       1.2       0.5       2.0       0.0
 5 C  dz2             0.0       0.0       0.1       0.0       0.2       0.0
 5 C  dxz             0.2       0.0       0.0       0.0       0.0       0.0
 5 C  dyz             0.0       0.1       0.3       0.2       0.3       0.0
 6 H  s               1.5       0.8       3.7       0.4       2.9       0.0
[...]
 3 C  dyz             0.0       0.0       0.2       0.7       0.1       0.4
 3 C  dx2y2           0.0       0.0       0.0       0.2       0.0       0.0
 3 C  dxy             0.0       0.1       2.0       6.2       0.4       0.7
 5 C  s               0.0       0.9       0.4       0.4       1.2       0.1
 5 C  pz              0.0       0.7       0.7       0.4       0.8       0.0
 5 C  px              0.0       0.2       0.4       0.0       0.3       0.0
 5 C  py              0.0       0.2       0.2       0.1       0.2       0.0
 5 C  dz2             0.0       1.4       1.7       0.3       0.6       0.1
 5 C  dxz             0.0       0.6       1.1       0.2       2.1       0.1
 5 C  dyz             0.0       1.9       0.7       0.3       0.7       0.2
 5 C  dx2y2           0.0       0.0       0.2       0.3       0.0       0.1
 5 C  dxy             0.0       0.5       0.2       0.2       0.3       0.1
 7 C  s               0.1       1.4       0.0       0.0       1.1       0.0
 7 C  pz              0.1       1.5       0.0       0.0       2.3       0.0
 7 C  px              0.0       0.0       0.0       0.0       0.5       0.0
 7 C  dz2             0.5       6.8       0.1       0.0       5.0       0.1
 7 C  dxz             0.0       0.0       0.1       0.1       0.4       0.1
 7 C  dyz             0.1       0.2       1.2       0.2       0.6       0.0
 8 H  s               0.0       0.1       0.0       0.0       0.1       0.0
 9 C  s               1.2       0.2       0.3       0.3       0.2       1.1
 9 C  pz              0.9       0.1       1.1       0.1       1.1       0.1
 9 C  px              0.0       0.2       0.3       0.2       0.2       2.1
 9 C  py              0.0       0.1       0.1       0.0       0.0       0.2
 9 C  dz2             2.2       1.2       5.0       0.3       3.1       1.4
 9 C  dxz             0.9       0.0       0.1       0.2       0.4       0.6
 9 C  dyz             0.2       0.6       0.0       0.0       0.4       0.1
 9 C  dx2y2           0.1       0.0       0.0       0.6       0.0       3.6
 9 C  dxy             0.4       0.6       0.8       0.1       0.2       0.7
11 O  s               0.5       0.5       0.8       0.1       0.3       0.0
11 O  pz              0.0       0.0       0.0       0.0       0.0       0.3
11 O  px              0.0       0.0       0.0       1.0       0.0       5.3
11 O  py              0.0       0.0       0.1       0.1       0.0       0.3
11 O  dz2             1.2       1.9       3.3       0.1       0.8       0.0
11 O  dxz             0.1       0.9       1.4       0.8       1.6       0.2
11 O  dyz             0.0       0.0       0.0       0.9       0.1       2.5
11 O  dx2y2           3.9       3.4       3.3       0.0       1.2      13.3
11 O  dxy             0.0       0.8       1.1       9.7       0.0      40.9
12 O  s               1.1       0.1       1.1       0.1       1.3       0.0
12 O  pz              1.4       0.2       1.2       0.1       1.1       0.0
12 O  dz2            18.2       1.6      14.4       1.8      11.3       0.2
12 O  dxz             1.2       0.7       2.9       0.1       1.4       0.6
12 O  dyz             0.6       1.0       1.5       0.2       0.0       0.1
12 O  dx2y2           0.1       0.0       0.3       0.1       0.0       0.0
13 O  s               0.2       1.7       0.0       0.0       3.9       0.0
13 O  pz              0.2       2.3       0.0       0.0       2.3       0.0
13 O  py              0.0       0.1       0.0       0.0       0.1       0.0
13 O  dz2             2.5      28.7       0.0       0.2      27.2       0.2
13 O  dxz             0.1       2.6       0.0       0.0       0.0       0.0
13 O  dyz             0.4       1.6       1.5       0.2       0.4       0.4
13 O  dx2y2           0.0       0.2       0.0       0.0       0.0       0.1
14 O  s               0.0       0.9       1.3       0.6       2.1       0.1
14 O  pz              0.0       1.2       0.9       0.5       1.1       0.1
14 O  px              0.0       0.4       0.2       0.2       0.1       0.0
14 O  py              0.0       0.0       0.1       0.0       0.1       0.0
14 O  dz2             0.0       4.8       4.1       1.3       4.7       0.5
14 O  dxz             0.0       8.1       6.5       1.9       4.0       0.5
14 O  dyz             0.0       6.3       6.2       3.5       8.0       0.5
14 O  dx2y2           0.0       0.9       0.0       0.3       0.4       0.1
14 O  dxy             0.0       2.5       2.3       0.6       0.9       0.0
15 O  s               0.0       0.0       0.7       2.9       0.0       0.7
15 O  pz              0.0       0.0       0.0       0.3       0.0       0.0
15 O  px              0.0       0.0       0.8       2.7       0.0       0.3
15 O  py              0.0       0.0       0.3       0.7       0.0       0.2
15 O  dz2             0.1       0.1       1.8       4.3       0.0       1.7
15 O  dxz             0.0       0.0       0.4       3.3       0.0       0.3
15 O  dyz             0.1       0.1       1.0       4.9       0.1       0.2
15 O  dx2y2           0.0       0.0       0.6       0.3       0.0       0.4
15 O  dxy             0.0       0.1      11.4      32.6       0.7       3.7
16 O  s               2.0       0.2       0.2       0.1       0.0       0.0
16 O  pz              0.2       0.0       0.0       0.0       0.0       0.0
16 O  px              2.3       0.2       0.2       0.1       0.0       0.0
16 O  py              0.4       0.0       0.1       0.0       0.0       0.0
16 O  dz2             2.7       0.2       0.4       0.1       0.0       0.1
16 O  dxz             7.8       0.6       0.7       0.2       0.1       0.0
16 O  dyz             4.4       0.3       0.6       0.0       0.0       0.1
16 O  dx2y2           0.4       0.0       0.1       0.1       0.0       0.5
16 O  dxy            26.1       1.9       2.8       0.5       0.3       0.0
19 H  s               0.2       0.0       0.3       0.1       0.1       0.0
20 H  s               0.0       0.4       0.0       0.0       0.2       0.0
21 H  s               0.0       0.3       0.2       0.2       0.1       0.0
22 H  s               0.1       0.0       0.3       0.7       0.0       0.0
23 H  s               0.5       0.0       0.0       0.0       0.0       0.0



                      *****************************
                      * MAYER POPULATION ANALYSIS *
                      *****************************

  NA   - Mulliken gross atomic population
  ZA   - Total nuclear charge
  QA   - Mulliken gross atomic charge
  VA   - Mayer's total valence
  BVA  - Mayer's bonded valence
  FA   - Mayer's free valence

  ATOM       NA         ZA         QA         VA         BVA        FA
  0 C      5.9358     6.0000     0.0642     3.9387     3.9387     0.0000
  1 C      5.9733     6.0000     0.0267     4.0941     4.0941    -0.0000
  2 H      0.9267     1.0000     0.0733     0.9971     0.9971     0.0000
  3 C      5.9467     6.0000     0.0533     4.1335     4.1335     0.0000
  4 H      0.9721     1.0000     0.0279     0.9968     0.9968     0.0000
  5 C      5.8657     6.0000     0.1343     3.9273     3.9273    -0.0000
  6 H      0.9444     1.0000     0.0556     1.0043     1.0043    -0.0000
  7 C      6.0269     6.0000    -0.0269     4.0937     4.0937     0.0000
  8 H      0.9230     1.0000     0.0770     0.9770     0.9770     0.0000
  9 C      5.8089     6.0000     0.1911     4.1620     4.1620     0.0000
 10 H      0.9316     1.0000     0.0684     0.9697     0.9697     0.0000
 11 O      8.3206     8.0000    -0.3206     2.1623     2.1623     0.0000
 12 O      8.4055     8.0000    -0.4055     2.0425     2.0425    -0.0000
 13 O      8.4093     8.0000    -0.4093     1.9884     1.9884     0.0000
 14 O      8.4308     8.0000    -0.4308     2.0079     2.0079     0.0000
 15 O      8.4299     8.0000    -0.4299     2.0148     2.0148    -0.0000
 16 O      8.4411     8.0000    -0.4411     2.0360     2.0360    -0.0000
 17 H      0.9109     1.0000     0.0891     0.9579     0.9579    -0.0000
 18 H      0.9338     1.0000     0.0662     0.9649     0.9649     0.0000
 19 H      0.6909     1.0000     0.3091     0.8922     0.8922    -0.0000
 20 H      0.6894     1.0000     0.3106     0.8774     0.8774     0.0000
 21 H      0.6990     1.0000     0.3010     0.9206     0.9206     0.0000
 22 H      0.6997     1.0000     0.3003     0.9351     0.9351     0.0000
 23 H      0.6838     1.0000     0.3162     0.8708     0.8708    -0.0000

  Mayer bond orders larger than 0.100000
B(  0-C ,  1-C ) :   1.0452 B(  0-C , 16-O ) :   1.0474 B(  0-C , 17-H ) :   0.9171 
B(  0-C , 18-H ) :   0.9065 B(  1-C ,  2-H ) :   0.8632 B(  1-C ,  3-C ) :   1.0836 
B(  1-C , 11-O ) :   0.9678 B(  3-C ,  4-H ) :   0.8515 B(  3-C ,  5-C ) :   0.9926 
B(  3-C , 15-O ) :   1.0906 B(  5-C ,  6-H ) :   0.8609 B(  5-C ,  7-C ) :   0.9880 
B(  5-C , 14-O ) :   1.0504 B(  7-C ,  8-H ) :   0.8893 B(  7-C ,  9-C ) :   1.0271 
B(  7-C , 13-O ) :   1.0394 B(  9-C , 10-H ) :   0.8964 B(  9-C , 11-O ) :   1.0767 
B(  9-C , 12-O ) :   1.1021 B( 12-O , 19-H ) :   0.8378 B( 13-O , 20-H ) :   0.8459 
B( 14-O , 21-H ) :   0.8273 B( 15-O , 22-H ) :   0.8054 B( 16-O , 22-H ) :   0.1062 
B( 16-O , 23-H ) :   0.8413 

-------
TIMINGS
-------

Total SCF time: 0 days 0 hours 0 min 9 sec 

Total time                  ....       9.589 sec
Sum of individual times     ....       9.071 sec  ( 94.6%)

SCF preparation             ....       0.156 sec  (  1.6%)
Fock matrix formation       ....       8.191 sec  ( 85.4%)
  Startup                   ....       0.049 sec  (  0.6% of F)
  Split-RI-J                ....       3.646 sec  ( 44.5% of F)
  XC integration            ....       4.094 sec  ( 50.0% of F)
    Basis function eval.    ....       1.390 sec  ( 34.0% of XC)
    Density eval.           ....       0.788 sec  ( 19.2% of XC)
    XC-Functional eval.     ....       0.285 sec  (  7.0% of XC)
    XC-Potential eval.      ....       1.022 sec  ( 25.0% of XC)
Diagonalization             ....       0.000 sec  (  0.0%)
Density matrix formation    ....       0.153 sec  (  1.6%)
Total Energy calculation    ....       0.026 sec  (  0.3%)
Population analysis         ....       0.113 sec  (  1.2%)
Orbital Transformation      ....       0.051 sec  (  0.5%)
Orbital Orthonormalization  ....       0.000 sec  (  0.0%)
DIIS solution               ....       0.296 sec  (  3.1%)
  MO trafo                  ....       0.000 sec  (  0.0 % of DIIS)
  Orb grad                  ....       0.000 sec  (  0.0 % of DIIS)
  Energy W gradient         ....       0.000 sec  (  0.0 % of DIIS)
  DIIS error                ....       0.006 sec  (  2.0 % of DIIS)
  DIIS work                 ....       0.248 sec  ( 84.0 % of DIIS)
  Form Q                    ....       0.000 sec  (  0.0 % of DIIS)
  Form QpQm                 ....       0.000 sec  (  0.0 % of DIIS)
  Exp/Cayley                ....       0.000 sec  (  0.0 % of DIIS)
  Orb update                ....       0.000 sec  (  0.0 % of DIIS)
  Wake-sleep                ....       0.014 sec  (  4.6 % of DIIS)
SOSCF solution              ....       0.085 sec  (  0.9%)
  MO trafo                  ....       0.045 sec  ( 53.4 % of SOSCF)
  Orb grad                  ....       0.001 sec  (  1.3 % of SOSCF)
  Rot update                ....       0.018 sec  ( 21.6 % of SOSCF)
  Step                      ....       0.020 sec  ( 23.6 % of SOSCF)
Finished LeanSCF after   9.7 sec

Maximum memory used throughout the entire LEANSCF-calculation: 18.3 MB


-------------------------------------------------------------------------------
                          DFT DISPERSION CORRECTION                            
                                                                               
                                DFTD4 V3.4.0                                   
-------------------------------------------------------------------------------
The PBE functional is recognized
Active option DFTDOPT                   ...         5   

-------------------------   ----------------
Dispersion correction           -0.024818566
-------------------------   ----------------

------------------   -----------------
gCP correction             0.156764814
------------------   -----------------

-------------------------   --------------------
FINAL SINGLE POINT ENERGY      -685.693330380635
-------------------------   --------------------


------------------------------------------------------------------------------
                              ORCA PROPERTY CALCULATIONS
------------------------------------------------------------------------------

GBWName                                 ... sp.gbw
Number of atoms                         ...     24
Number of basis functions               ...    192
Max core memory                         ...   1024 MB

Electric properties:
Dipole moment                           ... YES
Quadrupole moment                       ...  NO
Static polarizability (Dipole/Dipole)   ...  NO
Static polarizability (Dipole/Quad.)    ...  NO
Static polarizability (Quad./Quad.)     ...  NO
Static polarizability (Velocity)        ...  NO

Atomic electric properties:
Dipole moment                           ...  NO
Quadrupole moment                       ...  NO
Static polarizability                   ...  NO

Choice of electric origin               ... Center of mass
Position of electric origin             ...    -0.000002    -0.000005     0.000001

General magnetic properties:
Magnetizability                         ...  NO

EPR properties:
g-Tensor (aka g-matrix)                 ...  NO
Zero-Field splitting spin-orbit         ...  NO
Zero-field splitting spin-spin          ...  NO
Hyperfine couplings                     ...  NO (   0 nuclei)
Quadrupole couplings                    ...  NO (   0 nuclei)
Contact density                         ...  NO (   0 nuclei)

NMR properties:
Chemical shifts                         ...  NO (   0 nuclei)
Spin-rotation constants                 ...  NO (   0 nuclei)
Spin-spin couplings                     ...  NO (   0 nuclei,    0 pairs)

Choice of magnetic origin               ... GIAO
Position of magnetic origin             ...     0.000000     0.000000     0.000000

Properties with geometric perturbations:
SCF Hessian                             ...  NO
IR spectrum                             ...  NO
VCD spectrum                            ...  NO
X-ray spectroscopy properties:
SCF XES/XAS/RIXS spectra                ...  NO


-------------
DIPOLE MOMENT
-------------

Method             : SCF
Type of density    : Electron Density
Multiplicity       :   1
Irrep              :   0
Energy             :  -685.8252766291827811 Eh
Relativity type    : 
Basis              : AO
                                X                 Y                 Z
Electronic contribution:      1.541413186       0.555672467       0.153419476
Nuclear contribution   :     -1.949847276      -1.929540188      -0.258979896
                        -----------------------------------------
Total Dipole Moment    :     -0.408434090      -1.373867721      -0.105560420
                        -----------------------------------------
Magnitude (a.u.)       :      1.437175676
Magnitude (Debye)      :      3.653010258



--------------------
Rotational spectrum 
--------------------
 
Rotational constants in cm-1:             0.043356             0.025196             0.021854 
Rotational constants in MHz :          1299.768569           755.371986           655.176077 

Dipole components along the rotational axes: 
x,y,z [a.u.] :    -0.533975     1.284341    -0.361679 
x,y,z [Debye]:    -1.357257     3.264536    -0.919316 

 

Dipole moment calculation done in   0.0 sec 

Maximum memory used throughout the entire PROP-calculation: 11.9 MB

--------------------------------
SUGGESTED CITATIONS FOR THIS RUN
--------------------------------

Below you find a list of papers that are relevant to this ORCA run
We neither can nor want to force you to cite these papers, but we appreciate if you do
You receive ORCA, which is the product of decades of hard work by many enthusiastic individuals, for free
The only thing we kindly ask in return is that you cite our papers,
We deeply appreciate it, if you show your appreciation for ORCA by not just citing the generic ORCA reference.

Please note that relegating all ORCA citations to the supporting information does *not* help us.
SI sections are not indexed - citations you put there will not count into any citation statistics
But we need these citations in order to attract the funding resources that allow us to do what we are doing

Therefore, if you are a happy ORCA user, please consider citing a few of the papers listed below in the main body of your paper

In addition to the list printed below, the program has created the file sp.bibtex that contains the list in bibtex format
You can import this file easily into all common literature databanks and citation aid programs


List of essential papers. We consider these as the minimum necessary citations

  1. Neese,F.
     Software update: the ORCA program system, version 5.0
     WIRES Comput. Molec. Sci., 2022 12(1)e1606
     doi.org/10.1002/wcms.1606

List of papers to cite with high priority. The work reported in these papers was absolutely
necessary for this run to complete.
Our perspective: the developers of density functionals and basis sets usually get cited in chemistry papers
Good! But without the algorithms to do something with them, the functionals or basis sets would not do anything.
Hence, in our opinion, the algorithm design and method developments papers are equally worthy of getting cited

  1. Neese,F.
     An improvement of the resolution of the identity approximation for the formation of the Coulomb matrix
     J. Comp. Chem., 2003 24(14)1740-1747
     doi.org/10.1002/jcc.10318
  2. Neese,F.
     The SHARK Integral Generation and Digestion System
     J. Comp. Chem., 2022  1-16
     doi.org/10.1002/jcc.26942
  3. Caldeweyher,E.; Bannwarth,C.; Grimme,S.
     Extension of the D3 dispersion coefficient model
     J. Chem. Phys., 2017 147 034112-XXXX
     doi.org/10.1063/1.4993215
  4. Caldeweyher,E.; Ehlert,S.; Hansen,A.; Neugebauer,H.; Spicher,S.; Bannwarth,C.; Grimme,S.
     A generally applicable atomic-charge dependent London dispersion correction
     J. Chem. Phys., 2019 150 154122-XXXX
     doi.org/10.1063/1.5090222
  5. Caldeweyher,E.; Mewes,J.; Ehlert,S.; Grimme,S.
     Extension and evaluation of the D4 London-dispersion model for periodic systems
     Phys. Chem. Chem. Phys., 2020 22(16)8499-8512
     doi.org/10.1039/D0CP00502A

List of suggested additional citations. These are papers that are important in the 'surrounding' of 
of this run, or papers that preceded the highly important papers. If you like your results we are grateful for a citation.

  1. Neese,F.
     The ORCA program system
     WIRES Comput. Molec. Sci., 2012 2(1)73-78
     doi.org/10.1002/wcms.81
  2. Neese,F.
     Software update: the ORCA program system, version 4.0
     WIRES Comput. Molec. Sci., 2018 8(1)1-6
     doi.org/10.1002/wcms.1327
  3. Neese,F.; Wennmohs,F.; Becker,U.; Riplinger,C.
     The ORCA quantum chemistry program package
     J. Chem. Phys., 2020 152 Art. No. L224108
     doi.org/10.1063/5.0004608

List of optional additional citations

  1. Neese,F.
     Approximate second-order SCF convergence for spin unrestricted wavefunctions
     Chem. Phys. Lett., 2000 325(1-3)93-98
     doi.org/10.1016/s0009-2614(00)00662-x

Timings for individual modules:

Sum of individual times          ...       11.783 sec (=   0.196 min)
Startup calculation              ...        0.952 sec (=   0.016 min)   8.1 %
SCF iterations                   ...       10.727 sec (=   0.179 min)  91.0 %
Property calculations            ...        0.104 sec (=   0.002 min)   0.9 %
                             ****ORCA TERMINATED NORMALLY****
TOTAL RUN TIME: 0 days 0 hours 0 minutes 12 seconds 455 msec
