      -----------------------------------------------------------      
     |                   =====================                   |     
     |                           x T B                           |     
     |                   =====================                   |     
     |                         S. Grimme                         |     
     |          Mulliken Center for Theoretical Chemistry        |     
     |                    University of Bonn                     |     
      -----------------------------------------------------------      

   * xtb version 6.7.1 (edcfbbe) compiled by 'albert@albert-system' on 2024-07-22

   xtb is free software: you can redistribute it and/or modify it under
   the terms of the GNU Lesser General Public License as published by
   the Free Software Foundation, either version 3 of the License, or
   (at your option) any later version.
   
   xtb is distributed in the hope that it will be useful,
   but WITHOUT ANY WARRANTY; without even the implied warranty of
   MERCHANTABILITY or FITNESS FOR A PARTICULAR PURPOSE.  See the
   GNU Lesser General Public License for more details.
   
   Cite this work as:
   * C. Bannwarth, E. Caldeweyher, S. Ehlert, A. Hansen, P. Pracht,
     J. Seibert, S. Spicher, S. Grimme, WIREs Comput. Mol. Sci., 2020, 11,
     e01493. DOI: 10.1002/wcms.1493
   
   for GFN2-xTB:
   * C. Bannwarth, S. Ehlert and S. Grimme., J. Chem. Theory Comput., 2019,
     15, 1652-1671. DOI: 10.1021/acs.jctc.8b01176
   for GFN1-xTB:
   * S. Grimme, C. Bannwarth, P. Shushkov, J. Chem. Theory Comput., 2017,
     13, 1989-2009. DOI: 10.1021/acs.jctc.7b00118
   for GFN0-xTB:
   * P. Pracht, E. Caldeweyher, S. Ehlert, S. Grimme, ChemRxiv, 2019, preprint.
     DOI: 10.26434/chemrxiv.8326202.v1
   for GFN-FF:
   * S. Spicher and S. Grimme, Angew. Chem. Int. Ed., 2020, 59, 15665-15673.
     DOI: 10.1002/anie.202004239
   
   for ALPB and GBSA implicit solvation:
   * S. Ehlert, M. Stahn, S. Spicher, S. Grimme, J. Chem. Theory Comput.,
     2021, 17, 4250-4261. DOI: 10.1021/acs.jctc.1c00471
   
   for ddCOSMO and CPCM-X implicit solvation:
   * M. Stahn, S. Ehlert, S. Grimme, J. Phys. Chem. A,
     2023, XX, XXXX-XXXX. DOI: 10.1021/acs.jpca.3c04382
   
   for DFT-D4:
   * E. Caldeweyher, C. Bannwarth and S. Grimme, J. Chem. Phys., 2017,
     147, 034112. DOI: 10.1063/1.4993215
   * E. Caldeweyher, S. Ehlert, A. Hansen, H. Neugebauer, S. Spicher,
     C. Bannwarth and S. Grimme, J. Chem. Phys., 2019, 150, 154122.
     DOI: 10.1063/1.5090222
   * E. Caldeweyher, J.-M. Mewes, S. Ehlert and S. Grimme, Phys. Chem. Chem. Phys.
     2020, 22, 8499-8512. DOI: 10.1039/D0CP00502A
   
   for sTDA-xTB:
   * S. Grimme and C. Bannwarth, J. Chem. Phys., 2016, 145, 054103.
     DOI: 10.1063/1.4959605
   
   in the mass-spec context:
   * V. Asgeirsson, C. Bauer and S. Grimme, Chem. Sci., 2017, 8, 4879.
     DOI: 10.1039/c7sc00601b
   * J. Koopman and S. Grimme, ACS Omega 2019, 4, 12, 15120-15133.
     DOI: 10.1021/acsomega.9b02011
   
   for metadynamics refer to:
   * S. Grimme, J. Chem. Theory Comput., 2019, 155, 2847-2862
     DOI: 10.1021/acs.jctc.9b00143
   
   for SPH calculations refer to:
   * S. Spicher and S. Grimme, J. Chem. Theory Comput., 2021, 17, 1701-1714
     DOI: 10.1021/acs.jctc.0c01306
   
   for ONIOM refer to:
   * C. Plett, A. Katbashev, S. Ehlert, S. Grimme, M. Bursch,
     Phys. Chem. Chem. Phys., 2023, 25, 17860-17868. DOI: 10.1039/D3CP02178E
   
   for DIPRO refer to:
   * J. Kohn, N. Gildemeister, S. Grimme, D. Fazzi, A. Hansen,
     J. Chem. Phys., 2023, just accepted.
   
   for PTB refer to:
   * S. Grimme, M. Mueller, A. Hansen, J. Chem. Phys., 2023, 158, 124111.
     DOI: 10.1063/5.0137838
   
   with help from (in alphabetical order)
   P. Atkinson, C. Bannwarth, F. Bohle, G. Brandenburg, E. Caldeweyher
   M. Checinski, S. Dohm, S. Ehlert, S. Ehrlich, I. Gerasimov, C. Hölzer
   A. Katbashev, J. Kohn, J. Koopman, C. Lavigne, S. Lehtola, F. März, M. Müller,
   F. Musil, H. Neugebauer, J. Pisarek, C. Plett, P. Pracht, F. Pultar,
   J. Seibert, P. Shushkov, S. Spicher, M. Stahn, M. Steiner, T. Strunk,
   J. Stückrath, T. Rose, and J. Unsleber
   
 * started run on 2025/04/05 at 18:53:39.621     
   ID    Z sym.   atoms
    1    6 C      1, 2, 4-9
    2    8 O      3
    3    1 H      10-23

           -------------------------------------------------
          |                Calculation Setup                |
           -------------------------------------------------

          program call               : /srv/scratch/z5358697/.xtb/bin/xtb gas.coord --gfn2 --sp --chrg 0 --norestart --parallel 1
          hostname                   : k140
          coordinate file            : gas.coord
          omp threads                :                     1


           -------------------------------------------------
          |                 G F N 2 - x T B                 |
           -------------------------------------------------

        Reference                      10.1021/acs.jctc.8b01176
      * Hamiltonian:
        H0-scaling (s, p, d)           1.850000    2.230000    2.230000
        zeta-weighting                 0.500000
      * Dispersion:
        s8                             2.700000
        a1                             0.520000
        a2                             5.000000
        s9                             5.000000
      * Repulsion:
        kExp                           1.500000    1.000000
        rExp                           1.000000
      * Coulomb:
        alpha                          2.000000
        third order                    shell-resolved
        anisotropic                    true
        a3                             3.000000
        a5                             4.000000
        cn-shift                       1.200000
        cn-exp                         4.000000
        max-rad                        5.000000


          ...................................................
          :                      SETUP                      :
          :.................................................:
          :  # basis functions                  50          :
          :  # atomic orbitals                  50          :
          :  # shells                           32          :
          :  # electrons                        52          :
          :  max. iterations                   250          :
          :  Hamiltonian                  GFN2-xTB          :
          :  restarted?                      false          :
          :  GBSA solvation                  false          :
          :  PC potential                    false          :
          :  electronic temp.          300.0000000     K    :
          :  accuracy                    1.0000000          :
          :  -> integral cutoff          0.2500000E+02      :
          :  -> integral neglect         0.1000000E-07      :
          :  -> SCF convergence          0.1000000E-05 Eh   :
          :  -> wf. convergence          0.1000000E-03 e    :
          :  Broyden damping             0.4000000          :
          :  net charge                          0          :
          :  unpaired electrons                  0          :
          ...................................................

 iter      E             dE          RMSdq      gap      omega  full diag
   1    -28.6489797 -0.286490E+02  0.345E+00    4.58       0.0  T
   2    -28.7180364 -0.690567E-01  0.180E+00    3.59       1.0  T
   3    -28.7242129 -0.617645E-02  0.117E+00    4.08       1.0  T
   4    -28.7283895 -0.417668E-02  0.193E-01    3.78       1.0  T
   5    -28.7287034 -0.313829E-03  0.794E-02    3.85       1.0  T
   6    -28.7287260 -0.226101E-04  0.274E-02    3.84       1.0  T
   7    -28.7287264 -0.383874E-06  0.533E-03    3.84       3.9  T
   8    -28.7287266 -0.189618E-06  0.198E-03    3.84      10.5  T
   9    -28.7287266 -0.835957E-09  0.794E-04    3.84      26.2  T
  10    -28.7287266 -0.479833E-08  0.230E-04    3.84      90.6  T

   *** convergence criteria satisfied after 10 iterations ***

         #    Occupation            Energy/Eh            Energy/eV
      -------------------------------------------------------------
         1        2.0000           -0.7023520             -19.1120
       ...           ...                  ...                  ...
        20        2.0000           -0.4651068             -12.6562
        21        2.0000           -0.4461468             -12.1403
        22        2.0000           -0.4442138             -12.0877
        23        2.0000           -0.4324483             -11.7675
        24        2.0000           -0.4255135             -11.5788
        25        2.0000           -0.4183927             -11.3850
        26        2.0000           -0.3884266             -10.5696 (HOMO)
        27                         -0.2474060              -6.7323 (LUMO)
        28                          0.0519234               1.4129
        29                          0.0787174               2.1420
        30                          0.0860938               2.3427
        31                          0.0945197               2.5720
       ...                                ...                  ...
        50                          0.5900572              16.0563
      -------------------------------------------------------------
                  HL-Gap            0.1410206 Eh            3.8374 eV
             Fermi-level           -0.3179163 Eh           -8.6509 eV

 SCC (total)                   0 d,  0 h,  0 min,  0.026 sec
 SCC setup                      ...        0 min,  0.000 sec (  0.565%)
 Dispersion                     ...        0 min,  0.000 sec (  0.442%)
 classical contributions        ...        0 min,  0.000 sec (  0.081%)
 integral evaluation            ...        0 min,  0.002 sec (  6.337%)
 iterations                     ...        0 min,  0.019 sec ( 74.361%)
 molecular gradient             ...        0 min,  0.005 sec ( 17.759%)
 printout                       ...        0 min,  0.000 sec (  0.412%)

         :::::::::::::::::::::::::::::::::::::::::::::::::::::
         ::                     SUMMARY                     ::
         :::::::::::::::::::::::::::::::::::::::::::::::::::::
         :: total energy             -28.347814212493 Eh    ::
         :: gradient norm              0.024350566792 Eh/a0 ::
         :: HOMO-LUMO gap              3.837365513383 eV    ::
         ::.................................................::
         :: SCC energy               -28.728637941424 Eh    ::
         :: -> isotropic ES            0.029605027988 Eh    ::
         :: -> anisotropic ES          0.004724074891 Eh    ::
         :: -> anisotropic XC          0.012849119712 Eh    ::
         :: -> dispersion             -0.016864048290 Eh    ::
         :: repulsion energy           0.380823728932 Eh    ::
         :: add. restraining           0.000000000000 Eh    ::
         :: total charge              -0.000000000000 e     ::
         :::::::::::::::::::::::::::::::::::::::::::::::::::::

           -------------------------------------------------
          |                Property Printout                |
           -------------------------------------------------

    * Orbital Energies and Occupations

         #    Occupation            Energy/Eh            Energy/eV
      -------------------------------------------------------------
         1        2.0000           -0.7023520             -19.1120
       ...           ...                  ...                  ...
        14        2.0000           -0.5036768             -13.7057
        15        2.0000           -0.5012576             -13.6399
        16        2.0000           -0.4889189             -13.3042
        17        2.0000           -0.4787039             -13.0262
        18        2.0000           -0.4724745             -12.8567
        19        2.0000           -0.4711110             -12.8196
        20        2.0000           -0.4651068             -12.6562
        21        2.0000           -0.4461468             -12.1403
        22        2.0000           -0.4442138             -12.0877
        23        2.0000           -0.4324483             -11.7675
        24        2.0000           -0.4255135             -11.5788
        25        2.0000           -0.4183927             -11.3850
        26        2.0000           -0.3884266             -10.5696 (HOMO)
        27                         -0.2474060              -6.7323 (LUMO)
        28                          0.0519234               1.4129
        29                          0.0787174               2.1420
        30                          0.0860938               2.3427
        31                          0.0945197               2.5720
        32                          0.1030871               2.8051
        33                          0.1079729               2.9381
        34                          0.1238950               3.3714
        35                          0.1544902               4.2039
        36                          0.1645581               4.4779
        37                          0.1731835               4.7126
       ...                                ...                  ...
        50                          0.5900572              16.0563
      -------------------------------------------------------------
                  HL-Gap            0.1410206 Eh            3.8374 eV
             Fermi-level           -0.3179163 Eh           -8.6509 eV

     #   Z          covCN         q      C6AA      α(0)
     1   6 C        3.754    -0.137    23.187     6.866
     2   6 C        2.814     0.234    23.105     7.875
     3   8 O        0.857    -0.372    21.135     6.164
     4   6 C        3.856    -0.042    21.294     6.563
     5   6 C        3.806    -0.061    21.670     6.627
     6   6 C        3.806    -0.055    21.559     6.610
     7   6 C        3.805    -0.057    21.591     6.615
     8   6 C        3.805    -0.056    21.586     6.614
     9   6 C        3.809    -0.053    21.514     6.602
    10   1 H        0.925     0.068     2.102     2.267
    11   1 H        0.925     0.065     2.145     2.290
    12   1 H        0.925     0.067     2.116     2.275
    13   1 H        0.923     0.061     2.189     2.314
    14   1 H        0.924     0.035     2.512     2.479
    15   1 H        0.925     0.031     2.575     2.509
    16   1 H        0.924     0.029     2.595     2.519
    17   1 H        0.924     0.032     2.558     2.501
    18   1 H        0.924     0.033     2.547     2.496
    19   1 H        0.924     0.029     2.601     2.522
    20   1 H        0.924     0.032     2.562     2.503
    21   1 H        0.924     0.033     2.539     2.492
    22   1 H        0.924     0.033     2.544     2.494
    23   1 H        0.924     0.051     2.310     2.377

 Mol. C6AA /au·bohr⁶  :       4057.679691
 Mol. C8AA /au·bohr⁸  :      88371.258823
 Mol. α(0) /au        :         94.575151


Wiberg/Mayer (AO) data.
largest (>0.10) Wiberg bond orders for each atom

 ---------------------------------------------------------------------------
     #   Z sym  total        # sym  WBO       # sym  WBO       # sym  WBO
 ---------------------------------------------------------------------------
     1   6 C    3.995 --     2 C    1.014    10 H    0.982    12 H    0.958
                            11 H    0.958
     2   6 C    3.916 --     3 O    1.850     1 C    1.014     4 C    0.978
     3   8 O    2.056 --     2 C    1.850
     4   6 C    3.994 --     5 C    1.000     9 C    0.978     2 C    0.978
                            13 H    0.934
     5   6 C    3.998 --     6 C    1.006     4 C    1.000    14 H    0.975
                            15 H    0.975
     6   6 C    3.998 --     7 C    1.009     5 C    1.006    16 H    0.978
                            17 H    0.978
     7   6 C    3.998 --     6 C    1.009     8 C    1.009    19 H    0.978
                            18 H    0.977
     8   6 C    3.998 --     7 C    1.009     9 C    1.008    21 H    0.977
                            20 H    0.976
     9   6 C    3.995 --     8 C    1.008     4 C    0.978    22 H    0.977
                            23 H    0.974
    10   1 H    0.995 --     1 C    0.982
    11   1 H    0.996 --     1 C    0.958
    12   1 H    0.995 --     1 C    0.958
    13   1 H    0.996 --     4 C    0.934
    14   1 H    0.999 --     5 C    0.975
    15   1 H    0.999 --     5 C    0.975
    16   1 H    0.999 --     6 C    0.978
    17   1 H    0.999 --     6 C    0.978
    18   1 H    0.999 --     7 C    0.977
    19   1 H    0.999 --     7 C    0.978
    20   1 H    0.999 --     8 C    0.976
    21   1 H    0.999 --     8 C    0.977
    22   1 H    0.999 --     9 C    0.977
    23   1 H    0.997 --     9 C    0.974
 ---------------------------------------------------------------------------

Topologies differ in total number of bonds
Writing topology from bond orders to xtbtopo.mol

molecular dipole:
                 x           y           z       tot (Debye)
 q only:        0.622       0.939      -0.096
   full:        0.685       1.128      -0.094       3.361
molecular quadrupole (traceless):
                xx          xy          yy          xz          yz          zz
 q only:       -1.918      -7.258       0.101       1.160       0.114       1.817
  q+dip:       -3.441      -8.476      -0.968       1.288      -0.027       4.409
   full:       -3.305      -8.606      -0.982       1.061       0.320       4.287


           -------------------------------------------------
          | TOTAL ENERGY              -28.347814212493 Eh   |
          | GRADIENT NORM               0.024350566792 Eh/α |
          | HOMO-LUMO GAP               3.837365513383 eV   |
           -------------------------------------------------

------------------------------------------------------------------------
 * finished run on 2025/04/05 at 18:53:39.685     
------------------------------------------------------------------------
 total:
 * wall-time:     0 d,  0 h,  0 min,  0.063 sec
 *  cpu-time:     0 d,  0 h,  0 min,  0.021 sec
 * ratio c/w:     0.327 speedup
 SCF:
 * wall-time:     0 d,  0 h,  0 min,  0.026 sec
 *  cpu-time:     0 d,  0 h,  0 min,  0.013 sec
 * ratio c/w:     0.514 speedup

