      -----------------------------------------------------------      
     |                   =====================                   |     
     |                           x T B                           |     
     |                   =====================                   |     
     |                         S. Grimme                         |     
     |          Mulliken Center for Theoretical Chemistry        |     
     |                    University of Bonn                     |     
      -----------------------------------------------------------      

   * xtb version 6.7.1 (edcfbbe) compiled by 'albert@albert-system' on 2024-07-22

   xtb is free software: you can redistribute it and/or modify it under
   the terms of the GNU Lesser General Public License as published by
   the Free Software Foundation, either version 3 of the License, or
   (at your option) any later version.
   
   xtb is distributed in the hope that it will be useful,
   but WITHOUT ANY WARRANTY; without even the implied warranty of
   MERCHANTABILITY or FITNESS FOR A PARTICULAR PURPOSE.  See the
   GNU Lesser General Public License for more details.
   
   Cite this work as:
   * C. Bannwarth, E. Caldeweyher, S. Ehlert, A. Hansen, P. Pracht,
     J. Seibert, S. Spicher, S. Grimme, WIREs Comput. Mol. Sci., 2020, 11,
     e01493. DOI: 10.1002/wcms.1493
   
   for GFN2-xTB:
   * C. Bannwarth, S. Ehlert and S. Grimme., J. Chem. Theory Comput., 2019,
     15, 1652-1671. DOI: 10.1021/acs.jctc.8b01176
   for GFN1-xTB:
   * S. Grimme, C. Bannwarth, P. Shushkov, J. Chem. Theory Comput., 2017,
     13, 1989-2009. DOI: 10.1021/acs.jctc.7b00118
   for GFN0-xTB:
   * P. Pracht, E. Caldeweyher, S. Ehlert, S. Grimme, ChemRxiv, 2019, preprint.
     DOI: 10.26434/chemrxiv.8326202.v1
   for GFN-FF:
   * S. Spicher and S. Grimme, Angew. Chem. Int. Ed., 2020, 59, 15665-15673.
     DOI: 10.1002/anie.202004239
   
   for ALPB and GBSA implicit solvation:
   * S. Ehlert, M. Stahn, S. Spicher, S. Grimme, J. Chem. Theory Comput.,
     2021, 17, 4250-4261. DOI: 10.1021/acs.jctc.1c00471
   
   for ddCOSMO and CPCM-X implicit solvation:
   * M. Stahn, S. Ehlert, S. Grimme, J. Phys. Chem. A,
     2023, XX, XXXX-XXXX. DOI: 10.1021/acs.jpca.3c04382
   
   for DFT-D4:
   * E. Caldeweyher, C. Bannwarth and S. Grimme, J. Chem. Phys., 2017,
     147, 034112. DOI: 10.1063/1.4993215
   * E. Caldeweyher, S. Ehlert, A. Hansen, H. Neugebauer, S. Spicher,
     C. Bannwarth and S. Grimme, J. Chem. Phys., 2019, 150, 154122.
     DOI: 10.1063/1.5090222
   * E. Caldeweyher, J.-M. Mewes, S. Ehlert and S. Grimme, Phys. Chem. Chem. Phys.
     2020, 22, 8499-8512. DOI: 10.1039/D0CP00502A
   
   for sTDA-xTB:
   * S. Grimme and C. Bannwarth, J. Chem. Phys., 2016, 145, 054103.
     DOI: 10.1063/1.4959605
   
   in the mass-spec context:
   * V. Asgeirsson, C. Bauer and S. Grimme, Chem. Sci., 2017, 8, 4879.
     DOI: 10.1039/c7sc00601b
   * J. Koopman and S. Grimme, ACS Omega 2019, 4, 12, 15120-15133.
     DOI: 10.1021/acsomega.9b02011
   
   for metadynamics refer to:
   * S. Grimme, J. Chem. Theory Comput., 2019, 155, 2847-2862
     DOI: 10.1021/acs.jctc.9b00143
   
   for SPH calculations refer to:
   * S. Spicher and S. Grimme, J. Chem. Theory Comput., 2021, 17, 1701-1714
     DOI: 10.1021/acs.jctc.0c01306
   
   for ONIOM refer to:
   * C. Plett, A. Katbashev, S. Ehlert, S. Grimme, M. Bursch,
     Phys. Chem. Chem. Phys., 2023, 25, 17860-17868. DOI: 10.1039/D3CP02178E
   
   for DIPRO refer to:
   * J. Kohn, N. Gildemeister, S. Grimme, D. Fazzi, A. Hansen,
     J. Chem. Phys., 2023, just accepted.
   
   for PTB refer to:
   * S. Grimme, M. Mueller, A. Hansen, J. Chem. Phys., 2023, 158, 124111.
     DOI: 10.1063/5.0137838
   
   with help from (in alphabetical order)
   P. Atkinson, C. Bannwarth, F. Bohle, G. Brandenburg, E. Caldeweyher
   M. Checinski, S. Dohm, S. Ehlert, S. Ehrlich, I. Gerasimov, C. Hölzer
   A. Katbashev, J. Kohn, J. Koopman, C. Lavigne, S. Lehtola, F. März, M. Müller,
   F. Musil, H. Neugebauer, J. Pisarek, C. Plett, P. Pracht, F. Pultar,
   J. Seibert, P. Shushkov, S. Spicher, M. Stahn, M. Steiner, T. Strunk,
   J. Stückrath, T. Rose, and J. Unsleber
   
 * started run on 2025/04/03 at 21:08:16.054     
   ID    Z sym.   atoms
    1    6 C      1-6
    2    1 H      7-18

           -------------------------------------------------
          |                Calculation Setup                |
           -------------------------------------------------

          program call               : /srv/scratch/z5358697/.xtb/bin/xtb gas.coord --gfn2 --sp --chrg 0 --norestart --parallel 1
          hostname                   : k161
          coordinate file            : gas.coord
          omp threads                :                     1


           -------------------------------------------------
          |                 G F N 2 - x T B                 |
           -------------------------------------------------

        Reference                      10.1021/acs.jctc.8b01176
      * Hamiltonian:
        H0-scaling (s, p, d)           1.850000    2.230000    2.230000
        zeta-weighting                 0.500000
      * Dispersion:
        s8                             2.700000
        a1                             0.520000
        a2                             5.000000
        s9                             5.000000
      * Repulsion:
        kExp                           1.500000    1.000000
        rExp                           1.000000
      * Coulomb:
        alpha                          2.000000
        third order                    shell-resolved
        anisotropic                    true
        a3                             3.000000
        a5                             4.000000
        cn-shift                       1.200000
        cn-exp                         4.000000
        max-rad                        5.000000


          ...................................................
          :                      SETUP                      :
          :.................................................:
          :  # basis functions                  36          :
          :  # atomic orbitals                  36          :
          :  # shells                           24          :
          :  # electrons                        36          :
          :  max. iterations                   250          :
          :  Hamiltonian                  GFN2-xTB          :
          :  restarted?                      false          :
          :  GBSA solvation                  false          :
          :  PC potential                    false          :
          :  electronic temp.          300.0000000     K    :
          :  accuracy                    1.0000000          :
          :  -> integral cutoff          0.2500000E+02      :
          :  -> integral neglect         0.1000000E-07      :
          :  -> SCF convergence          0.1000000E-05 Eh   :
          :  -> wf. convergence          0.1000000E-03 e    :
          :  Broyden damping             0.4000000          :
          :  net charge                          0          :
          :  unpaired electrons                  0          :
          ...................................................

 iter      E             dE          RMSdq      gap      omega  full diag
   1    -19.2144741 -0.192145E+02  0.249E+00   13.37       0.0  T
   2    -19.2627644 -0.482903E-01  0.142E+00   12.99       1.0  T
   3    -19.2632821 -0.517661E-03  0.742E-01   12.99       1.0  T
   4    -19.2633917 -0.109686E-03  0.107E-01   12.98       1.0  T
   5    -19.2634436 -0.518536E-04  0.527E-02   12.98       1.0  T
   6    -19.2634441 -0.469503E-06  0.667E-03   12.98       3.5  T
   7    -19.2634442 -0.180448E-06  0.175E-03   12.98      13.5  T
   8    -19.2634443 -0.498088E-08  0.330E-04   12.98      71.4  T
   9    -19.2634443 -0.371372E-09  0.118E-04   12.98     199.9  T

   *** convergence criteria satisfied after 9 iterations ***

         #    Occupation            Energy/Eh            Energy/eV
      -------------------------------------------------------------
         1        2.0000           -0.6328438             -17.2206
       ...           ...                  ...                  ...
        12        2.0000           -0.4612794             -12.5521
        13        2.0000           -0.4365959             -11.8804
        14        2.0000           -0.4348325             -11.8324
        15        2.0000           -0.4275361             -11.6339
        16        2.0000           -0.4245849             -11.5535
        17        2.0000           -0.4189487             -11.4002
        18        2.0000           -0.4139232             -11.2634 (HOMO)
        19                          0.0631126               1.7174 (LUMO)
        20                          0.0710332               1.9329
        21                          0.0808109               2.1990
        22                          0.1179191               3.2087
        23                          0.1321308               3.5955
       ...                                ...                  ...
        36                          0.3485955               9.4858
      -------------------------------------------------------------
                  HL-Gap            0.4770358 Eh           12.9808 eV
             Fermi-level           -0.1754053 Eh           -4.7730 eV

 SCC (total)                   0 d,  0 h,  0 min,  0.019 sec
 SCC setup                      ...        0 min,  0.000 sec (  0.672%)
 Dispersion                     ...        0 min,  0.000 sec (  0.338%)
 classical contributions        ...        0 min,  0.000 sec (  0.081%)
 integral evaluation            ...        0 min,  0.001 sec (  4.441%)
 iterations                     ...        0 min,  0.015 sec ( 79.694%)
 molecular gradient             ...        0 min,  0.003 sec ( 14.104%)
 printout                       ...        0 min,  0.000 sec (  0.596%)

         :::::::::::::::::::::::::::::::::::::::::::::::::::::
         ::                     SUMMARY                     ::
         :::::::::::::::::::::::::::::::::::::::::::::::::::::
         :: total energy             -18.981423276162 Eh    ::
         :: gradient norm              0.001111037186 Eh/a0 ::
         :: HOMO-LUMO gap             12.980805191143 eV    ::
         ::.................................................::
         :: SCC energy               -19.263414613456 Eh    ::
         :: -> isotropic ES            0.003101288984 Eh    ::
         :: -> anisotropic ES          0.005207891148 Eh    ::
         :: -> anisotropic XC          0.011430192325 Eh    ::
         :: -> dispersion             -0.010991044437 Eh    ::
         :: repulsion energy           0.281991337295 Eh    ::
         :: add. restraining           0.000000000000 Eh    ::
         :: total charge               0.000000000000 e     ::
         :::::::::::::::::::::::::::::::::::::::::::::::::::::

           -------------------------------------------------
          |                Property Printout                |
           -------------------------------------------------

    * Orbital Energies and Occupations

         #    Occupation            Energy/Eh            Energy/eV
      -------------------------------------------------------------
         1        2.0000           -0.6328438             -17.2206
       ...           ...                  ...                  ...
         6        2.0000           -0.5429624             -14.7748
         7        2.0000           -0.5220237             -14.2050
         8        2.0000           -0.5117731             -13.9261
         9        2.0000           -0.4879067             -13.2766
        10        2.0000           -0.4830355             -13.1441
        11        2.0000           -0.4709318             -12.8147
        12        2.0000           -0.4612794             -12.5521
        13        2.0000           -0.4365959             -11.8804
        14        2.0000           -0.4348325             -11.8324
        15        2.0000           -0.4275361             -11.6339
        16        2.0000           -0.4245849             -11.5535
        17        2.0000           -0.4189487             -11.4002
        18        2.0000           -0.4139232             -11.2634 (HOMO)
        19                          0.0631126               1.7174 (LUMO)
        20                          0.0710332               1.9329
        21                          0.0808109               2.1990
        22                          0.1179191               3.2087
        23                          0.1321308               3.5955
        24                          0.1421796               3.8689
        25                          0.1614886               4.3943
        26                          0.1709932               4.6530
        27                          0.1799764               4.8974
        28                          0.1901953               5.1755
        29                          0.2018341               5.4922
       ...                                ...                  ...
        36                          0.3485955               9.4858
      -------------------------------------------------------------
                  HL-Gap            0.4770358 Eh           12.9808 eV
             Fermi-level           -0.1754053 Eh           -4.7730 eV

     #   Z          covCN         q      C6AA      α(0)
     1   6 C        3.753    -0.104    22.538     6.770
     2   6 C        3.864    -0.015    20.800     6.486
     3   6 C        3.827    -0.062    21.669     6.624
     4   6 C        3.828    -0.055    21.539     6.604
     5   6 C        3.827    -0.055    21.547     6.605
     6   6 C        3.826    -0.062    21.675     6.625
     7   1 H        0.925     0.036     2.498     2.472
     8   1 H        0.925     0.031     2.566     2.505
     9   1 H        0.925     0.032     2.563     2.504
    10   1 H        0.924     0.024     2.679     2.560
    11   1 H        0.924     0.028     2.621     2.532
    12   1 H        0.925     0.031     2.566     2.505
    13   1 H        0.925     0.025     2.654     2.548
    14   1 H        0.924     0.031     2.576     2.510
    15   1 H        0.924     0.029     2.597     2.520
    16   1 H        0.925     0.026     2.644     2.543
    17   1 H        0.925     0.026     2.650     2.546
    18   1 H        0.924     0.034     2.530     2.487

 Mol. C6AA /au·bohr⁶  :       2224.046667
 Mol. C8AA /au·bohr⁸  :      47074.330724
 Mol. α(0) /au        :         69.942958


Wiberg/Mayer (AO) data.
largest (>0.10) Wiberg bond orders for each atom

 ---------------------------------------------------------------------------
     #   Z sym  total        # sym  WBO       # sym  WBO       # sym  WBO
 ---------------------------------------------------------------------------
     1   6 C    3.997 --     2 C    1.014     8 H    0.987     9 H    0.987
                             7 H    0.987
     2   6 C    3.996 --     1 C    1.014     6 C    0.992     3 C    0.991
                            10 H    0.976
     3   6 C    3.997 --     4 C    1.008     2 C    0.991    11 H    0.982
                            12 H    0.980
     4   6 C    3.998 --     5 C    1.008     3 C    1.008    14 H    0.980
                            13 H    0.980
     5   6 C    3.998 --     4 C    1.008     6 C    1.007    15 H    0.981
                            16 H    0.980
     6   6 C    3.997 --     5 C    1.007     2 C    0.992    17 H    0.982
                            18 H    0.980
     7   1 H    0.999 --     1 C    0.987
     8   1 H    0.999 --     1 C    0.987
     9   1 H    0.999 --     1 C    0.987
    10   1 H    0.999 --     2 C    0.976
    11   1 H    0.999 --     3 C    0.982
    12   1 H    0.999 --     3 C    0.980
    13   1 H    0.999 --     4 C    0.980
    14   1 H    0.999 --     4 C    0.980
    15   1 H    0.999 --     5 C    0.981
    16   1 H    0.999 --     5 C    0.980
    17   1 H    0.999 --     6 C    0.982
    18   1 H    0.999 --     6 C    0.980
 ---------------------------------------------------------------------------

Topologies differ in total number of bonds
Writing topology from bond orders to xtbtopo.mol

molecular dipole:
                 x           y           z       tot (Debye)
 q only:       -0.016      -0.005      -0.033
   full:       -0.019      -0.002      -0.025       0.080
molecular quadrupole (traceless):
                xx          xy          yy          xz          yz          zz
 q only:        0.040       0.024       0.029       0.085      -0.019      -0.069
  q+dip:       -0.904      -0.069      -0.460       0.294      -0.118       1.364
   full:       -0.437      -0.034      -0.240       0.200      -0.079       0.678


           -------------------------------------------------
          | TOTAL ENERGY              -18.981423276162 Eh   |
          | GRADIENT NORM               0.001111037186 Eh/α |
          | HOMO-LUMO GAP              12.980805191143 eV   |
           -------------------------------------------------

------------------------------------------------------------------------
 * finished run on 2025/04/03 at 21:08:16.099     
------------------------------------------------------------------------
 total:
 * wall-time:     0 d,  0 h,  0 min,  0.045 sec
 *  cpu-time:     0 d,  0 h,  0 min,  0.012 sec
 * ratio c/w:     0.275 speedup
 SCF:
 * wall-time:     0 d,  0 h,  0 min,  0.019 sec
 *  cpu-time:     0 d,  0 h,  0 min,  0.007 sec
 * ratio c/w:     0.386 speedup

