      -----------------------------------------------------------      
     |                   =====================                   |     
     |                           x T B                           |     
     |                   =====================                   |     
     |                         S. Grimme                         |     
     |          Mulliken Center for Theoretical Chemistry        |     
     |                    University of Bonn                     |     
      -----------------------------------------------------------      

   * xtb version 6.7.1 (edcfbbe) compiled by 'albert@albert-system' on 2024-07-22

   xtb is free software: you can redistribute it and/or modify it under
   the terms of the GNU Lesser General Public License as published by
   the Free Software Foundation, either version 3 of the License, or
   (at your option) any later version.
   
   xtb is distributed in the hope that it will be useful,
   but WITHOUT ANY WARRANTY; without even the implied warranty of
   MERCHANTABILITY or FITNESS FOR A PARTICULAR PURPOSE.  See the
   GNU Lesser General Public License for more details.
   
   Cite this work as:
   * C. Bannwarth, E. Caldeweyher, S. Ehlert, A. Hansen, P. Pracht,
     J. Seibert, S. Spicher, S. Grimme, WIREs Comput. Mol. Sci., 2020, 11,
     e01493. DOI: 10.1002/wcms.1493
   
   for GFN2-xTB:
   * C. Bannwarth, S. Ehlert and S. Grimme., J. Chem. Theory Comput., 2019,
     15, 1652-1671. DOI: 10.1021/acs.jctc.8b01176
   for GFN1-xTB:
   * S. Grimme, C. Bannwarth, P. Shushkov, J. Chem. Theory Comput., 2017,
     13, 1989-2009. DOI: 10.1021/acs.jctc.7b00118
   for GFN0-xTB:
   * P. Pracht, E. Caldeweyher, S. Ehlert, S. Grimme, ChemRxiv, 2019, preprint.
     DOI: 10.26434/chemrxiv.8326202.v1
   for GFN-FF:
   * S. Spicher and S. Grimme, Angew. Chem. Int. Ed., 2020, 59, 15665-15673.
     DOI: 10.1002/anie.202004239
   
   for ALPB and GBSA implicit solvation:
   * S. Ehlert, M. Stahn, S. Spicher, S. Grimme, J. Chem. Theory Comput.,
     2021, 17, 4250-4261. DOI: 10.1021/acs.jctc.1c00471
   
   for ddCOSMO and CPCM-X implicit solvation:
   * M. Stahn, S. Ehlert, S. Grimme, J. Phys. Chem. A,
     2023, XX, XXXX-XXXX. DOI: 10.1021/acs.jpca.3c04382
   
   for DFT-D4:
   * E. Caldeweyher, C. Bannwarth and S. Grimme, J. Chem. Phys., 2017,
     147, 034112. DOI: 10.1063/1.4993215
   * E. Caldeweyher, S. Ehlert, A. Hansen, H. Neugebauer, S. Spicher,
     C. Bannwarth and S. Grimme, J. Chem. Phys., 2019, 150, 154122.
     DOI: 10.1063/1.5090222
   * E. Caldeweyher, J.-M. Mewes, S. Ehlert and S. Grimme, Phys. Chem. Chem. Phys.
     2020, 22, 8499-8512. DOI: 10.1039/D0CP00502A
   
   for sTDA-xTB:
   * S. Grimme and C. Bannwarth, J. Chem. Phys., 2016, 145, 054103.
     DOI: 10.1063/1.4959605
   
   in the mass-spec context:
   * V. Asgeirsson, C. Bauer and S. Grimme, Chem. Sci., 2017, 8, 4879.
     DOI: 10.1039/c7sc00601b
   * J. Koopman and S. Grimme, ACS Omega 2019, 4, 12, 15120-15133.
     DOI: 10.1021/acsomega.9b02011
   
   for metadynamics refer to:
   * S. Grimme, J. Chem. Theory Comput., 2019, 155, 2847-2862
     DOI: 10.1021/acs.jctc.9b00143
   
   for SPH calculations refer to:
   * S. Spicher and S. Grimme, J. Chem. Theory Comput., 2021, 17, 1701-1714
     DOI: 10.1021/acs.jctc.0c01306
   
   for ONIOM refer to:
   * C. Plett, A. Katbashev, S. Ehlert, S. Grimme, M. Bursch,
     Phys. Chem. Chem. Phys., 2023, 25, 17860-17868. DOI: 10.1039/D3CP02178E
   
   for DIPRO refer to:
   * J. Kohn, N. Gildemeister, S. Grimme, D. Fazzi, A. Hansen,
     J. Chem. Phys., 2023, just accepted.
   
   for PTB refer to:
   * S. Grimme, M. Mueller, A. Hansen, J. Chem. Phys., 2023, 158, 124111.
     DOI: 10.1063/5.0137838
   
   with help from (in alphabetical order)
   P. Atkinson, C. Bannwarth, F. Bohle, G. Brandenburg, E. Caldeweyher
   M. Checinski, S. Dohm, S. Ehlert, S. Ehrlich, I. Gerasimov, C. Hölzer
   A. Katbashev, J. Kohn, J. Koopman, C. Lavigne, S. Lehtola, F. März, M. Müller,
   F. Musil, H. Neugebauer, J. Pisarek, C. Plett, P. Pracht, F. Pultar,
   J. Seibert, P. Shushkov, S. Spicher, M. Stahn, M. Steiner, T. Strunk,
   J. Stückrath, T. Rose, and J. Unsleber
   
 * started run on 2025/04/06 at 18:00:42.017     
   ID    Z sym.   atoms
    1    6 C      1, 2, 4, 6, 8, 10
    2    1 H      3, 5, 7, 9, 11, 18-24
    3    8 O      12-17

           -------------------------------------------------
          |                Calculation Setup                |
           -------------------------------------------------

          program call               : /srv/scratch/z5358697/.xtb/bin/xtb gas.coord --gfn2 --sp --chrg 0 --norestart --parallel 1
          hostname                   : k155
          coordinate file            : gas.coord
          omp threads                :                     1


           -------------------------------------------------
          |                 G F N 2 - x T B                 |
           -------------------------------------------------

        Reference                      10.1021/acs.jctc.8b01176
      * Hamiltonian:
        H0-scaling (s, p, d)           1.850000    2.230000    2.230000
        zeta-weighting                 0.500000
      * Dispersion:
        s8                             2.700000
        a1                             0.520000
        a2                             5.000000
        s9                             5.000000
      * Repulsion:
        kExp                           1.500000    1.000000
        rExp                           1.000000
      * Coulomb:
        alpha                          2.000000
        third order                    shell-resolved
        anisotropic                    true
        a3                             3.000000
        a5                             4.000000
        cn-shift                       1.200000
        cn-exp                         4.000000
        max-rad                        5.000000


          ...................................................
          :                      SETUP                      :
          :.................................................:
          :  # basis functions                  60          :
          :  # atomic orbitals                  60          :
          :  # shells                           36          :
          :  # electrons                        72          :
          :  max. iterations                   250          :
          :  Hamiltonian                  GFN2-xTB          :
          :  restarted?                      false          :
          :  GBSA solvation                  false          :
          :  PC potential                    false          :
          :  electronic temp.          300.0000000     K    :
          :  accuracy                    1.0000000          :
          :  -> integral cutoff          0.2500000E+02      :
          :  -> integral neglect         0.1000000E-07      :
          :  -> SCF convergence          0.1000000E-05 Eh   :
          :  -> wf. convergence          0.1000000E-03 e    :
          :  Broyden damping             0.4000000          :
          :  net charge                          0          :
          :  unpaired electrons                  0          :
          ...................................................

 iter      E             dE          RMSdq      gap      omega  full diag
   1    -43.6306588 -0.436307E+02  0.455E+00   10.33       0.0  T
   2    -43.6610254 -0.303666E-01  0.251E+00   10.23       1.0  T
   3    -43.6620754 -0.105000E-02  0.668E-01   10.22       1.0  T
   4    -43.6629091 -0.833702E-03  0.140E-01   10.21       1.0  T
   5    -43.6629710 -0.618863E-04  0.532E-02   10.23       1.0  T
   6    -43.6629808 -0.979481E-05  0.185E-02   10.24       1.1  T
   7    -43.6629813 -0.572764E-06  0.585E-03   10.23       3.5  T
   8    -43.6629816 -0.267283E-06  0.162E-03   10.23      12.6  T
   9    -43.6629816 -0.382267E-08  0.635E-04   10.24      32.2  T
  10    -43.6629816 -0.207777E-08  0.214E-04   10.23      95.4  T

   *** convergence criteria satisfied after 10 iterations ***

         #    Occupation            Energy/Eh            Energy/eV
      -------------------------------------------------------------
         1        2.0000           -0.7359245             -20.0255
       ...           ...                  ...                  ...
        30        2.0000           -0.4714833             -12.8297
        31        2.0000           -0.4593301             -12.4990
        32        2.0000           -0.4516193             -12.2892
        33        2.0000           -0.4453070             -12.1174
        34        2.0000           -0.4202312             -11.4351
        35        2.0000           -0.4118679             -11.2075
        36        2.0000           -0.4107107             -11.1760 (HOMO)
        37                         -0.0345826              -0.9410 (LUMO)
        38                         -0.0152453              -0.4148
        39                         -0.0000047              -0.0001
        40                          0.0245665               0.6685
        41                          0.0399145               1.0861
       ...                                ...                  ...
        60                          0.2939030               7.9975
      -------------------------------------------------------------
                  HL-Gap            0.3761281 Eh           10.2350 eV
             Fermi-level           -0.2226467 Eh           -6.0585 eV

 SCC (total)                   0 d,  0 h,  0 min,  0.043 sec
 SCC setup                      ...        0 min,  0.000 sec (  0.426%)
 Dispersion                     ...        0 min,  0.000 sec (  0.326%)
 classical contributions        ...        0 min,  0.000 sec (  0.063%)
 integral evaluation            ...        0 min,  0.003 sec (  6.525%)
 iterations                     ...        0 min,  0.032 sec ( 74.834%)
 molecular gradient             ...        0 min,  0.007 sec ( 17.380%)
 printout                       ...        0 min,  0.000 sec (  0.412%)

         :::::::::::::::::::::::::::::::::::::::::::::::::::::
         ::                     SUMMARY                     ::
         :::::::::::::::::::::::::::::::::::::::::::::::::::::
         :: total energy             -43.360689422979 Eh    ::
         :: gradient norm              0.014745526921 Eh/a0 ::
         :: HOMO-LUMO gap             10.234966745658 eV    ::
         ::.................................................::
         :: SCC energy               -43.662792268204 Eh    ::
         :: -> isotropic ES            0.137564750645 Eh    ::
         :: -> anisotropic ES         -0.003063924173 Eh    ::
         :: -> anisotropic XC         -0.009503521385 Eh    ::
         :: -> dispersion             -0.020285737802 Eh    ::
         :: repulsion energy           0.302102845225 Eh    ::
         :: add. restraining           0.000000000000 Eh    ::
         :: total charge               0.000000000000 e     ::
         :::::::::::::::::::::::::::::::::::::::::::::::::::::

           -------------------------------------------------
          |                Property Printout                |
           -------------------------------------------------

    * Orbital Energies and Occupations

         #    Occupation            Energy/Eh            Energy/eV
      -------------------------------------------------------------
         1        2.0000           -0.7359245             -20.0255
       ...           ...                  ...                  ...
        24        2.0000           -0.5217211             -14.1968
        25        2.0000           -0.5121095             -13.9352
        26        2.0000           -0.5021370             -13.6638
        27        2.0000           -0.4953762             -13.4799
        28        2.0000           -0.4885551             -13.2943
        29        2.0000           -0.4733876             -12.8815
        30        2.0000           -0.4714833             -12.8297
        31        2.0000           -0.4593301             -12.4990
        32        2.0000           -0.4516193             -12.2892
        33        2.0000           -0.4453070             -12.1174
        34        2.0000           -0.4202312             -11.4351
        35        2.0000           -0.4118679             -11.2075
        36        2.0000           -0.4107107             -11.1760 (HOMO)
        37                         -0.0345826              -0.9410 (LUMO)
        38                         -0.0152453              -0.4148
        39                         -0.0000047              -0.0001
        40                          0.0245665               0.6685
        41                          0.0399145               1.0861
        42                          0.0488968               1.3305
        43                          0.0650600               1.7704
        44                          0.0723993               1.9701
        45                          0.0886934               2.4135
        46                          0.1019197               2.7734
        47                          0.1095949               2.9822
       ...                                ...                  ...
        60                          0.2939030               7.9975
      -------------------------------------------------------------
                  HL-Gap            0.3761281 Eh           10.2350 eV
             Fermi-level           -0.2226467 Eh           -6.0585 eV

     #   Z          covCN         q      C6AA      α(0)
     1   6 C        3.674     0.064    19.735     6.366
     2   6 C        3.733     0.092    19.137     6.244
     3   1 H        0.924     0.078     1.997     2.210
     4   6 C        3.725     0.090    19.192     6.255
     5   1 H        0.924     0.034     2.534     2.489
     6   6 C        3.726     0.092    19.155     6.249
     7   1 H        0.923     0.051     2.311     2.377
     8   6 C        3.726     0.089    19.202     6.257
     9   1 H        0.924     0.061     2.182     2.310
    10   6 C        3.612     0.235    17.381     6.018
    11   1 H        0.923     0.041     2.434     2.440
    12   8 O        1.699    -0.339    19.692     5.991
    13   8 O        1.656    -0.462    22.083     6.344
    14   8 O        1.655    -0.445    21.738     6.294
    15   8 O        1.655    -0.449    21.832     6.308
    16   8 O        1.655    -0.446    21.753     6.296
    17   8 O        1.655    -0.435    21.540     6.265
    18   1 H        0.924     0.044     2.403     2.424
    19   1 H        0.924     0.054     2.267     2.355
    20   1 H        0.804     0.312     0.686     1.301
    21   1 H        0.804     0.321     0.662     1.278
    22   1 H        0.804     0.317     0.672     1.287
    23   1 H        0.805     0.303     0.713     1.326
    24   1 H        0.805     0.298     0.727     1.340

 Mol. C6AA /au·bohr⁶  :       4692.391960
 Mol. C8AA /au·bohr⁸  :      99834.573737
 Mol. α(0) /au        :         98.025312


Wiberg/Mayer (AO) data.
largest (>0.10) Wiberg bond orders for each atom

 ---------------------------------------------------------------------------
     #   Z sym  total        # sym  WBO       # sym  WBO       # sym  WBO
 ---------------------------------------------------------------------------
     1   6 C    3.961 --    17 O    1.008     2 C    0.977    19 H    0.970
                            18 H    0.962
     2   6 C    3.944 --     1 C    0.977     4 C    0.975    12 O    0.959
                             3 H    0.953
     3   1 H    0.994 --     2 C    0.953
     4   6 C    3.954 --    16 O    0.986     2 C    0.975     5 H    0.961
                             6 C    0.956
     5   1 H    0.999 --     4 C    0.961
     6   6 C    3.963 --    15 O    1.008     8 C    0.967     7 H    0.957
                             4 C    0.956
     7   1 H    0.997 --     6 C    0.957
     8   6 C    3.964 --    14 O    1.014     6 C    0.967     9 H    0.958
                            10 C    0.951
     9   1 H    0.996 --     8 C    0.958
    10   6 C    3.926 --    13 O    0.982    12 O    0.980    11 H    0.952
                             8 C    0.951
    11   1 H    0.998 --    10 C    0.952
    12   8 O    2.094 --    10 C    0.980     2 C    0.959
    13   8 O    1.981 --    10 C    0.982    20 H    0.883
    14   8 O    1.965 --     8 C    1.014    21 H    0.864
    15   8 O    1.962 --     6 C    1.008    22 H    0.865
    16   8 O    1.975 --     4 C    0.986    23 H    0.892
    17   8 O    1.961 --     1 C    1.008    24 H    0.895
    18   1 H    0.998 --     1 C    0.962
    19   1 H    0.997 --     1 C    0.970
    20   1 H    0.903 --    13 O    0.883
    21   1 H    0.897 --    14 O    0.864
    22   1 H    0.899 --    15 O    0.865
    23   1 H    0.908 --    16 O    0.892
    24   1 H    0.911 --    17 O    0.895
 ---------------------------------------------------------------------------

Topologies differ in total number of bonds
Writing topology from bond orders to xtbtopo.mol

molecular dipole:
                 x           y           z       tot (Debye)
 q only:        0.043      -0.096      -0.005
   full:        0.103      -0.237       0.027       0.660
molecular quadrupole (traceless):
                xx          xy          yy          xz          yz          zz
 q only:       -8.037      -5.970      11.423      -2.481       4.280      -3.387
  q+dip:      -10.791      -9.432      17.522      -4.002       4.398      -6.731
   full:      -11.591      -9.101      17.500      -3.744       4.963      -5.909


           -------------------------------------------------
          | TOTAL ENERGY              -43.360689422979 Eh   |
          | GRADIENT NORM               0.014745526921 Eh/α |
          | HOMO-LUMO GAP              10.234966745658 eV   |
           -------------------------------------------------

------------------------------------------------------------------------
 * finished run on 2025/04/06 at 18:00:42.088     
------------------------------------------------------------------------
 total:
 * wall-time:     0 d,  0 h,  0 min,  0.071 sec
 *  cpu-time:     0 d,  0 h,  0 min,  0.027 sec
 * ratio c/w:     0.385 speedup
 SCF:
 * wall-time:     0 d,  0 h,  0 min,  0.043 sec
 *  cpu-time:     0 d,  0 h,  0 min,  0.019 sec
 * ratio c/w:     0.445 speedup

