      -----------------------------------------------------------      
     |                   =====================                   |     
     |                           x T B                           |     
     |                   =====================                   |     
     |                         S. Grimme                         |     
     |          Mulliken Center for Theoretical Chemistry        |     
     |                    University of Bonn                     |     
      -----------------------------------------------------------      

   * xtb version 6.7.1 (edcfbbe) compiled by 'albert@albert-system' on 2024-07-22

   xtb is free software: you can redistribute it and/or modify it under
   the terms of the GNU Lesser General Public License as published by
   the Free Software Foundation, either version 3 of the License, or
   (at your option) any later version.
   
   xtb is distributed in the hope that it will be useful,
   but WITHOUT ANY WARRANTY; without even the implied warranty of
   MERCHANTABILITY or FITNESS FOR A PARTICULAR PURPOSE.  See the
   GNU Lesser General Public License for more details.
   
   Cite this work as:
   * C. Bannwarth, E. Caldeweyher, S. Ehlert, A. Hansen, P. Pracht,
     J. Seibert, S. Spicher, S. Grimme, WIREs Comput. Mol. Sci., 2020, 11,
     e01493. DOI: 10.1002/wcms.1493
   
   for GFN2-xTB:
   * C. Bannwarth, S. Ehlert and S. Grimme., J. Chem. Theory Comput., 2019,
     15, 1652-1671. DOI: 10.1021/acs.jctc.8b01176
   for GFN1-xTB:
   * S. Grimme, C. Bannwarth, P. Shushkov, J. Chem. Theory Comput., 2017,
     13, 1989-2009. DOI: 10.1021/acs.jctc.7b00118
   for GFN0-xTB:
   * P. Pracht, E. Caldeweyher, S. Ehlert, S. Grimme, ChemRxiv, 2019, preprint.
     DOI: 10.26434/chemrxiv.8326202.v1
   for GFN-FF:
   * S. Spicher and S. Grimme, Angew. Chem. Int. Ed., 2020, 59, 15665-15673.
     DOI: 10.1002/anie.202004239
   
   for ALPB and GBSA implicit solvation:
   * S. Ehlert, M. Stahn, S. Spicher, S. Grimme, J. Chem. Theory Comput.,
     2021, 17, 4250-4261. DOI: 10.1021/acs.jctc.1c00471
   
   for ddCOSMO and CPCM-X implicit solvation:
   * M. Stahn, S. Ehlert, S. Grimme, J. Phys. Chem. A,
     2023, XX, XXXX-XXXX. DOI: 10.1021/acs.jpca.3c04382
   
   for DFT-D4:
   * E. Caldeweyher, C. Bannwarth and S. Grimme, J. Chem. Phys., 2017,
     147, 034112. DOI: 10.1063/1.4993215
   * E. Caldeweyher, S. Ehlert, A. Hansen, H. Neugebauer, S. Spicher,
     C. Bannwarth and S. Grimme, J. Chem. Phys., 2019, 150, 154122.
     DOI: 10.1063/1.5090222
   * E. Caldeweyher, J.-M. Mewes, S. Ehlert and S. Grimme, Phys. Chem. Chem. Phys.
     2020, 22, 8499-8512. DOI: 10.1039/D0CP00502A
   
   for sTDA-xTB:
   * S. Grimme and C. Bannwarth, J. Chem. Phys., 2016, 145, 054103.
     DOI: 10.1063/1.4959605
   
   in the mass-spec context:
   * V. Asgeirsson, C. Bauer and S. Grimme, Chem. Sci., 2017, 8, 4879.
     DOI: 10.1039/c7sc00601b
   * J. Koopman and S. Grimme, ACS Omega 2019, 4, 12, 15120-15133.
     DOI: 10.1021/acsomega.9b02011
   
   for metadynamics refer to:
   * S. Grimme, J. Chem. Theory Comput., 2019, 155, 2847-2862
     DOI: 10.1021/acs.jctc.9b00143
   
   for SPH calculations refer to:
   * S. Spicher and S. Grimme, J. Chem. Theory Comput., 2021, 17, 1701-1714
     DOI: 10.1021/acs.jctc.0c01306
   
   for ONIOM refer to:
   * C. Plett, A. Katbashev, S. Ehlert, S. Grimme, M. Bursch,
     Phys. Chem. Chem. Phys., 2023, 25, 17860-17868. DOI: 10.1039/D3CP02178E
   
   for DIPRO refer to:
   * J. Kohn, N. Gildemeister, S. Grimme, D. Fazzi, A. Hansen,
     J. Chem. Phys., 2023, just accepted.
   
   for PTB refer to:
   * S. Grimme, M. Mueller, A. Hansen, J. Chem. Phys., 2023, 158, 124111.
     DOI: 10.1063/5.0137838
   
   with help from (in alphabetical order)
   P. Atkinson, C. Bannwarth, F. Bohle, G. Brandenburg, E. Caldeweyher
   M. Checinski, S. Dohm, S. Ehlert, S. Ehrlich, I. Gerasimov, C. Hölzer
   A. Katbashev, J. Kohn, J. Koopman, C. Lavigne, S. Lehtola, F. März, M. Müller,
   F. Musil, H. Neugebauer, J. Pisarek, C. Plett, P. Pracht, F. Pultar,
   J. Seibert, P. Shushkov, S. Spicher, M. Stahn, M. Steiner, T. Strunk,
   J. Stückrath, T. Rose, and J. Unsleber
   
 * started run on 2025/04/06 at 18:00:42.126     
   ID    Z sym.   atoms
    1    6 C      1, 2, 4, 6, 8, 10
    2    1 H      3, 5, 7, 9, 11, 18-24
    3    8 O      12-17

           -------------------------------------------------
          |                Calculation Setup                |
           -------------------------------------------------

          program call               : /srv/scratch/z5358697/.xtb/bin/xtb solv.coord --gfn2 --sp --chrg 0 --norestart --parallel 1 --alpb water reference -I xtb_sp-xcontrol-inp
          hostname                   : k155
          coordinate file            : solv.coord
          omp threads                :                     1


           -------------------------------------------------
          |                 G F N 2 - x T B                 |
           -------------------------------------------------

        Reference                      10.1021/acs.jctc.8b01176
      * Hamiltonian:
        H0-scaling (s, p, d)           1.850000    2.230000    2.230000
        zeta-weighting                 0.500000
      * Dispersion:
        s8                             2.700000
        a1                             0.520000
        a2                             5.000000
        s9                             5.000000
      * Repulsion:
        kExp                           1.500000    1.000000
        rExp                           1.000000
      * Coulomb:
        alpha                          2.000000
        third order                    shell-resolved
        anisotropic                    true
        a3                             3.000000
        a5                             4.000000
        cn-shift                       1.200000
        cn-exp                         4.000000
        max-rad                        5.000000

      * Solvation model:               ALPB
        Solvent                        water
        Parameter file                 internal GFN2-xTB/ALPB
        Dielectric constant                8.0200E+01
        Reference state                gsolv=reference [X=1]
        Free energy shift                  2.8945E-03 Eh       1.8164E+00 kcal/mol
        Temperature                        2.9815E+02 K
        Density                            1.0000E+00 kg/L
        Solvent mass                       1.8000E+01 g/mol
        Interaction kernel             P16
        Born radius scaling (c1)           1.4744E+00
        Born radii integrator          GBOBC
        Born offset                        0.0000E+00 a0       0.0000E+00 AA
        H-bond correction              true
        Ion screening                  false
        Surface tension                    1.0000E-05 Eh       1.5569E+01 dyn/cm
        Grid points                               974 per atom

          ...................................................
          :                      SETUP                      :
          :.................................................:
          :  # basis functions                  60          :
          :  # atomic orbitals                  60          :
          :  # shells                           36          :
          :  # electrons                        72          :
          :  max. iterations                   250          :
          :  Hamiltonian                  GFN2-xTB          :
          :  restarted?                      false          :
          :  GBSA solvation                   true          :
          :  PC potential                    false          :
          :  electronic temp.          300.0000000     K    :
          :  accuracy                    1.0000000          :
          :  -> integral cutoff          0.2500000E+02      :
          :  -> integral neglect         0.1000000E-07      :
          :  -> SCF convergence          0.1000000E-05 Eh   :
          :  -> wf. convergence          0.1000000E-03 e    :
          :  Broyden damping             0.4000000          :
          :  net charge                          0          :
          :  unpaired electrons                  0          :
          ...................................................

 iter      E             dE          RMSdq      gap      omega  full diag
   1    -43.6546945 -0.436547E+02  0.474E+00   10.37       0.0  T
   2    -43.6850863 -0.303917E-01  0.256E+00   10.32       1.0  T
   3    -43.6870075 -0.192127E-02  0.586E-01   10.30       1.0  T
   4    -43.6873841 -0.376597E-03  0.172E-01   10.30       1.0  T
   5    -43.6874465 -0.623740E-04  0.679E-02   10.31       1.0  T
   6    -43.6874621 -0.156191E-04  0.210E-02   10.32       1.0  T
   7    -43.6874628 -0.688617E-06  0.548E-03   10.32       3.7  T
   8    -43.6874630 -0.190036E-06  0.191E-03   10.32      10.7  T
   9    -43.6874630 -0.935917E-08  0.826E-04   10.32      24.7  T
  10    -43.6874630 -0.255340E-08  0.282E-04   10.32      72.4  T

   *** convergence criteria satisfied after 10 iterations ***

         #    Occupation            Energy/Eh            Energy/eV
      -------------------------------------------------------------
         1        2.0000           -0.7307484             -19.8847
       ...           ...                  ...                  ...
        30        2.0000           -0.4691086             -12.7651
        31        2.0000           -0.4523031             -12.3078
        32        2.0000           -0.4468769             -12.1601
        33        2.0000           -0.4405997             -11.9893
        34        2.0000           -0.4170546             -11.3486
        35        2.0000           -0.4093569             -11.1392
        36        2.0000           -0.4065074             -11.0616 (HOMO)
        37                         -0.0273589              -0.7445 (LUMO)
        38                         -0.0111310              -0.3029
        39                          0.0100671               0.2739
        40                          0.0308916               0.8406
        41                          0.0464229               1.2632
       ...                                ...                  ...
        60                          0.3028586               8.2412
      -------------------------------------------------------------
                  HL-Gap            0.3791485 Eh           10.3172 eV
             Fermi-level           -0.2169332 Eh           -5.9031 eV

 SCC (total)                   0 d,  0 h,  0 min,  0.042 sec
 SCC setup                      ...        0 min,  0.001 sec (  3.569%)
 Dispersion                     ...        0 min,  0.000 sec (  0.340%)
 classical contributions        ...        0 min,  0.000 sec (  0.064%)
 integral evaluation            ...        0 min,  0.003 sec (  6.494%)
 iterations                     ...        0 min,  0.029 sec ( 70.616%)
 molecular gradient             ...        0 min,  0.008 sec ( 18.564%)
 printout                       ...        0 min,  0.000 sec (  0.321%)

         :::::::::::::::::::::::::::::::::::::::::::::::::::::
         ::                     SUMMARY                     ::
         :::::::::::::::::::::::::::::::::::::::::::::::::::::
         :: total energy             -43.385170830413 Eh    ::
         :: total w/o Gsasa/hb       -43.371459231993 Eh    ::
         :: gradient norm              0.000075571293 Eh/a0 ::
         :: HOMO-LUMO gap             10.317156494420 eV    ::
         ::.................................................::
         :: SCC energy               -43.687273675638 Eh    ::
         :: -> isotropic ES            0.167270999593 Eh    ::
         :: -> anisotropic ES         -0.005909734256 Eh    ::
         :: -> anisotropic XC         -0.009046414019 Eh    ::
         :: -> dispersion             -0.020322514698 Eh    ::
         :: -> Gsolv                  -0.030257745811 Eh    ::
         ::    -> Gelec               -0.016546147391 Eh    ::
         ::    -> Gsasa                0.005028097612 Eh    ::
         ::    -> Ghb                 -0.021634245193 Eh    ::
         ::    -> Gshift               0.002894549160 Eh    ::
         :: repulsion energy           0.302102845225 Eh    ::
         :: add. restraining           0.000000000000 Eh    ::
         :: total charge              -0.000000000000 e     ::
         :::::::::::::::::::::::::::::::::::::::::::::::::::::

           -------------------------------------------------
          |                Property Printout                |
           -------------------------------------------------

    * Orbital Energies and Occupations

         #    Occupation            Energy/Eh            Energy/eV
      -------------------------------------------------------------
         1        2.0000           -0.7307484             -19.8847
       ...           ...                  ...                  ...
        24        2.0000           -0.5173008             -14.0765
        25        2.0000           -0.5073345             -13.8053
        26        2.0000           -0.4962415             -13.5034
        27        2.0000           -0.4879611             -13.2781
        28        2.0000           -0.4823900             -13.1265
        29        2.0000           -0.4699651             -12.7884
        30        2.0000           -0.4691086             -12.7651
        31        2.0000           -0.4523031             -12.3078
        32        2.0000           -0.4468769             -12.1601
        33        2.0000           -0.4405997             -11.9893
        34        2.0000           -0.4170546             -11.3486
        35        2.0000           -0.4093569             -11.1392
        36        2.0000           -0.4065074             -11.0616 (HOMO)
        37                         -0.0273589              -0.7445 (LUMO)
        38                         -0.0111310              -0.3029
        39                          0.0100671               0.2739
        40                          0.0308916               0.8406
        41                          0.0464229               1.2632
        42                          0.0544535               1.4818
        43                          0.0707968               1.9265
        44                          0.0789107               2.1473
        45                          0.0993724               2.7041
        46                          0.1080546               2.9403
        47                          0.1158895               3.1535
       ...                                ...                  ...
        60                          0.3028586               8.2412
      -------------------------------------------------------------
                  HL-Gap            0.3791485 Eh           10.3172 eV
             Fermi-level           -0.2169332 Eh           -5.9031 eV

     #   Z          covCN         q      C6AA      α(0)
     1   6 C        3.674     0.063    19.749     6.368
     2   6 C        3.733     0.092    19.150     6.246
     3   1 H        0.924     0.080     1.982     2.202
     4   6 C        3.725     0.090    19.189     6.255
     5   1 H        0.924     0.041     2.440     2.443
     6   6 C        3.726     0.093    19.146     6.248
     7   1 H        0.923     0.056     2.252     2.347
     8   6 C        3.726     0.090    19.189     6.254
     9   1 H        0.924     0.061     2.185     2.312
    10   6 C        3.612     0.234    17.393     6.020
    11   1 H        0.923     0.046     2.376     2.410
    12   8 O        1.699    -0.360    20.081     6.050
    13   8 O        1.656    -0.515    23.208     6.503
    14   8 O        1.655    -0.494    22.764     6.441
    15   8 O        1.655    -0.493    22.741     6.438
    16   8 O        1.655    -0.505    22.990     6.473
    17   8 O        1.655    -0.501    22.924     6.463
    18   1 H        0.924     0.050     2.319     2.381
    19   1 H        0.924     0.057     2.237     2.339
    20   1 H        0.804     0.385     0.513     1.126
    21   1 H        0.804     0.356     0.574     1.190
    22   1 H        0.804     0.348     0.592     1.209
    23   1 H        0.805     0.373     0.537     1.151
    24   1 H        0.805     0.355     0.576     1.193

 Mol. C6AA /au·bohr⁶  :       4708.291959
 Mol. C8AA /au·bohr⁸  :     100505.931726
 Mol. α(0) /au        :         98.062124


Wiberg/Mayer (AO) data.
largest (>0.10) Wiberg bond orders for each atom

 ---------------------------------------------------------------------------
     #   Z sym  total        # sym  WBO       # sym  WBO       # sym  WBO
 ---------------------------------------------------------------------------
     1   6 C    3.956 --    17 O    1.003     2 C    0.978    19 H    0.970
                            18 H    0.962
     2   6 C    3.941 --     1 C    0.978     4 C    0.975    12 O    0.955
                             3 H    0.953
     3   1 H    0.994 --     2 C    0.953
     4   6 C    3.957 --    16 O    0.990     2 C    0.975     5 H    0.960
                             6 C    0.957
     5   1 H    0.998 --     4 C    0.960
     6   6 C    3.958 --    15 O    1.003     8 C    0.967     7 H    0.957
                             4 C    0.957
     7   1 H    0.997 --     6 C    0.957
     8   6 C    3.960 --    14 O    1.008     6 C    0.967     9 H    0.958
                            10 C    0.953
     9   1 H    0.996 --     8 C    0.958
    10   6 C    3.927 --    13 O    0.990    12 O    0.973     8 C    0.953
                            11 H    0.951
    11   1 H    0.998 --    10 C    0.951
    12   8 O    2.081 --    10 C    0.973     2 C    0.955
    13   8 O    1.942 --    10 C    0.990    20 H    0.834
    14   8 O    1.933 --     8 C    1.008    21 H    0.840
    15   8 O    1.935 --     6 C    1.003    22 H    0.845
    16   8 O    1.933 --     4 C    0.990    23 H    0.846
    17   8 O    1.919 --     1 C    1.003    24 H    0.858
    18   1 H    0.997 --     1 C    0.962
    19   1 H    0.997 --     1 C    0.970
    20   1 H    0.852 --    13 O    0.834
    21   1 H    0.873 --    14 O    0.840
    22   1 H    0.879 --    15 O    0.845
    23   1 H    0.860 --    16 O    0.846
    24   1 H    0.874 --    17 O    0.858
 ---------------------------------------------------------------------------

Topologies differ in total number of bonds
Writing topology from bond orders to xtbtopo.mol

molecular dipole:
                 x           y           z       tot (Debye)
 q only:        0.042      -0.177       0.013
   full:        0.101      -0.290       0.040       0.788
molecular quadrupole (traceless):
                xx          xy          yy          xz          yz          zz
 q only:      -10.745      -6.955      14.836      -3.106       5.782      -4.090
  q+dip:      -12.608     -10.048      19.849      -4.386       5.376      -7.241
   full:      -13.396      -9.711      19.801      -4.133       5.955      -6.405


           -------------------------------------------------
          | TOTAL ENERGY              -43.385170830413 Eh   |
          | GRADIENT NORM               0.000075571293 Eh/α |
          | HOMO-LUMO GAP              10.317156494420 eV   |
           -------------------------------------------------

------------------------------------------------------------------------
 * finished run on 2025/04/06 at 18:00:42.201     
------------------------------------------------------------------------
 total:
 * wall-time:     0 d,  0 h,  0 min,  0.075 sec
 *  cpu-time:     0 d,  0 h,  0 min,  0.029 sec
 * ratio c/w:     0.391 speedup
 SCF:
 * wall-time:     0 d,  0 h,  0 min,  0.042 sec
 *  cpu-time:     0 d,  0 h,  0 min,  0.021 sec
 * ratio c/w:     0.497 speedup

