      -----------------------------------------------------------      
     |                   =====================                   |     
     |                           x T B                           |     
     |                   =====================                   |     
     |                         S. Grimme                         |     
     |          Mulliken Center for Theoretical Chemistry        |     
     |                    University of Bonn                     |     
      -----------------------------------------------------------      

   * xtb version 6.7.1 (edcfbbe) compiled by 'albert@albert-system' on 2024-07-22

   xtb is free software: you can redistribute it and/or modify it under
   the terms of the GNU Lesser General Public License as published by
   the Free Software Foundation, either version 3 of the License, or
   (at your option) any later version.
   
   xtb is distributed in the hope that it will be useful,
   but WITHOUT ANY WARRANTY; without even the implied warranty of
   MERCHANTABILITY or FITNESS FOR A PARTICULAR PURPOSE.  See the
   GNU Lesser General Public License for more details.
   
   Cite this work as:
   * C. Bannwarth, E. Caldeweyher, S. Ehlert, A. Hansen, P. Pracht,
     J. Seibert, S. Spicher, S. Grimme, WIREs Comput. Mol. Sci., 2020, 11,
     e01493. DOI: 10.1002/wcms.1493
   
   for GFN2-xTB:
   * C. Bannwarth, S. Ehlert and S. Grimme., J. Chem. Theory Comput., 2019,
     15, 1652-1671. DOI: 10.1021/acs.jctc.8b01176
   for GFN1-xTB:
   * S. Grimme, C. Bannwarth, P. Shushkov, J. Chem. Theory Comput., 2017,
     13, 1989-2009. DOI: 10.1021/acs.jctc.7b00118
   for GFN0-xTB:
   * P. Pracht, E. Caldeweyher, S. Ehlert, S. Grimme, ChemRxiv, 2019, preprint.
     DOI: 10.26434/chemrxiv.8326202.v1
   for GFN-FF:
   * S. Spicher and S. Grimme, Angew. Chem. Int. Ed., 2020, 59, 15665-15673.
     DOI: 10.1002/anie.202004239
   
   for ALPB and GBSA implicit solvation:
   * S. Ehlert, M. Stahn, S. Spicher, S. Grimme, J. Chem. Theory Comput.,
     2021, 17, 4250-4261. DOI: 10.1021/acs.jctc.1c00471
   
   for ddCOSMO and CPCM-X implicit solvation:
   * M. Stahn, S. Ehlert, S. Grimme, J. Phys. Chem. A,
     2023, XX, XXXX-XXXX. DOI: 10.1021/acs.jpca.3c04382
   
   for DFT-D4:
   * E. Caldeweyher, C. Bannwarth and S. Grimme, J. Chem. Phys., 2017,
     147, 034112. DOI: 10.1063/1.4993215
   * E. Caldeweyher, S. Ehlert, A. Hansen, H. Neugebauer, S. Spicher,
     C. Bannwarth and S. Grimme, J. Chem. Phys., 2019, 150, 154122.
     DOI: 10.1063/1.5090222
   * E. Caldeweyher, J.-M. Mewes, S. Ehlert and S. Grimme, Phys. Chem. Chem. Phys.
     2020, 22, 8499-8512. DOI: 10.1039/D0CP00502A
   
   for sTDA-xTB:
   * S. Grimme and C. Bannwarth, J. Chem. Phys., 2016, 145, 054103.
     DOI: 10.1063/1.4959605
   
   in the mass-spec context:
   * V. Asgeirsson, C. Bauer and S. Grimme, Chem. Sci., 2017, 8, 4879.
     DOI: 10.1039/c7sc00601b
   * J. Koopman and S. Grimme, ACS Omega 2019, 4, 12, 15120-15133.
     DOI: 10.1021/acsomega.9b02011
   
   for metadynamics refer to:
   * S. Grimme, J. Chem. Theory Comput., 2019, 155, 2847-2862
     DOI: 10.1021/acs.jctc.9b00143
   
   for SPH calculations refer to:
   * S. Spicher and S. Grimme, J. Chem. Theory Comput., 2021, 17, 1701-1714
     DOI: 10.1021/acs.jctc.0c01306
   
   for ONIOM refer to:
   * C. Plett, A. Katbashev, S. Ehlert, S. Grimme, M. Bursch,
     Phys. Chem. Chem. Phys., 2023, 25, 17860-17868. DOI: 10.1039/D3CP02178E
   
   for DIPRO refer to:
   * J. Kohn, N. Gildemeister, S. Grimme, D. Fazzi, A. Hansen,
     J. Chem. Phys., 2023, just accepted.
   
   for PTB refer to:
   * S. Grimme, M. Mueller, A. Hansen, J. Chem. Phys., 2023, 158, 124111.
     DOI: 10.1063/5.0137838
   
   with help from (in alphabetical order)
   P. Atkinson, C. Bannwarth, F. Bohle, G. Brandenburg, E. Caldeweyher
   M. Checinski, S. Dohm, S. Ehlert, S. Ehrlich, I. Gerasimov, C. Hölzer
   A. Katbashev, J. Kohn, J. Koopman, C. Lavigne, S. Lehtola, F. März, M. Müller,
   F. Musil, H. Neugebauer, J. Pisarek, C. Plett, P. Pracht, F. Pultar,
   J. Seibert, P. Shushkov, S. Spicher, M. Stahn, M. Steiner, T. Strunk,
   J. Stückrath, T. Rose, and J. Unsleber
   
 * started run on 2025/04/04 at 13:27:22.669     
   ID    Z sym.   atoms
    1    6 C      1-3
    2    8 O      4
    3    7 N      5
    4    1 H      6-12

           -------------------------------------------------
          |                Calculation Setup                |
           -------------------------------------------------

          program call               : /srv/scratch/z5358697/.xtb/bin/xtb xtb_rrho.coord --gfn2 --ohess vtight --chrg 0 --enso --norestart -I rrho-xcontrol-inp --parallel 1 --alpb water
          hostname                   : k163
          coordinate file            : xtb_rrho.coord
          omp threads                :                     1


           -------------------------------------------------
          |                 G F N 2 - x T B                 |
           -------------------------------------------------

        Reference                      10.1021/acs.jctc.8b01176
      * Hamiltonian:
        H0-scaling (s, p, d)           1.850000    2.230000    2.230000
        zeta-weighting                 0.500000
      * Dispersion:
        s8                             2.700000
        a1                             0.520000
        a2                             5.000000
        s9                             5.000000
      * Repulsion:
        kExp                           1.500000    1.000000
        rExp                           1.000000
      * Coulomb:
        alpha                          2.000000
        third order                    shell-resolved
        anisotropic                    true
        a3                             3.000000
        a5                             4.000000
        cn-shift                       1.200000
        cn-exp                         4.000000
        max-rad                        5.000000

      * Solvation model:               ALPB
        Solvent                        water
        Parameter file                 internal GFN2-xTB/ALPB
        Dielectric constant                8.0200E+01
        Reference state                gsolv [1 M gas/solution]
        Free energy shift                  1.0808E-03 Eh       6.7819E-01 kcal/mol
        Temperature                        2.9815E+02 K
        Density                            1.0000E+00 kg/L
        Solvent mass                       1.8000E+01 g/mol
        Interaction kernel             P16
        Born radius scaling (c1)           1.4744E+00
        Born radii integrator          GBOBC
        Born offset                        0.0000E+00 a0       0.0000E+00 AA
        H-bond correction              true
        Ion screening                  false
        Surface tension                    1.0000E-05 Eh       1.5569E+01 dyn/cm
        Grid points                               974 per atom

          ...................................................
          :                      SETUP                      :
          :.................................................:
          :  # basis functions                  27          :
          :  # atomic orbitals                  27          :
          :  # shells                           17          :
          :  # electrons                        30          :
          :  max. iterations                   250          :
          :  Hamiltonian                  GFN2-xTB          :
          :  restarted?                      false          :
          :  GBSA solvation                   true          :
          :  PC potential                    false          :
          :  electronic temp.          300.0000000     K    :
          :  accuracy                    1.0000000          :
          :  -> integral cutoff          0.2500000E+02      :
          :  -> integral neglect         0.1000000E-07      :
          :  -> SCF convergence          0.1000000E-05 Eh   :
          :  -> wf. convergence          0.1000000E-03 e    :
          :  Broyden damping             0.4000000          :
          :  net charge                          0          :
          :  unpaired electrons                  0          :
          ...................................................

 iter      E             dE          RMSdq      gap      omega  full diag
   1    -17.1340067 -0.171340E+02  0.439E+00    5.21       0.0  T
   2    -17.1944232 -0.604165E-01  0.218E+00    5.13       1.0  T
   3    -17.1953393 -0.916078E-03  0.106E+00    4.98       1.0  T
   4    -17.1954849 -0.145608E-03  0.238E-01    5.08       1.0  T
   5    -17.1956735 -0.188583E-03  0.888E-02    5.02       1.0  T
   6    -17.1956785 -0.497430E-05  0.266E-02    5.03       1.1  T
   7    -17.1956805 -0.201214E-05  0.871E-03    5.03       3.3  T
   8    -17.1956806 -0.124701E-06  0.371E-03    5.03       7.8  T
   9    -17.1956806 -0.140342E-07  0.111E-03    5.03      26.0  T
  10    -17.1956806 -0.750596E-09  0.195E-04    5.03     147.8  T
  11    -17.1956806 -0.965628E-10  0.806E-05    5.03     358.0  T

   *** convergence criteria satisfied after 11 iterations ***

         #    Occupation            Energy/Eh            Energy/eV
      -------------------------------------------------------------
         1        2.0000           -0.6944584             -18.8972
       ...           ...                  ...                  ...
         9        2.0000           -0.4907942             -13.3552
        10        2.0000           -0.4878917             -13.2762
        11        2.0000           -0.4710821             -12.8188
        12        2.0000           -0.4546600             -12.3719
        13        2.0000           -0.4391373             -11.9495
        14        2.0000           -0.4166384             -11.3373
        15        2.0000           -0.3952768             -10.7560 (HOMO)
        16                         -0.2105567              -5.7295 (LUMO)
        17                          0.0215512               0.5864
        18                          0.0869957               2.3673
        19                          0.1275549               3.4709
        20                          0.1503400               4.0910
       ...                                ...                  ...
        27                          0.5459608              14.8563
      -------------------------------------------------------------
                  HL-Gap            0.1847201 Eh            5.0265 eV
             Fermi-level           -0.3029168 Eh           -8.2428 eV

 SCC (total)                   0 d,  0 h,  0 min,  0.018 sec
 SCC setup                      ...        0 min,  0.001 sec (  3.289%)
 Dispersion                     ...        0 min,  0.000 sec (  0.295%)
 classical contributions        ...        0 min,  0.000 sec (  0.078%)
 integral evaluation            ...        0 min,  0.001 sec (  3.085%)
 iterations                     ...        0 min,  0.015 sec ( 84.804%)
 molecular gradient             ...        0 min,  0.001 sec (  7.819%)
 printout                       ...        0 min,  0.000 sec (  0.561%)

         :::::::::::::::::::::::::::::::::::::::::::::::::::::
         ::                     SUMMARY                     ::
         :::::::::::::::::::::::::::::::::::::::::::::::::::::
         :: total energy             -16.994869225304 Eh    ::
         :: total w/o Gsasa/hb       -16.991046647895 Eh    ::
         :: gradient norm              0.027573656788 Eh/a0 ::
         :: HOMO-LUMO gap              5.026488787235 eV    ::
         ::.................................................::
         :: SCC energy               -17.195675690992 Eh    ::
         :: -> isotropic ES            0.068219493078 Eh    ::
         :: -> anisotropic ES          0.000467164169 Eh    ::
         :: -> anisotropic XC          0.006617531015 Eh    ::
         :: -> dispersion             -0.005610926488 Eh    ::
         :: -> Gsolv                  -0.019781979066 Eh    ::
         ::    -> Gelec               -0.015959401658 Eh    ::
         ::    -> Gsasa                0.000899203226 Eh    ::
         ::    -> Ghb                 -0.005802540333 Eh    ::
         ::    -> Gshift               0.001080759698 Eh    ::
         :: repulsion energy           0.200806465689 Eh    ::
         :: add. restraining           0.000000000000 Eh    ::
         :: total charge               0.000000000000 e     ::
         :::::::::::::::::::::::::::::::::::::::::::::::::::::

      ----------------------------------------------------------- 
     |                   =====================                   |
     |                        A N C O P T                        |
     |                   =====================                   |
     |               Approximate Normal Coordinate               |
     |                Rational Function Optimizer                |
      ----------------------------------------------------------- 
      ----------------------------------------------------------- 
     |                   =====================                   |
     |                        A N C O P T                        |
     |                   =====================                   |
     |               Approximate Normal Coordinate               |
     |                Rational Function Optimizer                |
      ----------------------------------------------------------- 

          ...................................................
          :                      SETUP                      :
          :.................................................:
          :   optimization level         verytight          :
          :   max. optcycles                   240          :
          :   ANC micro-cycles                  20          :
          :   degrees of freedom                30          :
          :.................................................:
          :   RF solver                   davidson          :
          :   write xtbopt.log                true          :
          :   linear?                        false          :
          :   energy convergence         0.1000000E-06 Eh   :
          :   grad. convergence          0.2000000E-03 Eh/α :
          :   maxmium RF displ.          1.0000000          :
          :   Hlow (freq-cutoff)         0.1000000E-01      :
          :   Hmax (freq-cutoff)         5.0000000          :
          :   S6 in model hess.         20.0000000          :
          ...................................................

generating ANC from exact Hessian ...
Using Lindh-Hessian (1995)
 Shifting diagonal of input Hessian by   3.891004870991891E-003
 Lowest  eigenvalues of input Hessian
    0.000000    0.000000    0.000000    0.000000    0.000000    0.000000
    0.010000    0.011717    0.014104    0.024820    0.043535    0.048113
    0.057636    0.061785    0.077581    0.083179    0.083943    0.103695
 Highest eigenvalues
    1.135282    1.142067    1.255488    1.541919    1.922819    2.248097
 

........................................................................
.............................. CYCLE    1 ..............................
........................................................................

 iter      E             dE          RMSdq      gap      omega  full diag
   1    -17.1956806 -0.171957E+02  0.342E-05    5.03       0.0  T
   2    -17.1956806 -0.731859E-11  0.115E-05    5.03    2507.8  T
   3    -17.1956806 -0.112266E-11  0.515E-06    5.03    5599.9  T
     SCC iter.                  ...        0 min,  0.001 sec
     gradient                   ...        0 min,  0.001 sec
 * total energy  :   -16.9948692 Eh     change       -0.1209699E-10 Eh
   gradient norm :     0.0275726 Eh/α   predicted     0.0000000E+00 (-100.00%)
   displ. norm   :     0.0911391 α      lambda       -0.9272163E-03
   maximum displ.:     0.0624220 α      in ANC's #2, #7, #1, ...

........................................................................
.............................. CYCLE    2 ..............................
........................................................................

 iter      E             dE          RMSdq      gap      omega  full diag
   1    -17.2036319 -0.172036E+02  0.991E-02    5.13       0.0  T
   2    -17.2036509 -0.190166E-04  0.561E-02    5.12       1.0  T
   3    -17.2036517 -0.768501E-06  0.249E-02    5.13       1.2  T
   4    -17.2036525 -0.832393E-06  0.512E-03    5.12       5.6  T
   5    -17.2036526 -0.572174E-07  0.227E-03    5.13      12.7  T
   6    -17.2036526 -0.447798E-08  0.619E-04    5.13      46.6  T
   7    -17.2036526 -0.282821E-09  0.297E-04    5.13      97.3  T
     SCC iter.                  ...        0 min,  0.001 sec
     gradient                   ...        0 min,  0.001 sec
 * total energy  :   -16.9954185 Eh     change       -0.5493226E-03 Eh
   gradient norm :     0.0075135 Eh/α   predicted    -0.4674608E-03 ( -14.90%)
   displ. norm   :     0.0348465 α      lambda       -0.7667241E-04
   maximum displ.:     0.0213376 α      in ANC's #1, #2, #3, ...

........................................................................
.............................. CYCLE    3 ..............................
........................................................................

 iter      E             dE          RMSdq      gap      omega  full diag
   1    -17.2055295 -0.172055E+02  0.304E-02    5.15       0.0  T
   2    -17.2055321 -0.262617E-05  0.161E-02    5.15       1.8  T
   3    -17.2055321 -0.654323E-07  0.777E-03    5.15       3.7  T
   4    -17.2055322 -0.191831E-07  0.149E-03    5.15      19.4  T
   5    -17.2055322 -0.919916E-08  0.553E-04    5.15      52.2  T
   6    -17.2055322 -0.306763E-09  0.147E-04    5.15     195.8  T
     SCC iter.                  ...        0 min,  0.001 sec
     gradient                   ...        0 min,  0.001 sec
 * total energy  :   -16.9954629 Eh     change       -0.4434867E-04 Eh
   gradient norm :     0.0020912 Eh/α   predicted    -0.3838300E-04 ( -13.45%)
   displ. norm   :     0.0229462 α      lambda       -0.1059503E-04
   maximum displ.:     0.0181640 α      in ANC's #1, #3, #2, ...

........................................................................
.............................. CYCLE    4 ..............................
........................................................................

 iter      E             dE          RMSdq      gap      omega  full diag
   1    -17.2055084 -0.172055E+02  0.112E-02    5.15       0.0  T
   2    -17.2055086 -0.237440E-06  0.612E-03    5.15       4.7  T
   3    -17.2055086 -0.436571E-08  0.265E-03    5.15      10.9  T
   4    -17.2055086 -0.145485E-08  0.383E-04    5.15      75.4  T
   5    -17.2055086 -0.402373E-09  0.190E-04    5.15     152.0  T
     SCC iter.                  ...        0 min,  0.001 sec
     gradient                   ...        0 min,  0.001 sec
 * total energy  :   -16.9954699 Eh     change       -0.7017817E-05 Eh
   gradient norm :     0.0009225 Eh/α   predicted    -0.5298998E-05 ( -24.49%)
   displ. norm   :     0.0265821 α      lambda       -0.4004217E-05
   maximum displ.:     0.0223515 α      in ANC's #1, #3, #4, ...

........................................................................
.............................. CYCLE    5 ..............................
........................................................................

 iter      E             dE          RMSdq      gap      omega  full diag
   1    -17.2051927 -0.172052E+02  0.128E-02    5.15       0.0  T
   2    -17.2051928 -0.109107E-06  0.743E-03    5.15       3.9  T
   3    -17.2051928  0.914060E-09  0.221E-03    5.15      13.1  T
   4    -17.2051928 -0.105850E-07  0.409E-04    5.15      70.6  T
   5    -17.2051928 -0.564498E-09  0.205E-04    5.15     140.8  T
     SCC iter.                  ...        0 min,  0.001 sec
     gradient                   ...        0 min,  0.001 sec
 * total energy  :   -16.9954725 Eh     change       -0.2610459E-05 Eh
   gradient norm :     0.0007941 Eh/α   predicted    -0.2004003E-05 ( -23.23%)
   displ. norm   :     0.0104045 α      lambda       -0.1247418E-05
   maximum displ.:     0.0074520 α      in ANC's #1, #2, #3, ...

........................................................................
.............................. CYCLE    6 ..............................
........................................................................

 iter      E             dE          RMSdq      gap      omega  full diag
   1    -17.2051964 -0.172052E+02  0.542E-03    5.15       0.0  T
   2    -17.2051964 -0.179682E-07  0.320E-03    5.15       9.0  T
   3    -17.2051964 -0.777419E-09  0.709E-04    5.15      40.7  T
   4    -17.2051964 -0.274412E-09  0.135E-04    5.15     214.6  T
     SCC iter.                  ...        0 min,  0.001 sec
     gradient                   ...        0 min,  0.001 sec
 * total energy  :   -16.9954736 Eh     change       -0.1036566E-05 Eh
   gradient norm :     0.0004290 Eh/α   predicted    -0.6231618E-06 ( -39.88%)
   displ. norm   :     0.0076082 α      lambda       -0.6307458E-06
   maximum displ.:     0.0060453 α      in ANC's #1, #2, #10, ...

........................................................................
.............................. CYCLE    7 ..............................
........................................................................

 iter      E             dE          RMSdq      gap      omega  full diag
   1    -17.2053025 -0.172053E+02  0.547E-03    5.15       0.0  T
   2    -17.2053026 -0.262612E-07  0.321E-03    5.15       9.0  T
   3    -17.2053026 -0.522803E-09  0.951E-04    5.15      30.3  T
   4    -17.2053026 -0.682487E-09  0.165E-04    5.15     175.1  T
     SCC iter.                  ...        0 min,  0.001 sec
     gradient                   ...        0 min,  0.001 sec
 * total energy  :   -16.9954740 Eh     change       -0.4831659E-06 Eh
   gradient norm :     0.0001679 Eh/α   predicted    -0.3149954E-06 ( -34.81%)
   displ. norm   :     0.0062255 α      lambda       -0.2005830E-06
   maximum displ.:     0.0057949 α      in ANC's #1, #8, #3, ...

........................................................................
.............................. CYCLE    8 ..............................
........................................................................

 iter      E             dE          RMSdq      gap      omega  full diag
   1    -17.2053010 -0.172053E+02  0.352E-03    5.15       0.0  T
   2    -17.2053010 -0.692644E-09  0.209E-03    5.15      13.8  T
   3    -17.2053010 -0.365667E-09  0.121E-04    5.15     238.7  T
   4    -17.2053010 -0.997957E-11  0.721E-05    5.15     400.4  T
     SCC iter.                  ...        0 min,  0.001 sec
     gradient                   ...        0 min,  0.001 sec
 * total energy  :   -16.9954743 Eh     change       -0.2634300E-06 Eh
   gradient norm :     0.0001391 Eh/α   predicted    -0.9974661E-07 ( -62.14%)
   displ. norm   :     0.0128355 α      lambda       -0.4016658E-06
   maximum displ.:     0.0100490 α      in ANC's #1, #3, #4, ...

........................................................................
.............................. CYCLE    9 ..............................
........................................................................

 iter      E             dE          RMSdq      gap      omega  full diag
   1    -17.2052727 -0.172053E+02  0.727E-03    5.15       0.0  T
   2    -17.2052727 -0.282131E-08  0.431E-03    5.15       6.7  T
   3    -17.2052727 -0.156657E-08  0.255E-04    5.15     113.1  T
   4    -17.2052727 -0.646665E-10  0.151E-04    5.15     191.5  T
     SCC iter.                  ...        0 min,  0.000 sec
     gradient                   ...        0 min,  0.001 sec
 * total energy  :   -16.9954748 Eh     change       -0.5068309E-06 Eh
   gradient norm :     0.0001588 Eh/α   predicted    -0.1986950E-06 ( -60.80%)
   displ. norm   :     0.0267687 α      lambda       -0.6366702E-06
   maximum displ.:     0.0196954 α      in ANC's #1, #3, #4, ...

........................................................................
.............................. CYCLE   10 ..............................
........................................................................

 iter      E             dE          RMSdq      gap      omega  full diag
   1    -17.2052485 -0.172052E+02  0.149E-02    5.15       0.0  T
   2    -17.2052485 -0.979570E-08  0.881E-03    5.15       3.3  T
   3    -17.2052485 -0.628703E-08  0.465E-04    5.15      62.0  T
   4    -17.2052485 -0.113356E-09  0.104E-04    5.15     278.8  T
     SCC iter.                  ...        0 min,  0.000 sec
     gradient                   ...        0 min,  0.001 sec
 * total energy  :   -16.9954756 Eh     change       -0.7916932E-06 Eh
   gradient norm :     0.0002604 Eh/α   predicted    -0.3176801E-06 ( -59.87%)
   displ. norm   :     0.0406779 α      lambda       -0.7940355E-06
   maximum displ.:     0.0297173 α      in ANC's #1, #3, #4, ...

........................................................................
.............................. CYCLE   11 ..............................
........................................................................

 iter      E             dE          RMSdq      gap      omega  full diag
   1    -17.2052168 -0.172052E+02  0.220E-02    5.15       0.0  T
   2    -17.2052169 -0.204841E-07  0.130E-02    5.15       2.2  T
   3    -17.2052169 -0.130152E-07  0.663E-04    5.15      43.5  T
   4    -17.2052169 -0.199989E-09  0.285E-04    5.15     101.5  T
     SCC iter.                  ...        0 min,  0.000 sec
     gradient                   ...        0 min,  0.001 sec
 * total energy  :   -16.9954766 Eh     change       -0.9942319E-06 Eh
   gradient norm :     0.0003312 Eh/α   predicted    -0.3966390E-06 ( -60.11%)
   displ. norm   :     0.0452252 α      lambda       -0.8262418E-06
   maximum displ.:     0.0324591 α      in ANC's #1, #3, #4, ...

........................................................................
.............................. CYCLE   12 ..............................
........................................................................

 iter      E             dE          RMSdq      gap      omega  full diag
   1    -17.2052017 -0.172052E+02  0.237E-02    5.15       0.0  T
   2    -17.2052017 -0.237559E-07  0.140E-02    5.15       2.1  T
   3    -17.2052017 -0.147732E-07  0.693E-04    5.15      41.6  T
   4    -17.2052017 -0.221362E-09  0.325E-04    5.15      88.9  T
     SCC iter.                  ...        0 min,  0.000 sec
     gradient                   ...        0 min,  0.001 sec
 * total energy  :   -16.9954777 Eh     change       -0.1096058E-05 Eh
   gradient norm :     0.0003062 Eh/α   predicted    -0.4139644E-06 ( -62.23%)
   displ. norm   :     0.0513313 α      lambda       -0.9939235E-06
   maximum displ.:     0.0369691 α      in ANC's #1, #3, #4, ...

........................................................................
.............................. CYCLE   13 ..............................
........................................................................

 iter      E             dE          RMSdq      gap      omega  full diag
   1    -17.2052116 -0.172052E+02  0.263E-02    5.15       0.0  T
   2    -17.2052116 -0.307801E-07  0.155E-02    5.15       1.9  T
   3    -17.2052116 -0.182994E-07  0.767E-04    5.15      37.6  T
   4    -17.2052116 -0.266436E-09  0.386E-04    5.15      74.8  T
     SCC iter.                  ...        0 min,  0.000 sec
     gradient                   ...        0 min,  0.001 sec
 * total energy  :   -16.9954790 Eh     change       -0.1283133E-05 Eh
   gradient norm :     0.0002399 Eh/α   predicted    -0.4956846E-06 ( -61.37%)
   displ. norm   :     0.0459695 α      lambda       -0.8165957E-06
   maximum displ.:     0.0334418 α      in ANC's #1, #3, #4, ...

........................................................................
.............................. CYCLE   14 ..............................
........................................................................

 iter      E             dE          RMSdq      gap      omega  full diag
   1    -17.2052359 -0.172052E+02  0.231E-02    5.15       0.0  T
   2    -17.2052359 -0.258665E-07  0.136E-02    5.15       2.1  T
   3    -17.2052359 -0.148548E-07  0.693E-04    5.15      41.7  T
   4    -17.2052359 -0.206452E-09  0.325E-04    5.15      88.7  T
     SCC iter.                  ...        0 min,  0.000 sec
     gradient                   ...        0 min,  0.001 sec
 * total energy  :   -16.9954800 Eh     change       -0.1007654E-05 Eh
   gradient norm :     0.0001599 Eh/α   predicted    -0.4081020E-06 ( -59.50%)
   displ. norm   :     0.0311478 α      lambda       -0.4051740E-06
   maximum displ.:     0.0236711 α      in ANC's #1, #3, #4, ...

........................................................................
.............................. CYCLE   15 ..............................
........................................................................

 iter      E             dE          RMSdq      gap      omega  full diag
   1    -17.2052661 -0.172053E+02  0.156E-02    5.15       0.0  T
   2    -17.2052661 -0.122447E-07  0.913E-03    5.15       3.2  T
   3    -17.2052661 -0.693520E-08  0.483E-04    5.15      59.8  T
   4    -17.2052661 -0.971205E-10  0.233E-04    5.15     124.0  T
     SCC iter.                  ...        0 min,  0.001 sec
     gradient                   ...        0 min,  0.001 sec
 * total energy  :   -16.9954805 Eh     change       -0.4975221E-06 Eh
   gradient norm :     0.0000766 Eh/α   predicted    -0.2037519E-06 ( -59.05%)
   displ. norm   :     0.0164588 α      lambda       -0.1446117E-06
   maximum displ.:     0.0128764 α      in ANC's #1, #3, #4, ...

........................................................................
.............................. CYCLE   16 ..............................
........................................................................

 iter      E             dE          RMSdq      gap      omega  full diag
   1    -17.2052742 -0.172053E+02  0.823E-03    5.15       0.0  T
   2    -17.2052742 -0.333538E-08  0.483E-03    5.15       6.0  T
   3    -17.2052742 -0.194424E-08  0.251E-04    5.15     115.1  T
   4    -17.2052742 -0.277680E-10  0.734E-05    5.15     393.5  T
     SCC iter.                  ...        0 min,  0.000 sec
     gradient                   ...        0 min,  0.001 sec
 * total energy  :   -16.9954807 Eh     change       -0.1825640E-06 Eh
   gradient norm :     0.0000510 Eh/α   predicted    -0.7051712E-07 ( -61.37%)
   displ. norm   :     0.0078710 α      lambda       -0.6041955E-07
   maximum displ.:     0.0065972 α      in ANC's #1, #3, #4, ...

........................................................................
.............................. CYCLE   17 ..............................
........................................................................

 iter      E             dE          RMSdq      gap      omega  full diag
   1    -17.2052852 -0.172053E+02  0.398E-03    5.15       0.0  T
   2    -17.2052852 -0.861291E-09  0.234E-03    5.15      12.3  T
   3    -17.2052852 -0.400913E-09  0.132E-04    5.15     219.0  T
   4    -17.2052852 -0.345537E-10  0.784E-05    5.15     368.0  T
     SCC iter.                  ...        0 min,  0.000 sec
     gradient                   ...        0 min,  0.001 sec
 * total energy  :   -16.9954807 Eh     change       -0.7844634E-07 Eh
   gradient norm :     0.0000399 Eh/α   predicted    -0.2894981E-07 ( -63.10%)
   displ. norm   :     0.0050557 α      lambda       -0.3651081E-07
   maximum displ.:     0.0043019 α      in ANC's #1, #3, #4, ...

   *** GEOMETRY OPTIMIZATION CONVERGED AFTER 17 ITERATIONS ***

------------------------------------------------------------------------
 total energy gain   :        -0.0006115 Eh       -0.3837 kcal/mol
 total RMSD          :         0.1028042 a0        0.0544 Å
 total power (kW/mol):        -0.0944440 (step)  -28.8140 (real)
------------------------------------------------------------------------

 ANCopt (total)                0 d,  0 h,  0 min,  0.056 sec
 optimizer setup                ...        0 min,  0.000 sec (  0.506%)
 model hessian                  ...        0 min,  0.001 sec (  2.354%)
 ANC generation                 ...        0 min,  0.000 sec (  0.276%)
 coordinate transformation      ...        0 min,  0.000 sec (  0.099%)
 single point calculation       ...        0 min,  0.047 sec ( 85.003%)
 optimization log               ...        0 min,  0.005 sec (  9.328%)
 hessian update                 ...        0 min,  0.000 sec (  0.103%)
 rational function              ...        0 min,  0.001 sec (  1.319%)

================
 final structure:
================
$coord
       -3.65084842480817        0.91302903894913       -0.14694489356306      C
       -1.68096052738347       -1.11731111932782        0.38212359370728      C
        1.06217937988869       -0.28955513321442        0.36604745815293      C
        2.76796395554452       -1.83027053315043        0.72806795344813      O
        1.54912471595218        2.15287721755289       -0.04810168234135      N
       -3.59523395677587        2.39116279353644        1.27871279720797      H
       -3.38476612606989        1.73572792786437       -2.01051712858606      H
       -5.52020166644642        0.06252001773043       -0.09620433991023      H
       -1.83317568544257       -2.64200743836951       -1.00177832868672      H
       -2.01506105987791       -1.97473158176875        2.23072795758206      H
        0.16016093932837        3.41242392569721       -0.34489919376504      H
        3.36170556095863        2.73202237531153       -0.06249967791437      H
$end
 
 Bond Distances (Angstroems)
 ---------------------------
C1-C2=1.5230         C1-H6=1.0871         C1-H7=1.0871         C1-H8=1.0871         C2-C1=1.5230         C2-C3=1.5163         
C2-H9=1.0926         C2-H10=1.0927        C3-C2=1.5163         C3-O4=1.2314         C3-N5=1.3360         O4-C3=1.2314         
N5-C3=1.3360         N5-H11=1.0046        N5-H12=1.0070        H6-C1=1.0871         H7-C1=1.0871         H8-C1=1.0871         
H9-C2=1.0926         H10-C2=1.0927        H11-N5=1.0046        H12-N5=1.0070        
 C  H  Rav=1.0893 sigma=0.0027  Rmin=1.0871  Rmax=1.0927     5
 C  C  Rav=1.5196 sigma=0.0033  Rmin=1.5163  Rmax=1.5230     2
 N  H  Rav=1.0058 sigma=0.0012  Rmin=1.0046  Rmax=1.0070     2
 N  C  Rav=1.3360 sigma=0.0000  Rmin=1.3360  Rmax=1.3360     1
 O  C  Rav=1.2314 sigma=0.0000  Rmin=1.2314  Rmax=1.2314     1
 
 selected bond angles (degree)
 --------------------
H6-C1-C2=111.19                H7-C1-C2=111.14                H7-C1-H6=109.75                H8-C1-C2=109.04                
H8-C1-H6=107.78                H8-C1-H7=107.82                C3-C2-C1=116.77                H9-C2-C1=110.32                
H9-C2-C3=106.27                H10-C2-C1=110.29               H10-C2-C3=106.25               H10-C2-H9=106.35               
O4-C3-C2=120.64                N5-C3-C2=117.71                N5-C3-O4=121.65                H11-N5-C3=121.76               
H12-N5-C3=118.65               H12-N5-H11=119.59              
 
 selected dihedral angles (degree)
 ---------------------------------
C3-C2-C1-H6=298.15            C3-C2-C1-H7= 60.72            C3-C2-C1-H8=179.45            H9-C2-C1-H6=176.72            
H9-C2-C1-H7=299.29            H9-C2-C1-H8= 58.02            H10-C2-C1-H6= 59.53           H10-C2-C1-H7=182.11           
H10-C2-C1-H8=300.83           O4-C3-C2-C1=181.44            O4-C3-C2-H9=304.97            O4-C3-C2-H10= 57.96           
N5-C3-C2-C1=  1.54            N5-C3-C2-H9=125.08            N5-C3-C2-H10=238.06           H11-N5-C3-C2=359.85           
H11-N5-C3-O4=179.96           H12-N5-C3-C2=179.93           H12-N5-C3-O4=  0.04           
           -------------------------------------------------
          |                Final Singlepoint                |
           -------------------------------------------------

          ...................................................
          :                      SETUP                      :
          :.................................................:
          :  # basis functions                  27          :
          :  # atomic orbitals                  27          :
          :  # shells                           17          :
          :  # electrons                        30          :
          :  max. iterations                   250          :
          :  Hamiltonian                  GFN2-xTB          :
          :  restarted?                      false          :
          :  GBSA solvation                   true          :
          :  PC potential                    false          :
          :  electronic temp.          300.0000000     K    :
          :  accuracy                    1.0000000          :
          :  -> integral cutoff          0.2500000E+02      :
          :  -> integral neglect         0.1000000E-07      :
          :  -> SCF convergence          0.1000000E-05 Eh   :
          :  -> wf. convergence          0.1000000E-03 e    :
          :  Broyden damping             0.4000000          :
          :  net charge                          0          :
          :  unpaired electrons                  0          :
          ...................................................

 iter      E             dE          RMSdq      gap      omega  full diag
   1    -17.2052852 -0.172053E+02  0.275E-05    5.15       0.0  T
   2    -17.2052852 -0.976996E-12  0.171E-05    5.15    1687.6  T
   3    -17.2052852 -0.131450E-12  0.884E-06    5.15    3264.8  T

   *** convergence criteria satisfied after 3 iterations ***

         #    Occupation            Energy/Eh            Energy/eV
      -------------------------------------------------------------
         1        2.0000           -0.6975757             -18.9820
       ...           ...                  ...                  ...
         9        2.0000           -0.4924174             -13.3994
        10        2.0000           -0.4874772             -13.2649
        11        2.0000           -0.4707627             -12.8101
        12        2.0000           -0.4551416             -12.3850
        13        2.0000           -0.4399534             -11.9717
        14        2.0000           -0.4169742             -11.3464
        15        2.0000           -0.3947079             -10.7405 (HOMO)
        16                         -0.2054085              -5.5894 (LUMO)
        17                          0.0266449               0.7250
        18                          0.0931767               2.5355
        19                          0.1307989               3.5592
        20                          0.1630720               4.4374
       ...                                ...                  ...
        27                          0.5843576              15.9012
      -------------------------------------------------------------
                  HL-Gap            0.1892994 Eh            5.1511 eV
             Fermi-level           -0.3000582 Eh           -8.1650 eV

 SCC (total)                   0 d,  0 h,  0 min,  0.003 sec
 SCC setup                      ...        0 min,  0.000 sec ( 16.924%)
 Dispersion                     ...        0 min,  0.000 sec (  0.958%)
 classical contributions        ...        0 min,  0.000 sec (  0.268%)
 integral evaluation            ...        0 min,  0.000 sec ( 15.430%)
 iterations                     ...        0 min,  0.001 sec ( 18.020%)
 molecular gradient             ...        0 min,  0.001 sec ( 45.063%)
 printout                       ...        0 min,  0.000 sec (  2.964%)

         :::::::::::::::::::::::::::::::::::::::::::::::::::::
         ::                     SUMMARY                     ::
         :::::::::::::::::::::::::::::::::::::::::::::::::::::
         :: total energy             -16.995480746148 Eh    ::
         :: total w/o Gsasa/hb       -16.991748267535 Eh    ::
         :: gradient norm              0.000039973932 Eh/a0 ::
         :: HOMO-LUMO gap              5.151100191735 eV    ::
         ::.................................................::
         :: SCC energy               -17.205280444684 Eh    ::
         :: -> isotropic ES            0.066789475721 Eh    ::
         :: -> anisotropic ES          0.000252872592 Eh    ::
         :: -> anisotropic XC          0.006326352088 Eh    ::
         :: -> dispersion             -0.005632591638 Eh    ::
         :: -> Gsolv                  -0.019086699168 Eh    ::
         ::    -> Gelec               -0.015354220555 Eh    ::
         ::    -> Gsasa                0.000892129976 Eh    ::
         ::    -> Ghb                 -0.005705368287 Eh    ::
         ::    -> Gshift               0.001080759698 Eh    ::
         :: repulsion energy           0.209799698537 Eh    ::
         :: add. restraining           0.000000000000 Eh    ::
         :: total charge              -0.000000000000 e     ::
         :::::::::::::::::::::::::::::::::::::::::::::::::::::

           ------------------------------------------------- 
          |                Numerical Hessian                |
           ------------------------------------------------- 
step length          :   0.00500
SCC accuracy         :   0.30000
Hessian scale factor :   1.00000
frozen atoms in %    :   0.00000    0
RMS gradient         :   0.00004
estimated CPU  time      0.00 min
estimated wall time      0.00 min

writing file <hessian>.

 projected vibrational frequencies (cm⁻¹)
eigval :       -0.00    -0.00    -0.00    -0.00     0.00     0.00
eigval :       29.39   265.61   283.45   390.93   475.24   501.03
eigval :      505.43   616.30   802.43   826.20  1016.45  1041.20
eigval :     1064.64  1107.99  1225.82  1309.58  1318.37  1404.14
eigval :     1422.77  1451.63  1499.21  1506.03  1648.11  2966.27
eigval :     2986.84  3032.13  3037.53  3047.09  3464.38  3536.13
           -------------------------------------------------
          |                Property Printout                |
           -------------------------------------------------

    * Orbital Energies and Occupations

         #    Occupation            Energy/Eh            Energy/eV
      -------------------------------------------------------------
         1        2.0000           -0.6975757             -18.9820
       ...           ...                  ...                  ...
         3        2.0000           -0.6263369             -17.0435
         4        2.0000           -0.5931835             -16.1413
         5        2.0000           -0.5710661             -15.5395
         6        2.0000           -0.5516947             -15.0124
         7        2.0000           -0.5378989             -14.6370
         8        2.0000           -0.5290100             -14.3951
         9        2.0000           -0.4924174             -13.3994
        10        2.0000           -0.4874772             -13.2649
        11        2.0000           -0.4707627             -12.8101
        12        2.0000           -0.4551416             -12.3850
        13        2.0000           -0.4399534             -11.9717
        14        2.0000           -0.4169742             -11.3464
        15        2.0000           -0.3947079             -10.7405 (HOMO)
        16                         -0.2054085              -5.5895 (LUMO)
        17                          0.0266449               0.7250
        18                          0.0931766               2.5355
        19                          0.1307989               3.5592
        20                          0.1630720               4.4374
        21                          0.1699723               4.6252
        22                          0.1946568               5.2969
        23                          0.2413620               6.5678
        24                          0.2634308               7.1683
        25                          0.2809694               7.6456
        26                          0.4108898              11.1809
        27                          0.5843575              15.9012
      -------------------------------------------------------------
                  HL-Gap            0.1892994 Eh            5.1511 eV
             Fermi-level           -0.3000582 Eh           -8.1650 eV

     #   Z          covCN         q      C6AA      α(0)
     1   6 C        3.751    -0.124    22.950     6.832
     2   6 C        3.803    -0.094    22.295     6.722
     3   6 C        2.742     0.287    22.141     7.704
     4   8 O        0.859    -0.559    25.139     6.722
     5   7 N        2.637    -0.291    27.500     7.788
     6   1 H        0.925     0.054     2.271     2.357
     7   1 H        0.925     0.054     2.273     2.357
     8   1 H        0.925     0.056     2.244     2.343
     9   1 H        0.924     0.068     2.112     2.273
    10   1 H        0.924     0.068     2.105     2.269
    11   1 H        0.860     0.242     0.914     1.497
    12   1 H        0.860     0.240     0.923     1.505

 Mol. C6AA /au·bohr⁶  :       1137.426914
 Mol. C8AA /au·bohr⁸  :      24245.991543
 Mol. α(0) /au        :         50.370296


Wiberg/Mayer (AO) data.
largest (>0.10) Wiberg bond orders for each atom

 ---------------------------------------------------------------------------
     #   Z sym  total        # sym  WBO       # sym  WBO       # sym  WBO
 ---------------------------------------------------------------------------
     1   6 C    3.993 --     2 C    1.021     7 H    0.984     6 H    0.984
                             8 H    0.984
     2   6 C    3.993 --     1 C    1.021     3 C    0.977     9 H    0.956
                            10 H    0.955
     3   6 C    3.938 --     4 O    1.600     5 N    1.330     2 C    0.977
     4   8 O    1.893 --     3 C    1.600     5 N    0.194
     5   7 N    3.403 --     3 C    1.330    12 H    0.921    11 H    0.916
                             4 O    0.194
     6   1 H    0.997 --     1 C    0.984
     7   1 H    0.997 --     1 C    0.984
     8   1 H    0.997 --     1 C    0.984
     9   1 H    0.995 --     2 C    0.956
    10   1 H    0.995 --     2 C    0.955
    11   1 H    0.941 --     5 N    0.916
    12   1 H    0.942 --     5 N    0.921
 ---------------------------------------------------------------------------

Topologies differ in total number of bonds
Writing topology from bond orders to xtbtopo.mol

molecular dipole:
                 x           y           z       tot (Debye)
 q only:       -1.183       1.701      -0.365
   full:       -1.245       1.793      -0.383       5.632
molecular quadrupole (traceless):
                xx          xy          yy          xz          yz          zz
 q only:       -1.771       6.225       2.336      -1.648       0.496      -0.565
  q+dip:       -2.229       7.761       2.304      -2.024       0.734      -0.075
   full:       -2.361       7.457       2.139      -1.982       0.794       0.222

           -------------------------------------------------
          |                Geometry Summary                 |
           -------------------------------------------------

      molecular mass/u    :       73.0939011
   center of mass at/Å    :        0.0128443       0.0050871       0.1316868
  moments of inertia/u·Å² :        0.5297996E+02   0.1296486E+03   0.1763453E+03
rotational constants/cm⁻¹ :        0.3181888E+00   0.1300256E+00   0.9559444E-01

 * 10 selected distances

     #   Z          #   Z                                           value/Å
     1   6 C        2   6 C                                       1.5229509 (max)
     3   6 C        4   8 O                                       1.2313540
     3   6 C        5   7 N                                       1.3360139
     1   6 C        6   1 H                                       1.0871305
     1   6 C        7   1 H                                       1.0871386
     1   6 C        8   1 H                                       1.0871240
     2   6 C        9   1 H                                       1.0926008
     2   6 C       10   1 H                                       1.0927390
     5   7 N       11   1 H                                       1.0045684 (min)
     5   7 N       12   1 H                                       1.0069766

 * 5 distinct bonds (by element types)

   Z      Z             #   av. dist./Å        max./Å        min./Å
   1 H    6 C           5     1.0893466     1.0927390     1.0871240
   6 C    6 C           1     1.5229509     1.5229509     1.5229509
   1 H    7 N           2     1.0057725     1.0069766     1.0045684
   6 C    7 N           1     1.3360139     1.3360139     1.3360139
   6 C    8 O           1     1.2313540     1.2313540     1.2313540

           -------------------------------------------------
          |               Frequency Printout                |
           -------------------------------------------------
 projected vibrational frequencies (cm⁻¹)
eigval :       -0.00    -0.00    -0.00    -0.00     0.00     0.00
eigval :       29.39   265.61   283.45   390.93   475.24   501.03
eigval :      505.43   616.30   802.43   826.20  1016.45  1041.20
eigval :     1064.64  1107.99  1225.82  1309.58  1318.37  1404.14
eigval :     1422.77  1451.63  1499.21  1506.03  1648.11  2966.27
eigval :     2986.84  3032.13  3037.53  3047.09  3464.38  3536.13
 reduced masses (amu)
   1: 10.66   2: 13.34   3: 11.74   4: 12.39   5: 11.32   6: 10.30   7:  8.63   8:  2.30
   9:  9.85  10:  3.05  11:  9.93  12:  4.74  13: 11.30  14:  5.25  15:  4.30  16:  8.68
  17:  7.16  18:  4.85  19:  4.81  20:  8.57  21:  2.82  22:  5.71  23:  6.14  24:  3.10
  25:  7.25  26:  2.77  27:  1.57  28:  1.54  29: 12.93  30:  1.95  31:  1.51  32:  1.82
  33:  1.97  34:  1.36  35:  1.44  36:  2.19
 IR intensities (km·mol⁻¹)
   1:  3.45   2:  2.68   3:  3.23   4:  6.26   5:  3.21   6:  6.18   7: 14.35   8: 13.90
   9: 12.64  10:231.00  11: 16.13  12: 23.78  13: 21.53  14: 41.42  15: 32.92  16: 17.00
  17: 37.71  18:  4.24  19:  1.24  20:  2.76  21:  0.45  22: 74.68  23: 41.69  24:  2.54
  25:311.19  26: 14.89  27:  1.45  28:  3.41  29:834.69  30: 21.78  31: 27.38  32: 45.32
  33: 52.42  34: 29.82  35: 66.27  36: 85.57
 Raman intensities (Ä⁴*amu⁻¹)
   1:  0.00   2:  0.00   3:  0.00   4:  0.00   5:  0.00   6:  0.00   7:  0.00   8:  0.00
   9:  0.00  10:  0.00  11:  0.00  12:  0.00  13:  0.00  14:  0.00  15:  0.00  16:  0.00
  17:  0.00  18:  0.00  19:  0.00  20:  0.00  21:  0.00  22:  0.00  23:  0.00  24:  0.00
  25:  0.00  26:  0.00  27:  0.00  28:  0.00  29:  0.00  30:  0.00  31:  0.00  32:  0.00
  33:  0.00  34:  0.00  35:  0.00  36:  0.00
 output can be read by thermo (or use thermo option).
 writing <g98.out> molden fake output.
 recommended (thermochemical) frequency scaling factor: 1.0
           -------------------------------------------------
          |             Thermodynamic Functions             |
           -------------------------------------------------

Molecule has the following symmetry elements: (sigma) 
It seems to be the Cs point group
cs  symmetry found (for desy threshold:  0.10E+00) used in thermo

          ...................................................
          :                      SETUP                      :
          :.................................................:
          :  # frequencies                          30      :
          :  # imaginary freq.                       0      :
          :  linear?                             false      :
          :  only rotor calc.                    false      :
          :  symmetry                               cs      :
          :  rotational number                       1      :
          :  scaling factor                  1.0000000      :
          :  rotor cutoff                    0.0000000 cm⁻¹ :
          :  imag. cutoff                 -100.0000000 cm⁻¹ :
          :.................................................:

    mode    ω/cm⁻¹     T·S(HO)/kcal·mol⁻¹    T·S(FR)/kcal·mol⁻¹   T·S(vib)
   ------------------------------------------------------------------------
       1     29.39    -1.75025 (100.00%)    -1.21258 (  0.00%)    -1.75025
       2    265.61    -0.48437 (100.00%)    -0.56167 (  0.00%)    -0.48437
       3    283.45    -0.45103 (100.00%)    -0.54242 (  0.00%)    -0.45103
   ------------------------------------------------------------------------

   temp. (K)  partition function   enthalpy   heat capacity  entropy
                                   cal/mol     cal/K/mol   cal/K/mol   J/K/mol
 298.15  VIB   25.2                 2056.671     15.192     13.309
         ROT  0.841E+05              888.752      2.981     25.515
         INT  0.212E+07             2945.424     18.173     38.824
         TR   0.605E+27             1481.254      4.968     38.766
         TOT                        4426.6775    23.1412    77.5900   324.6366

       T/K    H(0)-H(T)+PV         H(T)/Eh          T*S/Eh         G(T)/Eh
   ------------------------------------------------------------------------
    298.15    0.705436E-02    0.106798E+00    0.368655E-01    0.699323E-01
   ------------------------------------------------------------------------

         :::::::::::::::::::::::::::::::::::::::::::::::::::::
         ::                  THERMODYNAMIC                  ::
         :::::::::::::::::::::::::::::::::::::::::::::::::::::
         :: total free energy         -16.925548434785 Eh   ::
         ::.................................................::
         :: total energy              -16.995480746102 Eh   ::
         :: zero point energy           0.099743463295 Eh   ::
         :: G(RRHO) w/o ZPVE           -0.029811151977 Eh   ::
         :: G(RRHO) contrib.            0.069932311317 Eh   ::
         :::::::::::::::::::::::::::::::::::::::::::::::::::::

optimized geometry written to: xtbopt.coord


           -------------------------------------------------
          | TOTAL ENERGY              -16.995480746102 Eh   |
          | TOTAL ENTHALPY            -16.888682923138 Eh   |
          | TOTAL FREE ENERGY         -16.925548434785 Eh   |
          | GRADIENT NORM               0.000039969677 Eh/α |
          | HOMO-LUMO GAP               5.151098680873 eV   |
           -------------------------------------------------

------------------------------------------------------------------------
 * finished run on 2025/04/04 at 13:27:23.020     
------------------------------------------------------------------------
 total:
 * wall-time:     0 d,  0 h,  0 min,  0.350 sec
 *  cpu-time:     0 d,  0 h,  0 min,  0.271 sec
 * ratio c/w:     0.775 speedup
 SCF:
 * wall-time:     0 d,  0 h,  0 min,  0.018 sec
 *  cpu-time:     0 d,  0 h,  0 min,  0.006 sec
 * ratio c/w:     0.345 speedup
 ANC optimizer:
 * wall-time:     0 d,  0 h,  0 min,  0.069 sec
 *  cpu-time:     0 d,  0 h,  0 min,  0.055 sec
 * ratio c/w:     0.807 speedup
 analytical hessian:
 * wall-time:     0 d,  0 h,  0 min,  0.209 sec
 *  cpu-time:     0 d,  0 h,  0 min,  0.201 sec
 * ratio c/w:     0.961 speedup

