24
 energy: -32.440064131736 gnorm: 0.034449066737 xtb: 6.7.1 (edcfbbe)
C           -3.43814203450124        0.14714281473919        0.19417545651515
O           -2.22955529838677        0.39882450545489       -0.55556177907374
C           -1.09818165943076       -0.15613242161618       -0.06035840096963
O           -1.09188241113548       -0.82751061931461        0.96212066105523
C            0.09127409155048        0.18407170418160       -0.91995297275003
C            1.03673853571745       -1.01390377040988       -1.12191474774380
C            1.94302682116951       -1.31607051680628        0.07388652031419
C            2.68055845200869       -0.06399180773265        0.54892977026557
C            1.68918163047542        1.04897698098334        0.89287056128570
C            0.82917327669905        1.40515427598454       -0.31815002832023
H           -3.63994739271311       -0.92636725977425        0.23952686189116
H           -4.22932004574380        0.65594984877672       -0.35384879492636
H           -3.35550347652512        0.55152632259555        1.20601849582920
H           -0.31005601492181        0.48372332697433       -1.89248895769306
H            0.44816552807517       -1.89925579092106       -1.38798612121629
H            1.66471451832181       -0.77882061929249       -1.98932200758213
H            1.35112727787862       -1.72049669297827        0.90214044526865
H            2.66005938453207       -2.09256150494335       -0.21414599832230
H            3.30438401340175       -0.30087236561726        1.41850344244246
H            3.35507943498386        0.28698076812597       -0.24550852688384
H            1.04979289608049        0.72350061257387        1.72496331731780
H            2.22159444925042        1.94613360205415        1.23175205425701
H            0.10083917998147        2.18326595260639       -0.06286587487602
H            1.47182086739285        1.81518361879534       -1.10648076978689
24
 energy: -32.441631483936 gnorm: 0.010738585435 xtb: 6.7.1 (edcfbbe)
C           -3.42719800108421        0.14715974710066        0.19498082175149
O           -2.21462385107396        0.38450935997011       -0.53594732285524
C           -1.08837304110773       -0.16141360859769       -0.04811093659812
O           -1.07784819520166       -0.82764842200316        0.96484428083511
C            0.09331650247338        0.18467661215336       -0.91755936303658
C            1.04473059869868       -1.00238721588839       -1.12998400204904
C            1.92708133409384       -1.30752231699399        0.07734807995329
C            2.67230495971347       -0.06062591839301        0.54071293862642
C            1.67753998431239        1.04090303792680        0.88972935820198
C            0.83482651874548        1.40229184596131       -0.32746465128740
H           -3.62327323542714       -0.92428933152283        0.24580997191388
H           -4.20923597408876        0.65916005889313       -0.36006265488909
H           -3.33843300730012        0.54771213342620        1.20488066466437
H           -0.32060773777274        0.48346407679040       -1.88533469794445
H            0.45653386406952       -1.88826498914170       -1.38358373409562
H            1.68155026547866       -0.76803830802643       -1.98773272779491
H            1.31509382592268       -1.69398738050225        0.89683952556725
H            2.64287967139687       -2.08545574791899       -0.20062768708658
H            3.28283563953501       -0.30001887781520        1.41446254707703
H            3.34341643877837        0.28757490273429       -0.25129902451827
H            1.03164988405706        0.70384302182464        1.70688389526430
H            2.21108803356604        1.93184470016311        1.23142234772234
H            0.10509066467784        2.17309295011110       -0.06624472841050
H            1.48459688169802        1.80787063418814       -1.10766029471384
24
 energy: -32.442040738988 gnorm: 0.005459345296 xtb: 6.7.1 (edcfbbe)
C           -3.41018863115478        0.14561129631363        0.19989577649604
O           -2.19723563579640        0.37232056262806       -0.52289446323202
C           -1.07527267412487       -0.16811402284801       -0.04123810555851
O           -1.05661285986796       -0.83038960591727        0.97058353819769
C            0.09696305812264        0.18725293112723       -0.92324349121826
C            1.04838316805296       -0.99644597825026       -1.14030020063400
C            1.91346207096696       -1.30397138067288        0.07823777935367
C            2.66220427147865       -0.06123755063150        0.54312431237346
C            1.66669670123791        1.03932545022383        0.88772403888497
C            0.83571713098393        1.40405469659623       -0.33630456179348
H           -3.61036951218128       -0.92413071709136        0.25640436208939
H           -4.18497562265314        0.65998116983567       -0.35992793552760
H           -3.32202367006351        0.54576658273956        1.20944695966746
H           -0.33181854963373        0.48395525874677       -1.88595814261490
H            0.46362967930184       -1.88130353668799       -1.39961630859699
H            1.69439753105030       -0.75514163595614       -1.98628382130481
H            1.28108307203974       -1.67044409387889        0.88959829104523
H            2.62375336727587       -2.09134464235238       -0.18262980003296
H            3.26765910234653       -0.30143994502743        1.41809408571330
H            3.33013584411805        0.28404723167339       -0.24825264943711
H            1.01181470149926        0.69196909646325        1.68987700595974
H            2.19571727103615        1.92667321507544        1.23969735148601
H            0.10748795666710        2.17603458227000       -0.07977786986247
H            1.49433425345875        1.80142200006071       -1.10995354515590
24
 energy: -32.442193468835 gnorm: 0.003738365586 xtb: 6.7.1 (edcfbbe)
C           -3.39841234492882        0.14348496769875        0.20773077417353
O           -2.18762202029561        0.36434553746913       -0.51645361558807
C           -1.06584429953567       -0.17083316902805       -0.03834955766688
O           -1.03848810350251       -0.83109267823356        0.97591543067412
C            0.10006714388508        0.18862646543992       -0.93041767434692
C            1.05432437559179       -0.99134145038234       -1.15065330822762
C            1.90221805847250       -1.30367624533034        0.07986055319412
C            2.65348971784882       -0.06287475846009        0.54719612340548
C            1.65644315440257        1.03856454532816        0.88759855275024
C            0.83799533710141        1.40538497911028       -0.34556019289456
H           -3.60344229966907       -0.92559448584238        0.26965343637639
H           -4.17129207091885        0.65820169176248       -0.35323230049308
H           -3.31002223581135        0.54615264566011        1.21691457735253
H           -0.33871942839578        0.48348405738745       -1.88929680031037
H            0.47391533276642       -1.87461583607553       -1.42381749734299
H            1.71040488789828       -0.74201915253701       -1.98619072673235
H            1.25376560145903       -1.65746398899891        0.88377315868864
H            2.60751895341962       -2.10000071776926       -0.16569683220293
H            3.25543775247685       -0.30373825038834        1.42396480733717
H            3.32329728837492        0.28093184583412       -0.24267101304393
H            0.99221121917495        0.68682666930094        1.67959360689908
H            2.18083287948864        1.92413480151589        1.24951887540257
H            0.11154698059695        2.18178395187718       -0.09817466210798
H            1.50531614426076        1.79577953910107       -1.11490310899816
24
 energy: -32.442272119223 gnorm: 0.002537359149 xtb: 6.7.1 (edcfbbe)
C           -3.39213286313709        0.14232329760430        0.21637275680682
O           -2.18494080333648        0.35876179579644       -0.51530287548706
C           -1.06118850142778       -0.17266239464278       -0.03983759187618
O           -1.02695719021661       -0.82846539340108        0.97884784681328
C            0.10177643569130        0.18821599980708       -0.93695302192363
C            1.06055190178176       -0.98772253037315       -1.15831950902683
C            1.89518864043926       -1.30476133083057        0.08050719197765
C            2.64637855961182       -0.06519325126057        0.55308226320350
C            1.64801069421362        1.03810202248091        0.88735327352058
C            0.83958763017452        1.40552210119168       -0.35308235316377
H           -3.60058143719921       -0.92637394199488        0.28360941038088
H           -4.16700180205239        0.65636544403941       -0.34269026472696
H           -3.29968180930401        0.54885375501735        1.22432929585588
H           -0.34179932759569        0.48137390729974       -1.89376987958574
H            0.48665176125904       -1.87028338012004       -1.44903274867543
H            1.72618722748781       -0.72811658871671       -1.98384571304452
H            1.23618468795650       -1.65265880896752        0.87771273455964
H            2.59755120282415       -2.10656835739788       -0.15441840727149
H            3.24557374685138       -0.30635563607686        1.43200136029508
H            3.32004655457171        0.27848545797791       -0.23445135091335
H            0.97626376061419        0.68569737801642        1.67298645923876
H            2.16885537127370        1.92289480395372        1.25670208886363
H            0.11546252262393        2.18786140139530       -0.11597474228033
H            1.51495506105550        1.78915521364148       -1.11952361724226
24
 energy: -32.442313410085 gnorm: 0.002312199838 xtb: 6.7.1 (edcfbbe)
C           -3.38907318316034        0.14144780926561        0.22391930287388
O           -2.18611462976359        0.35540488865968       -0.51725951938584
C           -1.05940821572133       -0.17199948389090       -0.04265065590714
O           -1.02169402213870       -0.82394106715745        0.97909465433235
C            0.10223932298719        0.18722676554232       -0.94234317029302
C            1.06580904936891       -0.98493178742299       -1.16332978576074
C            1.89091805997254       -1.30618199200825        0.08047213988163
C            2.64048846392122       -0.06748294660837        0.55884115215587
C            1.64152887311080        1.03766600885216        0.88686253308082
C            0.84085935788268        1.40463527021963       -0.35871620786122
H           -3.59813088745379       -0.92697594628163        0.29601908713794
H           -4.16807771501347        0.65397030312824       -0.33140763688400
H           -3.28974702007967        0.55187691410174        1.22990918160169
H           -0.34219509142144        0.47933378986334       -1.89875397248644
H            0.49857754937865       -1.86735327268540       -1.46853334884341
H            1.73833433175862       -0.71583785973601       -1.98084668042755
H            1.22613427578927       -1.65335081302476        0.87264295793851
H            2.59287348942809       -2.10951627038355       -0.14925224284242
H            3.23541219447292       -0.30915340468408        1.44091009174103
H            3.31969700577241        0.27617486759554       -0.22492357854904
H            0.96466924402840        0.68705108724470        1.66925406772277
H            2.16084927367529        1.92211646809200        1.25968537019345
H            0.11902699697199        2.19186007302644       -0.12965979715270
H            1.52196530039428        1.78241156273174       -1.12363133596819
24
 energy: -32.442338690897 gnorm: 0.001746303662 xtb: 6.7.1 (edcfbbe)
C           -3.38668405868073        0.14095910841307        0.23032748070378
O           -2.18817522557781        0.35294332253659       -0.52042062138355
C           -1.05879981345799       -0.17201561293534       -0.04677033533382
O           -1.01948049770358       -0.81912735602165        0.97790460660173
C            0.10215103716971        0.18631664306395       -0.94689276632177
C            1.06971109791257       -0.98274902607349       -1.16695783017374
C            1.88800561113184       -1.30722195734337        0.07985701308337
C            2.63537136083287       -0.06951490225670        0.56450064077576
C            1.63623939028078        1.03745730666830        0.88585974410017
C            0.84150965020405        1.40386034248786       -0.36324327932237
H           -3.59485026342932       -0.92718089207602        0.30653380322585
H           -4.17018361803391        0.65204893534949       -0.32042226691558
H           -3.27909419854932        0.55438143514910        1.23416365641944
H           -0.34137296848144        0.47768946696857       -1.90383050962597
H            0.50810073400964       -1.86517784805796       -1.48206744528077
H            1.74680483463059       -0.70612838460434       -1.97829256922557
H            1.21985524294336       -1.65650431112473        0.86810341611266
H            2.59127645931726       -2.10974397665356       -0.14817109067155
H            3.22403201175625       -0.31224782598547        1.45072048671581
H            3.32116209282703        0.27369149193714       -0.21421786443235
H            0.95578459535079        0.68960153001996        1.66654146994104
H            2.15546996887243        1.92169241411887        1.25956200786764
H            0.12143910673876        2.19421597619025       -0.13955818416283
H            1.52666947409711        1.77720508466923       -1.12692695639906
24
 energy: -32.442356127529 gnorm: 0.001083411083 xtb: 6.7.1 (edcfbbe)
C           -3.38263708375065        0.14028383826158        0.23747862242078
O           -2.18993489234796        0.35045302236944       -0.52423105121765
C           -1.05722238382220       -0.17068148382602       -0.05120253156488
O           -1.01714506174092       -0.81368095218470        0.97532458720948
C            0.10197262571853        0.18571177870995       -0.95268843819662
C            1.07328516379153       -0.98051134811286       -1.17158603429176
C            1.88479951672373       -1.30813176433499        0.07821064178480
C            2.62867433884996       -0.07189131621951        0.57195330528286
C            1.62994838379394        1.03778279723111        0.88426635274511
C            0.84181810744312        1.40322228841516       -0.36869421761568
H           -3.58855430282606       -0.92753330894241        0.31875692749391
H           -4.17145876217920        0.64958148397973       -0.30729906847797
H           -3.26429268311316        0.55683687262310        1.23846657631008
H           -0.34044404907666        0.47664546949318       -1.91044534164690
H            0.51690901008044       -1.86286839132505       -1.49409141218772
H            1.75451214753685       -0.69741737168272       -1.97674148814918
H            1.21357477110694       -1.66212855049845        0.86193894917327
H            2.59120554712738       -2.10809021569365       -0.14984297309621
H            3.20627126073989       -0.31687814525718        1.46487935519085
H            3.32442546645159        0.27004567578003       -0.19839634182687
H            0.94542367949945        0.69403542243361        1.66320090096158
H            2.15006162065605        1.92179988996169        1.25735463903761
H            0.12303993964774        2.19560731527402       -0.14949450231234
H            1.53070966385059        1.77225795798475       -1.13081485072814
24
 energy: -32.442361027562 gnorm: 0.000660971182 xtb: 6.7.1 (edcfbbe)
C           -3.37994942143779        0.14033675008378        0.23922368356148
O           -2.18880013066543        0.34944242666114       -0.52424123817234
C           -1.05583306788359       -0.17220452427901       -0.05289550779496
O           -1.01479753049496       -0.81338882558989        0.97467089258758
C            0.10235154092371        0.18615491549876       -0.95453218353449
C            1.07349697458581       -0.98006158478214       -1.17331229158240
C            1.88377855429149       -1.30810540167664        0.07745144507426
C            2.62634548008899       -0.07237183351672        0.57433145950909
C            1.62790877682923        1.03836527953186        0.88367977491977
C            0.84162343052565        1.40390122082285       -0.37060852297240
H           -3.58586251078832       -0.92738573820949        0.32144154593120
H           -4.16926105472480        0.64971016465983       -0.30423463452445
H           -3.25957432742358        0.55681150157480        1.23985818206410
H           -0.34065598779450        0.47687244308238       -1.91215661755565
H            0.51666039929539       -1.86224087170279       -1.49504853557797
H            1.75519030464118       -0.69748561074503       -1.97795091350073
H            1.21169922242378       -1.66408210374206        0.85965405537745
H            2.59148416219530       -2.10697212608577       -0.15103014964632
H            3.19910342205231       -0.31865786887932        1.46973158715970
H            3.32563991813484        0.26891002990852       -0.19252566223246
H            0.94197986613478        0.69589221582040        1.66175114254639
H            2.14851144770774        1.92216441442449        1.25646778024933
H            0.12242524153834        2.19591403367475       -0.15179386722170
H            1.53147731400533        1.77293205790512       -1.13162881836607
24
 energy: -32.442362619320 gnorm: 0.000527959700 xtb: 6.7.1 (edcfbbe)
C           -3.37787293673840        0.14012383135245        0.24019391271175
O           -2.18758178170682        0.34941874088403       -0.52352936687129
C           -1.05421847405740       -0.17099230363478       -0.05252555745084
O           -1.01269197753606       -0.81412825522287        0.97375362310591
C            0.10285217891457        0.18670756225974       -0.95591177976899
C            1.07330037738561       -0.98004697863476       -1.17475065104847
C            1.88331951698595       -1.30806683075842        0.07651744494801
C            2.62465969140018       -0.07266656783966        0.57618021601982
C            1.62654938122168        1.03901552783089        0.88344458492697
C            0.84165607206193        1.40435703438603       -0.37196847247355
H           -3.58378843902248       -0.92766634670051        0.32303069533238
H           -4.16743651168315        0.64935587851578       -0.30276765703297
H           -3.25716359131683        0.55650636886715        1.24089336161945
H           -0.34113132275913        0.47746032292016       -1.91309517613405
H            0.51524468344395       -1.86213479441073       -1.49496841230912
H            1.75509448633723       -0.69929525777591       -1.97987292745564
H            1.21082774670039       -1.66574848935699        0.85754087961346
H            2.59203421584131       -2.10601386192741       -0.15232353618653
H            3.19361517791300       -0.32000929682586        1.47353388116655
H            3.32678292497455        0.26834005941564       -0.18786750414883
H            0.93932217589595        0.69766284002896        1.66072829722397
H            2.14743346774816        1.92266722954855        1.25612286703491
H            0.12204911638810        2.19622781500330       -0.15370202595273
H            1.53208584576863        1.77337673651501       -1.13235409057172
24
 energy: -32.442363153033 gnorm: 0.000136901278 xtb: 6.7.1 (edcfbbe)
C           -3.37777215023614        0.14025977280964        0.24075593010690
O           -2.18767791790250        0.34964494529589       -0.52344922456553
C           -1.05437514769421       -0.17160341697372       -0.05325277477715
O           -1.01248813303545       -0.81451344722112        0.97329010075313
C            0.10294652509091        0.18671419197942       -0.95621924983799
C            1.07351627834636       -0.97993067044430       -1.17483533302249
C            1.88335584300538       -1.30814029669813        0.07645538996358
C            2.62432789389655       -0.07269743108642        0.57664328411072
C            1.62612051263458        1.03908963663769        0.88343247433006
C            0.84185231154013        1.40437092630878       -0.37236062203590
H           -3.58388299097471       -0.92755498434170        0.32328943062144
H           -4.16767055592608        0.64962924149109       -0.30180600384635
H           -3.25687532379362        0.55635081087529        1.24167564558196
H           -0.34093283733367        0.47729093457157       -1.91342846476798
H            0.51549523715416       -1.86205609007271       -1.49543298181775
H            1.75530500822476       -0.69913842233793       -1.98011549213371
H            1.21077413175812       -1.66619094958364        0.85719193628361
H            2.59227293219261       -2.10584124862812       -0.15239348074734
H            3.19287080078183       -0.32016122091979        1.47430129466771
H            3.32702826749078        0.26849387508869       -0.18697318367149
H            0.93855789163787        0.69797360986226        1.66057513719002
H            2.14696435292278        1.92269108576192        1.25633353542618
H            0.12245024512416        2.19668765758337       -0.15479739928510
H            1.53277884925631        1.77308245448181       -1.13257734222808
24
 energy: -32.442363306914 gnorm: 0.000080471312 xtb: 6.7.1 (edcfbbe)
C           -3.37769159188104        0.14033092160865        0.24114982426996
O           -2.18763621566703        0.35025434374232       -0.52302612662467
C           -1.05443294000241       -0.17167855535190       -0.05348027141935
O           -1.01243584490441       -0.81524686388736        0.97265758724207
C            0.10301082678486        0.18674553738742       -0.95639180351604
C            1.07358311619865       -0.97990673328523       -1.17488802959259
C            1.88330421621349       -1.30808800117993        0.07645489639036
C            2.62408717687559       -0.07265978785392        0.57694168770337
C            1.62578271641495        1.03912059405309        0.88339184033798
C            0.84203413236894        1.40438222359430       -0.37266676419790
H           -3.58366772871036       -0.92754595879933        0.32308674769901
H           -4.16772081084365        0.64991388871693       -0.30105596556395
H           -3.25680297407958        0.55590751296639        1.24227154501667
H           -0.34078310546503        0.47726582763841       -1.91364780911504
H            0.51563762445905       -1.86207283646075       -1.49557221553235
H            1.75537576971165       -0.69911684582426       -1.98024045633300
H            1.21065785177492       -1.66632438438727        0.85706680862729
H            2.59239406214537       -2.10564113644329       -0.15235948601355
H            3.19246310356953       -0.32015907649262        1.47470381321643
H            3.32700011213601        0.26861616806082       -0.18646050540423
H            0.93796451419288        0.69801182818546        1.66033315951339
H            2.14654457539824        1.92268519897915        1.25651368128941
H            0.12288726725224        2.19708744070048       -0.15568404944119
H            1.53338617021804        1.77256965877226       -1.13279550225363
24
 energy: -32.442363471327 gnorm: 0.000131791942 xtb: 6.7.1 (edcfbbe)
C           -3.37747892261968        0.14056409140948        0.24182841511572
O           -2.18745261635424        0.35169215436211       -0.52218819366148
C           -1.05451229749717       -0.17175324294019       -0.05388630842719
O           -1.01254658466797       -0.81706810438601        0.97116664088556
C            0.10305763085947        0.18680295389762       -0.95673368802136
C            1.07365187909658       -0.97989500700244       -1.17489351283120
C            1.88329726202359       -1.30800381286813        0.07649116413020
C            2.62370850340925       -0.07248796048075        0.57731649198446
C            1.62524335742217        1.03924697746705        0.88337773772713
C            0.84234456106788        1.40434568503373       -0.37318690184757
H           -3.58310986810010       -0.92747854375684        0.32241997960872
H           -4.16767915324111        0.65059284981081       -0.29971868976488
H           -3.25667476456190        0.55495140970182        1.24344524245145
H           -0.34062029346931        0.47725584765943       -1.91407769825729
H            0.51573195994944       -1.86210862140019       -1.49545707455536
H            1.75545622580955       -0.69927902619027       -1.98033442299610
H            1.21060439041195       -1.66653106367053        0.85693805293019
H            2.59260147201568       -2.10538552128409       -0.15229507530505
H            3.19174638106909       -0.32000857572465        1.47530178318755
H            3.32694518044991        0.26887330826629       -0.18577751482099
H            0.93697200643627        0.69806530700851        1.65989854410296
H            2.14574774895077        1.92279933489785        1.25691288132517
H            0.12355941118249        2.19757798534710       -0.15710622281939
H            1.53434855451830        1.77168253928209       -1.13313902384281
24
 energy: -32.442363439163 gnorm: 0.000253331734 xtb: 6.7.1 (edcfbbe)
C           -3.37721240181232        0.14086348476083        0.24260413866215
O           -2.18721397457806        0.35335853655116       -0.52121768157180
C           -1.05458678314043       -0.17186006009191       -0.05434841303216
O           -1.01269033177248       -0.81921812553353        0.96943403027150
C            0.10311728417838        0.18684519846420       -0.95711980403752
C            1.07373847713318       -0.97990189463176       -1.17491538425700
C            1.88329448344841       -1.30790111227874        0.07653322918175
C            2.62328094262168       -0.07228704213020        0.57775248962342
C            1.62461368473877        1.03938607408390        0.88335150571920
C            0.84265960858312        1.40430826472354       -0.37377761037449
H           -3.58246224951369       -0.92736846166700        0.32164498878089
H           -4.16759276173419        0.65142274004695       -0.29818721016018
H           -3.25649692218928        0.55387304980442        1.24479352399125
H           -0.34043572138724        0.47722268295179       -1.91455983195192
H            0.51585028265129       -1.86217609147867       -1.49533069882875
H            1.75556135756699       -0.69948064444643       -1.98044478181876
H            1.21055465917804       -1.66676895126063        0.85679026638777
H            2.59285183762540       -2.10507714882685       -0.15222382711237
H            3.19092571467476       -0.31982479543428        1.47599725801067
H            3.32688241513903        0.26917382740462       -0.18498713455957
H            0.93583760689530        0.69811671353036        1.65939618269285
H            2.14481729177423        1.92293094275046        1.25734529353091
H            0.12425985803395        2.19811205135811       -0.15870102441233
H            1.53538766604606        1.77070172578950       -1.13352689843704
24
 energy: -32.442363560686 gnorm: 0.000119823666 xtb: 6.7.1 (edcfbbe)
C           -3.37720550990424        0.14091012661253        0.24229348597628
O           -2.18716116360671        0.35285796260007       -0.52151811674334
C           -1.05447608961271       -0.17194414306791       -0.05417285760003
O           -1.01276280860428       -0.81880158620073        0.96991150209433
C            0.10313214766343        0.18671769932581       -0.95692851344860
C            1.07373915887689       -0.98000380383921       -1.17498380196095
C            1.88329114167457       -1.30789276179373        0.07655906263731
C            2.62350936358360       -0.07235014257580        0.57761246106230
C            1.62481572356159        1.03928934392530        0.88329315639271
C            0.84232564177115        1.40437347785945       -0.37352513861372
H           -3.58266522144520       -0.92725055489493        0.32184645520015
H           -4.16744674093966        0.65136963720170       -0.29876143822701
H           -3.25643182049847        0.55432391720508        1.24431093131755
H           -0.34048342605510        0.47713656969972       -1.91431461593583
H            0.51584077952910       -1.86228621455492       -1.49541038024595
H            1.75560564571000       -0.69948532325596       -1.98039629686696
H            1.21059031465676       -1.66662035453805        0.85690334626909
H            2.59276899826027       -2.10512331044445       -0.15220430796226
H            3.19132622301624       -0.31982558696166        1.47574943723883
H            3.32689562953162        0.26906993836838       -0.18529898814778
H            0.93632285487150        0.69803168669580        1.65956303690238
H            2.14511916802196        1.92286365681234        1.25702166330304
H            0.12363109133613        2.19779772307275       -0.15789561045929
H            1.53466092276247        1.77129300718824       -1.13335186588382
24
 energy: -32.442363625989 gnorm: 0.000038064764 xtb: 6.7.1 (edcfbbe)
C           -3.37714432771556        0.14111485255575        0.24218682370103
O           -2.18708168213288        0.35280681275703       -0.52159015443836
C           -1.05442440142987       -0.17214756459105       -0.05420212413709
O           -1.01293049390384       -0.81907362647800        0.96983542626037
C            0.10310101663979        0.18654699249935       -0.95693247023132
C            1.07384381115184       -0.98006063931294       -1.17497830562931
C            1.88339389462136       -1.30794792480253        0.07659564385586
C            2.62358152952345       -0.07231251205452        0.57745658432543
C            1.62490457059826        1.03929822691577        0.88331251074735