      -----------------------------------------------------------      
     |                   =====================                   |     
     |                           x T B                           |     
     |                   =====================                   |     
     |                         S. Grimme                         |     
     |          Mulliken Center for Theoretical Chemistry        |     
     |                    University of Bonn                     |     
      -----------------------------------------------------------      

   * xtb version 6.7.1 (edcfbbe) compiled by 'albert@albert-system' on 2024-07-22

   xtb is free software: you can redistribute it and/or modify it under
   the terms of the GNU Lesser General Public License as published by
   the Free Software Foundation, either version 3 of the License, or
   (at your option) any later version.
   
   xtb is distributed in the hope that it will be useful,
   but WITHOUT ANY WARRANTY; without even the implied warranty of
   MERCHANTABILITY or FITNESS FOR A PARTICULAR PURPOSE.  See the
   GNU Lesser General Public License for more details.
   
   Cite this work as:
   * C. Bannwarth, E. Caldeweyher, S. Ehlert, A. Hansen, P. Pracht,
     J. Seibert, S. Spicher, S. Grimme, WIREs Comput. Mol. Sci., 2020, 11,
     e01493. DOI: 10.1002/wcms.1493
   
   for GFN2-xTB:
   * C. Bannwarth, S. Ehlert and S. Grimme., J. Chem. Theory Comput., 2019,
     15, 1652-1671. DOI: 10.1021/acs.jctc.8b01176
   for GFN1-xTB:
   * S. Grimme, C. Bannwarth, P. Shushkov, J. Chem. Theory Comput., 2017,
     13, 1989-2009. DOI: 10.1021/acs.jctc.7b00118
   for GFN0-xTB:
   * P. Pracht, E. Caldeweyher, S. Ehlert, S. Grimme, ChemRxiv, 2019, preprint.
     DOI: 10.26434/chemrxiv.8326202.v1
   for GFN-FF:
   * S. Spicher and S. Grimme, Angew. Chem. Int. Ed., 2020, 59, 15665-15673.
     DOI: 10.1002/anie.202004239
   
   for ALPB and GBSA implicit solvation:
   * S. Ehlert, M. Stahn, S. Spicher, S. Grimme, J. Chem. Theory Comput.,
     2021, 17, 4250-4261. DOI: 10.1021/acs.jctc.1c00471
   
   for ddCOSMO and CPCM-X implicit solvation:
   * M. Stahn, S. Ehlert, S. Grimme, J. Phys. Chem. A,
     2023, XX, XXXX-XXXX. DOI: 10.1021/acs.jpca.3c04382
   
   for DFT-D4:
   * E. Caldeweyher, C. Bannwarth and S. Grimme, J. Chem. Phys., 2017,
     147, 034112. DOI: 10.1063/1.4993215
   * E. Caldeweyher, S. Ehlert, A. Hansen, H. Neugebauer, S. Spicher,
     C. Bannwarth and S. Grimme, J. Chem. Phys., 2019, 150, 154122.
     DOI: 10.1063/1.5090222
   * E. Caldeweyher, J.-M. Mewes, S. Ehlert and S. Grimme, Phys. Chem. Chem. Phys.
     2020, 22, 8499-8512. DOI: 10.1039/D0CP00502A
   
   for sTDA-xTB:
   * S. Grimme and C. Bannwarth, J. Chem. Phys., 2016, 145, 054103.
     DOI: 10.1063/1.4959605
   
   in the mass-spec context:
   * V. Asgeirsson, C. Bauer and S. Grimme, Chem. Sci., 2017, 8, 4879.
     DOI: 10.1039/c7sc00601b
   * J. Koopman and S. Grimme, ACS Omega 2019, 4, 12, 15120-15133.
     DOI: 10.1021/acsomega.9b02011
   
   for metadynamics refer to:
   * S. Grimme, J. Chem. Theory Comput., 2019, 155, 2847-2862
     DOI: 10.1021/acs.jctc.9b00143
   
   for SPH calculations refer to:
   * S. Spicher and S. Grimme, J. Chem. Theory Comput., 2021, 17, 1701-1714
     DOI: 10.1021/acs.jctc.0c01306
   
   for ONIOM refer to:
   * C. Plett, A. Katbashev, S. Ehlert, S. Grimme, M. Bursch,
     Phys. Chem. Chem. Phys., 2023, 25, 17860-17868. DOI: 10.1039/D3CP02178E
   
   for DIPRO refer to:
   * J. Kohn, N. Gildemeister, S. Grimme, D. Fazzi, A. Hansen,
     J. Chem. Phys., 2023, just accepted.
   
   for PTB refer to:
   * S. Grimme, M. Mueller, A. Hansen, J. Chem. Phys., 2023, 158, 124111.
     DOI: 10.1063/5.0137838
   
   with help from (in alphabetical order)
   P. Atkinson, C. Bannwarth, F. Bohle, G. Brandenburg, E. Caldeweyher
   M. Checinski, S. Dohm, S. Ehlert, S. Ehrlich, I. Gerasimov, C. Hölzer
   A. Katbashev, J. Kohn, J. Koopman, C. Lavigne, S. Lehtola, F. März, M. Müller,
   F. Musil, H. Neugebauer, J. Pisarek, C. Plett, P. Pracht, F. Pultar,
   J. Seibert, P. Shushkov, S. Spicher, M. Stahn, M. Steiner, T. Strunk,
   J. Stückrath, T. Rose, and J. Unsleber
   
 * started run on 2025/04/03 at 21:14:30.289     
   ID    Z sym.   atoms
    1    6 C      1-6
    2    1 H      7-18

           -------------------------------------------------
          |                Calculation Setup                |
           -------------------------------------------------

          program call               : /srv/scratch/z5358697/.xtb/bin/xtb xtb_rrho.coord --gfn2 --ohess vtight --chrg 0 --enso --norestart -I rrho-xcontrol-inp --parallel 1 --alpb water
          hostname                   : k161
          coordinate file            : xtb_rrho.coord
          omp threads                :                     1


           -------------------------------------------------
          |                 G F N 2 - x T B                 |
           -------------------------------------------------

        Reference                      10.1021/acs.jctc.8b01176
      * Hamiltonian:
        H0-scaling (s, p, d)           1.850000    2.230000    2.230000
        zeta-weighting                 0.500000
      * Dispersion:
        s8                             2.700000
        a1                             0.520000
        a2                             5.000000
        s9                             5.000000
      * Repulsion:
        kExp                           1.500000    1.000000
        rExp                           1.000000
      * Coulomb:
        alpha                          2.000000
        third order                    shell-resolved
        anisotropic                    true
        a3                             3.000000
        a5                             4.000000
        cn-shift                       1.200000
        cn-exp                         4.000000
        max-rad                        5.000000

      * Solvation model:               ALPB
        Solvent                        water
        Parameter file                 internal GFN2-xTB/ALPB
        Dielectric constant                8.0200E+01
        Reference state                gsolv [1 M gas/solution]
        Free energy shift                  1.0808E-03 Eh       6.7819E-01 kcal/mol
        Temperature                        2.9815E+02 K
        Density                            1.0000E+00 kg/L
        Solvent mass                       1.8000E+01 g/mol
        Interaction kernel             P16
        Born radius scaling (c1)           1.4744E+00
        Born radii integrator          GBOBC
        Born offset                        0.0000E+00 a0       0.0000E+00 AA
        H-bond correction              true
        Ion screening                  false
        Surface tension                    1.0000E-05 Eh       1.5569E+01 dyn/cm
        Grid points                               974 per atom

          ...................................................
          :                      SETUP                      :
          :.................................................:
          :  # basis functions                  36          :
          :  # atomic orbitals                  36          :
          :  # shells                           24          :
          :  # electrons                        36          :
          :  max. iterations                   250          :
          :  Hamiltonian                  GFN2-xTB          :
          :  restarted?                      false          :
          :  GBSA solvation                   true          :
          :  PC potential                    false          :
          :  electronic temp.          300.0000000     K    :
          :  accuracy                    1.0000000          :
          :  -> integral cutoff          0.2500000E+02      :
          :  -> integral neglect         0.1000000E-07      :
          :  -> SCF convergence          0.1000000E-05 Eh   :
          :  -> wf. convergence          0.1000000E-03 e    :
          :  Broyden damping             0.4000000          :
          :  net charge                          0          :
          :  unpaired electrons                  0          :
          ...................................................

 iter      E             dE          RMSdq      gap      omega  full diag
   1    -19.2180246 -0.192180E+02  0.240E+00   12.99       0.0  T
   2    -19.2490102 -0.309856E-01  0.137E+00   12.69       1.0  T
   3    -19.2497941 -0.783865E-03  0.633E-01   12.65       1.0  T
   4    -19.2498982 -0.104128E-03  0.913E-02   12.65       1.0  T
   5    -19.2499218 -0.236235E-04  0.494E-02   12.65       1.0  T
   6    -19.2499225 -0.649349E-06  0.340E-03   12.65       6.9  T
   7    -19.2499225 -0.548112E-07  0.109E-03   12.65      21.7  T
   8    -19.2499225 -0.627942E-09  0.440E-04   12.65      53.6  T
   9    -19.2499225 -0.222695E-09  0.122E-04   12.65     193.7  T

   *** convergence criteria satisfied after 9 iterations ***

         #    Occupation            Energy/Eh            Energy/eV
      -------------------------------------------------------------
         1        2.0000           -0.6307368             -17.1632
       ...           ...                  ...                  ...
        12        2.0000           -0.4574567             -12.4480
        13        2.0000           -0.4363869             -11.8747
        14        2.0000           -0.4353576             -11.8467
        15        2.0000           -0.4277276             -11.6391
        16        2.0000           -0.4242294             -11.5439
        17        2.0000           -0.4189645             -11.4006
        18        2.0000           -0.4119514             -11.2098 (HOMO)
        19                          0.0529612               1.4411 (LUMO)
        20                          0.0636336               1.7316
        21                          0.0738415               2.0093
        22                          0.1047984               2.8517
        23                          0.1282384               3.4895
       ...                                ...                  ...
        36                          0.3350623               9.1175
      -------------------------------------------------------------
                  HL-Gap            0.4649125 Eh           12.6509 eV
             Fermi-level           -0.1794951 Eh           -4.8843 eV

 SCC (total)                   0 d,  0 h,  0 min,  0.020 sec
 SCC setup                      ...        0 min,  0.001 sec (  3.908%)
 Dispersion                     ...        0 min,  0.000 sec (  0.343%)
 classical contributions        ...        0 min,  0.000 sec (  0.092%)
 integral evaluation            ...        0 min,  0.001 sec (  3.743%)
 iterations                     ...        0 min,  0.016 sec ( 80.983%)
 molecular gradient             ...        0 min,  0.002 sec ( 10.466%)
 printout                       ...        0 min,  0.000 sec (  0.425%)

         :::::::::::::::::::::::::::::::::::::::::::::::::::::
         ::                     SUMMARY                     ::
         :::::::::::::::::::::::::::::::::::::::::::::::::::::
         :: total energy             -18.980874341244 Eh    ::
         :: total w/o Gsasa/hb       -18.980790340083 Eh    ::
         :: gradient norm              0.017624683632 Eh/a0 ::
         :: HOMO-LUMO gap             12.650914096654 eV    ::
         ::.................................................::
         :: SCC energy               -19.249892534891 Eh    ::
         :: -> isotropic ES            0.003510599678 Eh    ::
         :: -> anisotropic ES          0.005530950691 Eh    ::
         :: -> anisotropic XC          0.011760869192 Eh    ::
         :: -> dispersion             -0.010859465105 Eh    ::
         :: -> Gsolv                  -0.000240850155 Eh    ::
         ::    -> Gelec               -0.000156848994 Eh    ::
         ::    -> Gsasa               -0.000791284819 Eh    ::
         ::    -> Ghb                 -0.000373476040 Eh    ::
         ::    -> Gshift               0.001080759698 Eh    ::
         :: repulsion energy           0.269018193647 Eh    ::
         :: add. restraining           0.000000000000 Eh    ::
         :: total charge               0.000000000000 e     ::
         :::::::::::::::::::::::::::::::::::::::::::::::::::::

      ----------------------------------------------------------- 
     |                   =====================                   |
     |                        A N C O P T                        |
     |                   =====================                   |
     |               Approximate Normal Coordinate               |
     |                Rational Function Optimizer                |
      ----------------------------------------------------------- 
      ----------------------------------------------------------- 
     |                   =====================                   |
     |                        A N C O P T                        |
     |                   =====================                   |
     |               Approximate Normal Coordinate               |
     |                Rational Function Optimizer                |
      ----------------------------------------------------------- 

          ...................................................
          :                      SETUP                      :
          :.................................................:
          :   optimization level         verytight          :
          :   max. optcycles                   360          :
          :   ANC micro-cycles                  20          :
          :   degrees of freedom                48          :
          :.................................................:
          :   RF solver                   davidson          :
          :   write xtbopt.log                true          :
          :   linear?                        false          :
          :   energy convergence         0.1000000E-06 Eh   :
          :   grad. convergence          0.2000000E-03 Eh/α :
          :   maxmium RF displ.          1.0000000          :
          :   Hlow (freq-cutoff)         0.1000000E-01      :
          :   Hmax (freq-cutoff)         5.0000000          :
          :   S6 in model hess.         20.0000000          :
          ...................................................

generating ANC from exact Hessian ...
Using Lindh-Hessian (1995)
 Shifting diagonal of input Hessian by   5.172746880619445E-003
 Lowest  eigenvalues of input Hessian
    0.000000    0.000000    0.000000    0.000000    0.000000    0.000000
    0.010000    0.012874    0.014262    0.017202    0.021417    0.031845
    0.040019    0.049595    0.051752    0.052771    0.053014    0.055555
 Highest eigenvalues
    1.169906    1.172721    1.186123    1.222424    1.234852    1.254812
 

........................................................................
.............................. CYCLE    1 ..............................
........................................................................

 iter      E             dE          RMSdq      gap      omega  full diag
   1    -19.2499225 -0.192499E+02  0.425E-05   12.65       0.0  T
   2    -19.2499225 -0.314060E-11  0.265E-05   12.65     888.2  T
   3    -19.2499225 -0.611067E-12  0.114E-05   12.65    2060.0  T
     SCC iter.                  ...        0 min,  0.001 sec
     gradient                   ...        0 min,  0.002 sec
 * total energy  :   -18.9808743 Eh     change       -0.1807621E-10 Eh
   gradient norm :     0.0176248 Eh/α   predicted     0.0000000E+00 (-100.00%)
   displ. norm   :     0.1198296 α      lambda       -0.1224373E-02
   maximum displ.:     0.0638646 α      in ANC's #19, #5, #6, ...

........................................................................
.............................. CYCLE    2 ..............................
........................................................................

 iter      E             dE          RMSdq      gap      omega  full diag
   1    -19.2608947 -0.192609E+02  0.113E-01   12.89       0.0  T
   2    -19.2608986 -0.390152E-05  0.643E-02   12.89       1.0  T
   3    -19.2608989 -0.287316E-06  0.661E-03   12.89       3.6  T
   4    -19.2608990 -0.659469E-07  0.195E-03   12.89      12.1  T
   5    -19.2608990 -0.560426E-08  0.113E-03   12.89      20.8  T
   6    -19.2608990 -0.117446E-08  0.128E-04   12.89     183.7  T
   7    -19.2608990 -0.222435E-10  0.780E-05   12.89     302.0  T
     SCC iter.                  ...        0 min,  0.001 sec
     gradient                   ...        0 min,  0.002 sec
 * total energy  :   -18.9815852 Eh     change       -0.7108294E-03 Eh
   gradient norm :     0.0056097 Eh/α   predicted    -0.6209779E-03 ( -12.64%)
   displ. norm   :     0.0453751 α      lambda       -0.9789291E-04
   maximum displ.:     0.0327695 α      in ANC's #4, #2, #1, ...

........................................................................
.............................. CYCLE    3 ..............................
........................................................................

 iter      E             dE          RMSdq      gap      omega  full diag
   1    -19.2640862 -0.192641E+02  0.262E-02   12.95       0.0  T
   2    -19.2640868 -0.526910E-06  0.148E-02   12.95       1.6  T
   3    -19.2640868 -0.276338E-07  0.256E-03   12.95       9.2  T
   4    -19.2640868 -0.500090E-08  0.560E-04   12.95      42.1  T
   5    -19.2640868 -0.202576E-09  0.297E-04   12.95      79.2  T
     SCC iter.                  ...        0 min,  0.001 sec
     gradient                   ...        0 min,  0.002 sec
 * total energy  :   -18.9816381 Eh     change       -0.5297136E-04 Eh
   gradient norm :     0.0017563 Eh/α   predicted    -0.4904625E-04 (  -7.41%)
   displ. norm   :     0.0426237 α      lambda       -0.1428652E-04
   maximum displ.:     0.0332147 α      in ANC's #4, #2, #1, ...

........................................................................
.............................. CYCLE    4 ..............................
........................................................................

 iter      E             dE          RMSdq      gap      omega  full diag
   1    -19.2641901 -0.192642E+02  0.136E-02   12.96       0.0  T
   2    -19.2641902 -0.429738E-07  0.806E-03   12.96       2.9  T
   3    -19.2641902 -0.253059E-08  0.651E-04   12.96      36.2  T
   4    -19.2641902 -0.150524E-08  0.204E-04   12.96     115.7  T
     SCC iter.                  ...        0 min,  0.001 sec
     gradient                   ...        0 min,  0.002 sec
 * total energy  :   -18.9816518 Eh     change       -0.1366761E-04 Eh
   gradient norm :     0.0008629 Eh/α   predicted    -0.7150374E-05 ( -47.68%)
   displ. norm   :     0.0437063 α      lambda       -0.7294322E-05
   maximum displ.:     0.0321905 α      in ANC's #4, #2, #1, ...

........................................................................
.............................. CYCLE    5 ..............................
........................................................................

 iter      E             dE          RMSdq      gap      omega  full diag
   1    -19.2635167 -0.192635E+02  0.131E-02   12.95       0.0  T
   2    -19.2635167 -0.168809E-07  0.776E-03   12.95       3.0  T
   3    -19.2635167 -0.362440E-08  0.415E-04   12.95      56.8  T
   4    -19.2635167 -0.442416E-09  0.208E-04   12.95     113.3  T
     SCC iter.                  ...        0 min,  0.001 sec
     gradient                   ...        0 min,  0.002 sec
 * total energy  :   -18.9816576 Eh     change       -0.5768203E-05 Eh
   gradient norm :     0.0007201 Eh/α   predicted    -0.3649919E-05 ( -36.72%)
   displ. norm   :     0.0148603 α      lambda       -0.1306516E-05
   maximum displ.:     0.0111986 α      in ANC's #2, #4, #1, ...

........................................................................
.............................. CYCLE    6 ..............................
........................................................................

 iter      E             dE          RMSdq      gap      omega  full diag
   1    -19.2636115 -0.192636E+02  0.572E-03   12.95       0.0  T
   2    -19.2636115 -0.160534E-08  0.339E-03   12.95       6.9  T
   3    -19.2636115 -0.260105E-09  0.171E-04   12.95     138.2  T
   4    -19.2636115 -0.228408E-09  0.789E-05   12.95     298.8  T
     SCC iter.                  ...        0 min,  0.001 sec
     gradient                   ...        0 min,  0.002 sec
 * total energy  :   -18.9816585 Eh     change       -0.9349242E-06 Eh
   gradient norm :     0.0002809 Eh/α   predicted    -0.6542106E-06 ( -30.03%)
   displ. norm   :     0.0033498 α      lambda       -0.2382673E-06
   maximum displ.:     0.0022594 α      in ANC's #2, #3, #6, ...

........................................................................
.............................. CYCLE    7 ..............................
........................................................................

 iter      E             dE          RMSdq      gap      omega  full diag
   1    -19.2637165 -0.192637E+02  0.312E-03   12.95       0.0  T
   2    -19.2637165 -0.826365E-09  0.183E-03   12.95      12.9  T
   3    -19.2637165 -0.674767E-10  0.823E-05   12.95     286.4  T
   4    -19.2637165 -0.358007E-10  0.323E-05   12.95     729.1  T
     SCC iter.                  ...        0 min,  0.001 sec
     gradient                   ...        0 min,  0.002 sec
 * total energy  :   -18.9816586 Eh     change       -0.1164814E-06 Eh
   gradient norm :     0.0001105 Eh/α   predicted    -0.1194288E-06 (   2.53%)
   displ. norm   :     0.0016790 α      lambda       -0.5756270E-07
   maximum displ.:     0.0011955 α      in ANC's #4, #3, #22, ...

........................................................................
.............................. CYCLE    8 ..............................
........................................................................

 iter      E             dE          RMSdq      gap      omega  full diag
   1    -19.2636809 -0.192637E+02  0.125E-03   12.95       0.0  T
   2    -19.2636809 -0.834746E-10  0.735E-04   12.95      32.1  T
   3    -19.2636809 -0.607159E-11  0.337E-05   12.95     699.3  T
     SCC iter.                  ...        0 min,  0.001 sec
     gradient                   ...        0 min,  0.002 sec
 * total energy  :   -18.9816587 Eh     change       -0.4560604E-07 Eh
   gradient norm :     0.0000430 Eh/α   predicted    -0.2792661E-07 ( -38.77%)
   displ. norm   :     0.0014207 α      lambda       -0.1021522E-07
   maximum displ.:     0.0010492 α      in ANC's #3, #4, #2, ...

   *** GEOMETRY OPTIMIZATION CONVERGED AFTER 8 ITERATIONS ***

------------------------------------------------------------------------
 total energy gain   :        -0.0007843 Eh       -0.4922 kcal/mol
 total RMSD          :         0.0499819 a0        0.0264 Å
 total power (kW/mol):        -0.2574084 (step)  -47.9322 (real)
------------------------------------------------------------------------

 ANCopt (total)                0 d,  0 h,  0 min,  0.043 sec
 optimizer setup                ...        0 min,  0.000 sec (  0.575%)
 model hessian                  ...        0 min,  0.005 sec ( 11.968%)
 ANC generation                 ...        0 min,  0.000 sec (  0.586%)
 coordinate transformation      ...        0 min,  0.000 sec (  0.064%)
 single point calculation       ...        0 min,  0.032 sec ( 73.919%)
 optimization log               ...        0 min,  0.005 sec ( 10.609%)
 hessian update                 ...        0 min,  0.000 sec (  0.072%)
 rational function              ...        0 min,  0.001 sec (  1.594%)

================
 final structure:
================
$coord
       -3.99432401841131       -0.00606576645220       -0.61581004303895      C
       -1.51582693715988       -0.12733542031459        0.84767805126685      C
        0.17838381215742       -2.31390899523609       -0.05184236634385      C
        2.86744538360817       -1.29026742510807        0.13408812573630      C
        2.55985104743043        1.43919309314108       -0.74008187599634      C
        0.09872190271484        2.28555844849250        0.52549355414989      C
       -3.63258639305044        0.32060139289983       -2.61315217466208      H
       -5.02784753764983       -1.77265078831458       -0.42115843671664      H
       -5.17764669902958        1.51857405940898        0.09184472200624      H
       -1.95936885333550       -0.38938091188395        2.84988174675026      H
       -0.09923832432512       -4.02007013512148        1.06509469020737      H
       -0.25196498217506       -2.75725654579646       -2.01961692680682      H
        3.51053301338415       -1.33378688156415        2.09300009593875      H
        4.20190687762030       -2.35264296179013       -1.01756289387244      H
        4.15677852441641        2.62894935377513       -0.22101696663714      H
        2.35712562062342        1.48583387055163       -2.79144748733769      H
        0.50636027306311        3.11713853650973        2.36616642656034      H
       -0.88311959227044        3.70212178420162       -0.59951942981849      H
$end
 
 Bond Distances (Angstroems)
 ---------------------------
C1-C2=1.5245         C1-H7=1.0880         C1-H8=1.0880         C1-H9=1.0878         C2-C1=1.5245         C2-C3=1.5392         
C2-C6=1.5458         C2-H10=1.0940        C3-C2=1.5392         C3-C4=1.5258         C3-H11=1.0891        C3-H12=1.0914        
C4-C3=1.5258         C4-C5=1.5253         C4-H13=1.0913        C4-H14=1.0891        C5-C4=1.5253         C5-C6=1.5314         
C5-H15=1.0890        C5-H16=1.0911        C6-C2=1.5458         C6-C5=1.5314         C6-H17=1.0904        C6-H18=1.0892        
H7-C1=1.0880         H8-C1=1.0880         H9-C1=1.0878         H10-C2=1.0940        H11-C3=1.0891        H12-C3=1.0914        
H13-C4=1.0913        H14-C4=1.0891        H15-C5=1.0890        H16-C5=1.0911        H17-C6=1.0904        H18-C6=1.0892        
 C  H  Rav=1.0899 sigma=0.0018  Rmin=1.0878  Rmax=1.0940    12
 C  C  Rav=1.5320 sigma=0.0080  Rmin=1.5245  Rmax=1.5458     6
 
 selected bond angles (degree)
 --------------------
H7-C1-C2=110.42                H8-C1-C2=110.38                H8-C1-H7=108.48                H9-C1-C2=110.58                
H9-C1-H7=108.53                H9-C1-H8=108.38                C3-C2-C1=112.06                C6-C2-C1=112.63                
C6-C2-C3=105.36                H10-C2-C1=108.22               H10-C2-C3=109.22               H10-C2-C6=109.27               
C4-C3-C2=104.86                H11-C3-C2=112.14               H11-C3-C4=112.65               H12-C3-C2=109.58               
H12-C3-C4=109.42               H12-C3-H11=108.15              C5-C4-C3=102.54                H13-C4-C3=110.16               
H13-C4-C5=109.96               H14-C4-C3=112.67               H14-C4-C5=112.85               H14-C4-H13=108.57              
C6-C5-C4=103.59                H15-C5-C4=112.84               H15-C5-C6=112.37               H16-C5-C4=109.49               
H16-C5-C6=110.17               H16-C5-H15=108.31              C5-C6-C2=106.06                H17-C6-C2=110.13               
H17-C6-C5=109.90               H18-C6-C2=111.42               H18-C6-C5=111.59               H18-C6-H17=107.75              
 
 selected dihedral angles (degree)
 ---------------------------------
C3-C2-C1-H7=298.51            C3-C2-C1-H8= 58.44            C3-C2-C1-H9=178.37            C6-C2-C1-H7= 57.10            
C6-C2-C1-H8=177.04            C6-C2-C1-H9=296.96            H10-C2-C1-H7=178.02           H10-C2-C1-H8=297.95           
H10-C2-C1-H9= 57.88           C4-C3-C2-C1=143.91            C4-C3-C2-C6= 21.10            C4-C3-C2-H10=263.82           
H11-C3-C2-C1=266.46           H11-C3-C2-C6=143.65           H11-C3-C2-H10= 26.37          H12-C3-C2-C1= 26.56           
H12-C3-C2-C6=263.75           H12-C3-C2-H10=146.47          C5-C4-C3-C2=321.25            C5-C4-C3-H11=199.04           
C5-C4-C3-H12= 78.71           H13-C4-C3-C2= 78.26           H13-C4-C3-H11=316.05          H13-C4-C3-H12=195.72          
H14-C4-C3-C2=199.65           H14-C4-C3-H11= 77.44          H14-C4-C3-H12=317.11          C6-C5-C4-C3= 41.36            
C6-C5-C4-H13=284.21           C6-C5-C4-H14=162.83           H15-C5-C4-C3=163.14           H15-C5-C4-H13= 45.99          
H15-C5-C4-H14=284.61          H16-C5-C4-C3=283.85           H16-C5-C4-H13=166.70          H16-C5-C4-H14= 45.32          
C5-C6-C2-C1=242.08            C5-C6-C2-C3=  4.53            C5-C6-C2-H10=121.77           H17-C6-C2-C1=123.20           
H17-C6-C2-C3=245.65           H17-C6-C2-H10=  2.89          H18-C6-C2-C1=  3.69           H18-C6-C2-C3=126.14           
H18-C6-C2-H10=243.38          C2-C6-C5-C4=331.61            C2-C6-C5-H15=209.51           C2-C6-C5-H16= 88.64           
H17-C6-C5-C4= 90.63           H17-C6-C5-H15=328.54          H17-C6-C5-H16=207.67          H18-C6-C5-C4=210.10           
H18-C6-C5-H15= 88.01          H18-C6-C5-H16=327.14          
           -------------------------------------------------
          |                Final Singlepoint                |
           -------------------------------------------------

          ...................................................
          :                      SETUP                      :
          :.................................................:
          :  # basis functions                  36          :
          :  # atomic orbitals                  36          :
          :  # shells                           24          :
          :  # electrons                        36          :
          :  max. iterations                   250          :
          :  Hamiltonian                  GFN2-xTB          :
          :  restarted?                      false          :
          :  GBSA solvation                   true          :
          :  PC potential                    false          :
          :  electronic temp.          300.0000000     K    :
          :  accuracy                    1.0000000          :
          :  -> integral cutoff          0.2500000E+02      :
          :  -> integral neglect         0.1000000E-07      :
          :  -> SCF convergence          0.1000000E-05 Eh   :
          :  -> wf. convergence          0.1000000E-03 e    :
          :  Broyden damping             0.4000000          :
          :  net charge                          0          :
          :  unpaired electrons                  0          :
          ...................................................

 iter      E             dE          RMSdq      gap      omega  full diag
   1    -19.2636809 -0.192637E+02  0.132E-05   12.95       0.0  T
   2    -19.2636809 -0.138556E-12  0.813E-06   12.95    2898.4  T
   3    -19.2636809  0.710543E-14  0.238E-06   12.95    9898.5  T

   *** convergence criteria satisfied after 3 iterations ***

         #    Occupation            Energy/Eh            Energy/eV
      -------------------------------------------------------------
         1        2.0000           -0.6325951             -17.2138
       ...           ...                  ...                  ...
        12        2.0000           -0.4580401             -12.4639
        13        2.0000           -0.4363418             -11.8735
        14        2.0000           -0.4344277             -11.8214
        15        2.0000           -0.4264666             -11.6047
        16        2.0000           -0.4245945             -11.5538
        17        2.0000           -0.4189743             -11.4009
        18        2.0000           -0.4122520             -11.2179 (HOMO)
        19                          0.0635130               1.7283 (LUMO)
        20                          0.0711215               1.9353
        21                          0.0800342               2.1778
        22                          0.1179468               3.2095
        23                          0.1328722               3.6156
       ...                                ...                  ...
        36                          0.3489680               9.4959
      -------------------------------------------------------------
                  HL-Gap            0.4757650 Eh           12.9462 eV
             Fermi-level           -0.1743695 Eh           -4.7448 eV

 SCC (total)                   0 d,  0 h,  0 min,  0.004 sec
 SCC setup                      ...        0 min,  0.001 sec ( 19.571%)
 Dispersion                     ...        0 min,  0.000 sec (  0.887%)
 classical contributions        ...        0 min,  0.000 sec (  0.317%)
 integral evaluation            ...        0 min,  0.001 sec ( 15.546%)
 iterations                     ...        0 min,  0.000 sec ( 12.098%)
 molecular gradient             ...        0 min,  0.002 sec ( 49.659%)
 printout                       ...        0 min,  0.000 sec (  1.675%)

         :::::::::::::::::::::::::::::::::::::::::::::::::::::
         ::                     SUMMARY                     ::
         :::::::::::::::::::::::::::::::::::::::::::::::::::::
         :: total energy             -18.981658674830 Eh    ::
         :: total w/o Gsasa/hb       -18.981559892150 Eh    ::
         :: gradient norm              0.000042942737 Eh/a0 ::
         :: HOMO-LUMO gap             12.946224416882 eV    ::
         ::.................................................::
         :: SCC energy               -19.263651638964 Eh    ::
         :: -> isotropic ES            0.003690898496 Eh    ::
         :: -> anisotropic ES          0.005109616669 Eh    ::
         :: -> anisotropic XC          0.011472874095 Eh    ::
         :: -> dispersion             -0.010897387371 Eh    ::
         :: -> Gsolv                  -0.000256665811 Eh    ::
         ::    -> Gelec               -0.000157883131 Eh    ::
         ::    -> Gsasa               -0.000791697995 Eh    ::
         ::    -> Ghb                 -0.000387844383 Eh    ::
         ::    -> Gshift               0.001080759698 Eh    ::
         :: repulsion energy           0.281992964133 Eh    ::
         :: add. restraining           0.000000000000 Eh    ::
         :: total charge               0.000000000000 e     ::
         :::::::::::::::::::::::::::::::::::::::::::::::::::::

           ------------------------------------------------- 
          |                Numerical Hessian                |
           ------------------------------------------------- 
step length          :   0.00500
SCC accuracy         :   0.30000
Hessian scale factor :   1.00000
frozen atoms in %    :   0.00000    0
RMS gradient         :   0.00004
estimated CPU  time      0.01 min
estimated wall time      0.01 min

writing file <hessian>.

 projected vibrational frequencies (cm⁻¹)
eigval :       -0.00    -0.00     0.00     0.00     0.00     0.00
eigval :       19.69   234.68   252.43   340.56   421.55   552.85
eigval :      594.14   811.27   868.96   878.37   917.87   954.13
eigval :      979.66  1009.32  1032.59  1060.28  1083.56  1117.34
eigval :     1166.41  1173.51  1202.70  1218.00  1229.37  1288.76
eigval :     1300.75  1308.41  1317.47  1321.88  1344.47  1408.45
eigval :     1482.58  1484.46  1489.60  1500.33  1504.62  1506.55
eigval :     2930.72  2967.48  2972.25  2978.39  2985.79  2997.05
eigval :     2999.64  3003.83  3009.20  3022.23  3022.86  3033.58
           -------------------------------------------------
          |                Property Printout                |
           -------------------------------------------------

    * Orbital Energies and Occupations

         #    Occupation            Energy/Eh            Energy/eV
      -------------------------------------------------------------
         1        2.0000           -0.6325951             -17.2138
       ...           ...                  ...                  ...
         6        2.0000           -0.5427764             -14.7697
         7        2.0000           -0.5213389             -14.1864
         8        2.0000           -0.5102754             -13.8853
         9        2.0000           -0.4880377             -13.2802
        10        2.0000           -0.4813907             -13.0993
        11        2.0000           -0.4722490             -12.8506
        12        2.0000           -0.4580401             -12.4639
        13        2.0000           -0.4363418             -11.8735
        14        2.0000           -0.4344277             -11.8214
        15        2.0000           -0.4264666             -11.6047
        16        2.0000           -0.4245945             -11.5538
        17        2.0000           -0.4189743             -11.4009
        18        2.0000           -0.4122520             -11.2179 (HOMO)
        19                          0.0635129               1.7283 (LUMO)
        20                          0.0711215               1.9353
        21                          0.0800342               2.1778
        22                          0.1179468               3.2095
        23                          0.1328722               3.6156
        24                          0.1429537               3.8900
        25                          0.1641985               4.4681
        26                          0.1762861               4.7970
        27                          0.1825223               4.9667
        28                          0.1883984               5.1266
        29                          0.1999830               5.4418
       ...                                ...                  ...
        36                          0.3489680               9.4959
      -------------------------------------------------------------
                  HL-Gap            0.4757650 Eh           12.9462 eV
             Fermi-level           -0.1743695 Eh           -4.7448 eV

     #   Z          covCN         q      C6AA      α(0)
     1   6 C        3.753    -0.112    22.697     6.794
     2   6 C        3.864    -0.018    20.858     6.495
     3   6 C        3.829    -0.066    21.741     6.634
     4   6 C        3.826    -0.060    21.641     6.620
     5   6 C        3.827    -0.061    21.645     6.620
     6   6 C        3.822    -0.067    21.775     6.640
     7   1 H        0.925     0.039     2.464     2.455
     8   1 H        0.925     0.036     2.502     2.474
     9   1 H        0.925     0.036     2.504     2.475
    10   1 H        0.924     0.024     2.668     2.554
    11   1 H        0.925     0.028     2.622     2.532
    12   1 H        0.924     0.036     2.502     2.474
    13   1 H        0.924     0.031     2.568     2.506
    14   1 H        0.925     0.029     2.595     2.519
    15   1 H        0.925     0.029     2.607     2.525
    16   1 H        0.924     0.033     2.545     2.495
    17   1 H        0.924     0.029     2.606     2.525
    18   1 H        0.925     0.035     2.517     2.481

 Mol. C6AA /au·bohr⁶  :       2216.927155
 Mol. C8AA /au·bohr⁸  :      47012.693818
 Mol. α(0) /au        :         69.815876


Wiberg/Mayer (AO) data.
largest (>0.10) Wiberg bond orders for each atom

 ---------------------------------------------------------------------------
     #   Z sym  total        # sym  WBO       # sym  WBO       # sym  WBO
 ---------------------------------------------------------------------------
     1   6 C    3.996 --     2 C    1.014     9 H    0.986     8 H    0.986
                             7 H    0.986
     2   6 C    3.995 --     1 C    1.014     3 C    0.993     6 C    0.990
                            10 H    0.975
     3   6 C    3.997 --     4 C    1.008     2 C    0.993    11 H    0.981
                            12 H    0.978
     4   6 C    3.998 --     3 C    1.008     5 C    1.008    13 H    0.980
                            14 H    0.979
     5   6 C    3.998 --     4 C    1.008     6 C    1.007    16 H    0.981
                            15 H    0.980
     6   6 C    3.997 --     5 C    1.007     2 C    0.990    17 H    0.984
                            18 H    0.980
     7   1 H    0.998 --     1 C    0.986
     8   1 H    0.999 --     1 C    0.986
     9   1 H    0.999 --     1 C    0.986
    10   1 H    0.999 --     2 C    0.975
    11   1 H    0.999 --     3 C    0.981
    12   1 H    0.999 --     3 C    0.978
    13   1 H    0.999 --     4 C    0.980
    14   1 H    0.999 --     4 C    0.979
    15   1 H    0.999 --     5 C    0.980
    16   1 H    0.999 --     5 C    0.981
    17   1 H    0.999 --     6 C    0.984
    18   1 H    0.999 --     6 C    0.980
 ---------------------------------------------------------------------------

Topologies differ in total number of bonds
Writing topology from bond orders to xtbtopo.mol

molecular dipole:
                 x           y           z       tot (Debye)
 q only:       -0.028       0.007      -0.045
   full:       -0.027       0.004      -0.031       0.105
molecular quadrupole (traceless):
                xx          xy          yy          xz          yz          zz
 q only:        0.190      -0.038      -0.022       0.089       0.009      -0.168
  q+dip:       -0.959       0.022      -0.500       0.214       0.024       1.459
   full:       -0.420       0.010      -0.277       0.146       0.026       0.697

           -------------------------------------------------
          |                Geometry Summary                 |
           -------------------------------------------------

      molecular mass/u    :       84.1597044
   center of mass at/Å    :        0.0000992      -0.0000343      -0.0001998
  moments of inertia/u·Å² :        0.8546370E+02   0.1636527E+03   0.2137166E+03
rotational constants/cm⁻¹ :        0.1972490E+00   0.1030086E+00   0.7887844E-01

 * 17 selected distances

     #   Z          #   Z                                           value/Å
     1   6 C        2   6 C                                       1.5244945
     2   6 C        3   6 C                                       1.5392229 (max)
     3   6 C        4   6 C                                       1.5257810
     4   6 C        5   6 C                                       1.5253476
     5   6 C        6   6 C                                       1.5314332
     1   6 C        7   1 H                                       1.0879634
     1   6 C        8   1 H                                       1.0879559
     1   6 C        9   1 H                                       1.0877849 (min)
     2   6 C       10   1 H                                       1.0940306
     3   6 C       11   1 H                                       1.0890782
     3   6 C       12   1 H                                       1.0914265
     4   6 C       13   1 H                                       1.0912851
     4   6 C       14   1 H                                       1.0890938
     5   6 C       15   1 H                                       1.0890162
     5   6 C       16   1 H                                       1.0911032
     6   6 C       17   1 H                                       1.0903840
     6   6 C       18   1 H                                       1.0891695

 * 2 distinct bonds (by element types)

   Z      Z             #   av. dist./Å        max./Å        min./Å
   1 H    6 C          12     1.0898576     1.0940306     1.0877849
   6 C    6 C           5     1.5292558     1.5392229     1.5244945

           -------------------------------------------------
          |               Frequency Printout                |
           -------------------------------------------------
 projected vibrational frequencies (cm⁻¹)
eigval :       -0.00    -0.00     0.00     0.00     0.00     0.00
eigval :       19.69   234.68   252.43   340.56   421.55   552.85
eigval :      594.14   811.27   868.96   878.37   917.87   954.13
eigval :      979.66  1009.32  1032.59  1060.28  1083.56  1117.34
eigval :     1166.41  1173.51  1202.70  1218.00  1229.37  1288.76
eigval :     1300.75  1308.41  1317.47  1321.88  1344.47  1408.45
eigval :     1482.58  1484.46  1489.60  1500.33  1504.62  1506.55
eigval :     2930.72  2967.48  2972.25  2978.39  2985.79  2997.05
eigval :     2999.64  3003.83  3009.20  3022.23  3022.86  3033.58
 reduced masses (amu)
   1:  8.99   2:  8.94   3: 10.28   4:  9.40   5: 10.27   6:  9.60   7:  7.19   8:  3.42
   9:  3.78  10:  7.42  11:  7.47  12:  7.28  13:  8.66  14:  5.22  15:  6.00  16:  7.46
  17:  3.63  18:  6.07  19:  8.00  20:  3.27  21:  4.08  22:  5.05  23:  6.74  24:  4.72
  25:  7.39  26:  7.24  27:  6.15  28:  4.30  29:  3.94  30:  3.93  31:  4.09  32:  3.12
  33:  4.64  34:  4.09  35:  5.43  36:  3.24  37:  1.89  38:  1.97  39:  1.93  40:  1.71
  41:  1.67  42:  1.94  43:  1.76  44:  1.86  45:  1.91  46:  1.92  47:  1.84  48:  1.69
  49:  1.60  50:  1.57  51:  1.56  52:  1.94  53:  1.94  54:  1.25
 IR intensities (km·mol⁻¹)
   1:  0.00   2:  0.00   3:  0.00   4:  0.00   5:  0.00   6:  0.00   7:  0.01   8:  0.00
   9:  0.10  10:  0.32  11:  0.96  12:  3.85  13:  0.36  14:  0.71  15:  1.20  16:  1.52
  17:  1.56  18:  0.31  19:  0.39  20:  3.10  21:  3.10  22:  1.06  23:  0.09  24:  0.83
  25:  2.14  26:  2.02  27:  1.42  28:  0.62  29:  0.89  30:  2.45  31:  3.49  32:  3.39
  33:  9.12  34:  1.84  35:  2.25  36:  0.39  37:  0.84  38:  0.55  39:  0.27  40:  0.92
  41:  0.59  42:  0.01  43: 63.53  44:  1.20  45:  6.94  46: 17.06  47:307.67  48: 37.52
  49:100.40  50:178.22  51: 46.35  52: 97.01  53: 93.00  54: 44.80
 Raman intensities (Ä⁴*amu⁻¹)
   1:  0.00   2:  0.00   3:  0.00   4:  0.00   5:  0.00   6:  0.00   7:  0.00   8:  0.00
   9:  0.00  10:  0.00  11:  0.00  12:  0.00  13:  0.00  14:  0.00  15:  0.00  16:  0.00
  17:  0.00  18:  0.00  19:  0.00  20:  0.00  21:  0.00  22:  0.00  23:  0.00  24:  0.00
  25:  0.00  26:  0.00  27:  0.00  28:  0.00  29:  0.00  30:  0.00  31:  0.00  32:  0.00
  33:  0.00  34:  0.00  35:  0.00  36:  0.00  37:  0.00  38:  0.00  39:  0.00  40:  0.00
  41:  0.00  42:  0.00  43:  0.00  44:  0.00  45:  0.00  46:  0.00  47:  0.00  48:  0.00
  49:  0.00  50:  0.00  51:  0.00  52:  0.00  53:  0.00  54:  0.00
 output can be read by thermo (or use thermo option).
 writing <g98.out> molden fake output.
 recommended (thermochemical) frequency scaling factor: 1.0
           -------------------------------------------------
          |             Thermodynamic Functions             |
           -------------------------------------------------

Molecule has no symmetry elements
It seems to be the C1 point group
c1  symmetry found (for desy threshold:  0.10E+00) used in thermo

          ...................................................
          :                      SETUP                      :
          :.................................................:
          :  # frequencies                          48      :
          :  # imaginary freq.                       0      :
          :  linear?                             false      :
          :  only rotor calc.                    false      :
          :  symmetry                               c1      :
          :  rotational number                       1      :
          :  scaling factor                  1.0000000      :
          :  rotor cutoff                    0.0000000 cm⁻¹ :
          :  imag. cutoff                 -100.0000000 cm⁻¹ :
          :.................................................:

    mode    ω/cm⁻¹     T·S(HO)/kcal·mol⁻¹    T·S(FR)/kcal·mol⁻¹   T·S(vib)
   ------------------------------------------------------------------------
       1     19.69    -1.98714 (100.00%)    -1.33094 (  0.00%)    -1.98714
       2    234.68    -0.54945 (100.00%)    -0.59836 (  0.00%)    -0.54945
       3    252.43    -0.51090 (100.00%)    -0.57678 (  0.00%)    -0.51090
   ------------------------------------------------------------------------

   temp. (K)  partition function   enthalpy   heat capacity  entropy
                                   cal/mol     cal/K/mol   cal/K/mol   J/K/mol
 298.15  VIB   43.3                 2237.202     17.774     14.993
         ROT  0.132E+06              888.752      2.981     26.413
         INT  0.572E+07             3125.955     20.755     41.406
         TR   0.747E+27             1481.254      4.968     39.186
         TOT                        4607.2085    25.7230    80.5923   337.1983

       T/K    H(0)-H(T)+PV         H(T)/Eh          T*S/Eh         G(T)/Eh
   ------------------------------------------------------------------------
    298.15    0.734205E-02    0.174333E+00    0.382920E-01    0.136041E+00
   ------------------------------------------------------------------------

         :::::::::::::::::::::::::::::::::::::::::::::::::::::
         ::                  THERMODYNAMIC                  ::
         :::::::::::::::::::::::::::::::::::::::::::::::::::::
         :: total free energy         -18.845617616068 Eh   ::
         ::.................................................::
         :: total energy              -18.981658674821 Eh   ::
         :: zero point energy           0.166991025122 Eh   ::
         :: G(RRHO) w/o ZPVE           -0.030949966370 Eh   ::
         :: G(RRHO) contrib.            0.136041058752 Eh   ::
         :::::::::::::::::::::::::::::::::::::::::::::::::::::

optimized geometry written to: xtbopt.coord


           -------------------------------------------------
          | TOTAL ENERGY              -18.981658674821 Eh   |
          | TOTAL ENTHALPY            -18.807325595690 Eh   |
          | TOTAL FREE ENERGY         -18.845617616068 Eh   |
          | GRADIENT NORM               0.000042944281 Eh/α |
          | HOMO-LUMO GAP              12.946224337082 eV   |
           -------------------------------------------------

------------------------------------------------------------------------
 * finished run on 2025/04/03 at 21:14:30.846     
------------------------------------------------------------------------
 total:
 * wall-time:     0 d,  0 h,  0 min,  0.556 sec
 *  cpu-time:     0 d,  0 h,  0 min,  0.478 sec
 * ratio c/w:     0.860 speedup
 SCF:
 * wall-time:     0 d,  0 h,  0 min,  0.020 sec
 *  cpu-time:     0 d,  0 h,  0 min,  0.008 sec
 * ratio c/w:     0.410 speedup
 ANC optimizer:
 * wall-time:     0 d,  0 h,  0 min,  0.056 sec
 *  cpu-time:     0 d,  0 h,  0 min,  0.044 sec
 * ratio c/w:     0.786 speedup
 analytical hessian:
 * wall-time:     0 d,  0 h,  0 min,  0.427 sec
 *  cpu-time:     0 d,  0 h,  0 min,  0.418 sec
 * ratio c/w:     0.979 speedup

