
                                 *****************
                                 * O   R   C   A *
                                 *****************

                                            #,                                       
                                            ###                                      
                                            ####                                     
                                            #####                                    
                                            ######                                   
                                           ########,                                 
                                     ,,################,,,,,                         
                               ,,#################################,,                 
                          ,,##########################################,,             
                       ,#########################################, ''#####,          
                    ,#############################################,,   '####,        
                  ,##################################################,,,,####,       
                ,###########''''           ''''###############################       
              ,#####''   ,,,,##########,,,,          '''####'''          '####       
            ,##' ,,,,###########################,,,                        '##       
           ' ,,###''''                  '''############,,,                           
         ,,##''                                '''############,,,,        ,,,,,,###''
      ,#''                                            '''#######################'''  
     '                                                          ''''####''''         
             ,#######,   #######,   ,#######,      ##                                
            ,#'     '#,  ##    ##  ,#'     '#,    #''#        ,####,   ,####,        
            ##       ##  ##   ,#'  ##            #'  '#       #'       #'  '#        
            ##       ##  #######   ##           ,######,      #####,   #    #        
            '#,     ,#'  ##    ##  '#,     ,#' ,#      #,     #,   #   #,  ,#        
             '#######'   ##     ##  '#######'  #'      '#     '####' # '####'        



                #########################################################
                #                        -***-                          #
                #          Department of theory and spectroscopy        #
                #                                                       #
                #                      Frank Neese                      #
                #                                                       #
                #     Directorship, Architecture, Infrastructure        #
                #                    SHARK, DRIVERS                     #
                #        Core code/Algorithms in most modules           #
                #                                                       #
                #        Max Planck Institute fuer Kohlenforschung      #
                #                Kaiser Wilhelm Platz 1                 #
                #                 D-45470 Muelheim/Ruhr                 #
                #                      Germany                          #
                #                                                       #
                #                  All rights reserved                  #
                #                        -***-                          #
                #########################################################


                         Program Version 6.0.0  -   RELEASE  -


 With contributions from (in alphabetic order):
   Daniel Aravena         : Magnetic Suceptibility
   Michael Atanasov       : Ab Initio Ligand Field Theory (pilot matlab implementation)
   Alexander A. Auer      : GIAO ZORA, VPT2 properties, NMR spectrum
   Ute Becker             : All parallelization in ORCA, NUMFREQ, NUMCALC
   Giovanni Bistoni       : ED, misc. LED, open-shell LED, HFLD
   Martin Brehm           : Molecular dynamics
   Dmytro Bykov           : pre 5.0 version of the SCF Hessian
   Marcos Casanova-Páez   : Triplet and SCS-CIS(D). UHF-(DLPNO)-IP/EA/STEOM-CCSD. UHF-CVS-IP/STEOM-CCSD
   Vijay G. Chilkuri      : MRCI spin determinant printing, contributions to CSF-ICE
   Pauline Colinet        : FMM embedding
   Dipayan Datta          : RHF DLPNO-CCSD density
   Achintya Kumar Dutta   : EOM-CC, STEOM-CC
   Nicolas Foglia         : Exact transition moments, OPA infrastructure, MCD improvements
   Dmitry Ganyushin       : Spin-Orbit,Spin-Spin,Magnetic field MRCI
   Miquel Garcia          : C-PCM and meta-GGA Hessian, CCSD/C-PCM, Gaussian charge scheme
   Tiago L. C. Gouveia    : GS-ROHF, GS-ROCIS
   Yang Guo               : DLPNO-NEVPT2, F12-NEVPT2, CIM, IAO-localization
   Andreas Hansen         : Spin unrestricted coupled pair/coupled cluster methods
   Ingolf Harden          : AUTO-CI MPn and infrastructure 
   Benjamin Helmich-Paris : MC-RPA, TRAH-(SCF,CASSCF), AVAS, COSX integrals, SCF dyn. polar.
   Lee Huntington         : MR-EOM, pCC
   Robert Izsak           : Overlap fitted RIJCOSX, COSX-SCS-MP3, EOM
   Riya Kayal             : Wick's Theorem for AUTO-CI, AUTO-CI UHF-CCSDT
   Emily Kempfer          : AUTO-CI, RHF CISDT and CCSDT
   Christian Kollmar      : KDIIS, OOCD, Brueckner-CCSD(T), CCSD density, CASPT2, CASPT2-K, improved NEVPT2
   Axel Koslowski         : Symmetry handling
   Simone Kossmann        : Meta GGA functionals, TD-DFT gradient, OOMP2, (MP2 Hessian; deprecated post 5.0)
   Lucas Lang             : DCDCAS
   Marvin Lechner         : AUTO-CI (C++ implementation), FIC-MRCC
   Spencer Leger          : CASSCF response
   Dagmar Lenk            : GEPOL surface, SMD, ORCA-2-JSON
   Dimitrios Liakos       : Extrapolation schemes; Compound Job, initial MDCI parallelization
   Dimitrios Manganas     : Further ROCIS development; embedding schemes. LFT, Crystal Embedding
   Dimitrios Pantazis     : SARC Basis sets
   Anastasios Papadopoulos: AUTO-CI, single reference methods and gradients
   Taras Petrenko         : pre 6.0 DFT Hessian and TD-DFT gradient, (ASA, deprecated), ECA, 1-Electron XAS/XES, NRVS
   Peter Pinski           : DLPNO-MP2, DLPNO-MP2 Gradient
   Christoph Reimann      : Effective Core Potentials
   Marius Retegan         : Local ZFS, SOC
   Christoph Riplinger    : Optimizer, TS searches, QM/MM, DLPNO-CCSD(T), (RO)-DLPNO pert. Triples
   Michael Roemelt        : Original ROCIS implementation
   Masaaki Saitow         : Open-shell DLPNO-CCSD energy and density
   Barbara Sandhoefer     : DKH picture change effects
   Kantharuban Sivalingam : CASSCF convergence/infrastructure, NEVPT2 and variants, FIC-MRCI
   Bernardo de Souza      : ESD, SOC TD-DFT
   Georgi Stoychev        : AutoAux, RI-MP2 NMR, DLPNO-MP2 response, X2C
   Van Anh Tran           : RI-MP2 g-tensors
   Willem Van den Heuvel  : Paramagnetic NMR
   Zikuan Wang            : NOTCH, Electric field optimization 
   Frank Wennmohs         : Technical directorship and infrastructure
   Hang Xu                : AUTO-CI-Response properties 


 We gratefully acknowledge several colleagues who have allowed us to
 interface, adapt or use parts of their codes:
   Stefan Grimme, W. Hujo, H. Kruse, P. Pracht,  : VdW corrections, initial TS optimization,
                  C. Bannwarth, S. Ehlert,         DFT functionals, gCP, sTDA/sTD-DF
                  L. Wittmann, M. Mueller
   Ed Valeev, F. Pavosevic, A. Kumar             : LibInt (2-el integral package), F12 methods
   Garnet Chan, S. Sharma, J. Yang, R. Olivares  : DMRG
   Ulf Ekstrom                                   : XCFun DFT Library
   Mihaly Kallay                                 : mrcc  (arbitrary order and MRCC methods)
   Frank Weinhold                                : gennbo (NPA and NBO analysis)
   Simon Mueller                                 : openCOSMO-RS
   Christopher J. Cramer and Donald G. Truhlar   : smd solvation model
   Lars Goerigk                                  : TD-DFT with DH, B97 family of functionals
   V. Asgeirsson, H. Jonsson                     : NEB implementation
   FAccTs GmbH                                   : IRC, NEB, NEB-TS, DLPNO-Multilevel, CI-OPT
                                                   MM, QMMM, 2- and 3-layer-ONIOM, Crystal-QMMM,
                                                   LR-CPCM, SF, NACMEs, symmetry and pop. for TD-DFT,
                                                   nearIR, NL-DFT gradient (VV10), updates on ESD,
                                                   ML-optimized integration grids, MBIS, APM,
                                                   GOAT, DOCKER, SOLVATOR, interface openCOSMO-RS
   S Lehtola, MJT Oliveira, MAL Marques          : LibXC Library
   Liviu Ungur et al                             : ANISO software


 Your calculation uses the libint2 library for the computation of 2-el integrals
 For citations please refer to: http://libint.valeyev.net

 Your ORCA version has been built with support for libXC version: 6.2.2
 For citations please refer to: https://libxc.gitlab.io

 This ORCA versions uses:
   CBLAS   interface :  Fast vector & matrix operations
   LAPACKE interface :  Fast linear algebra routines
   SCALAPACK package :  Parallel linear algebra routines
   Shared memory     :  Shared parallel matrices
   BLAS/LAPACK       :  OpenBLAS 0.3.27  USE64BITINT DYNAMIC_ARCH NO_AFFINITY SapphireRapids SINGLE_THREADED
        Core in use  :  SapphireRapids
   Copyright (c) 2011-2014, The OpenBLAS Project


Your calculation utilizes the geometrical counterpoise correction gCP
Please cite in your paper:
H.Kruse, S. Grimme J.Chem.Phys., 136, (2012), 154101 
   

Your calculation utilizes the DFT-NL dispersion correction.
Cite in your paper:
Vydrov, O. A.; Van Voorhis, T. J. Chem. Phys. 2010, 133, 244103
Hujo, W.; Grimme, S. J. Chem. Theory Comput. 2011, 7, 3866 
   

Your calculation utilizes the SMD solvation module
Please cite in your paper:
A.V. Marenich, C.J. Cramer, D.G. Truhlar J. Phys. Chem. B, 113, (2009), 6378 

================================================================================

----- Orbital basis set information -----
Your calculation utilizes the basis: def2-TZVP
   F. Weigend and R. Ahlrichs, Phys. Chem. Chem. Phys. 7, 3297 (2005).

----- AuxJ basis set information -----
Your calculation utilizes the auxiliary basis: def2/J
   F. Weigend, Phys. Chem. Chem. Phys. 8, 1057 (2006).

================================================================================
                                        WARNINGS
                       Please study these warnings very carefully!
================================================================================


================================================================================
                                       INPUT FILE
================================================================================
NAME = sp_solv.inp
|  1> ! wb97x-v def2-tzvp def2/J RIJCOSX DEFGRID2 scfconv7 GCP(DFT/TZ) printgap
|  2> %output
|  3>     printlevel normal
|  4> end
|  5> %cpcm
|  6>     smd true
|  7>     smdsolvent "water"
|  8> end
|  9> * xyz 0 1
| 10> C -0.9163172896959999 1.382263056835112 -0.4488819741612236
| 11> C -0.4855240119107754 -0.00016592612105843346 0.00018923055763086567
| 12> C -0.9158483873312271 -1.0799342872425048 -0.9731601103420581
| 13> C -0.9161271237623977 -0.3025042387717506 1.4219294176486557
| 14> Cl 1.4124112420493464 -0.00022422127236947903 0.0004962667338277895
| 15> H -0.5579842995230799 1.6026290277666193 -1.457576638580276
| 16> H -2.0120481201458427 1.413489119841043 -0.4587089394766716
| 17> H -0.5577178525515866 2.1537565773357183 0.2370657316719398
| 18> H -0.5560294055360557 -2.0638388172819524 -0.6619166929791458
| 19> H -2.011543510704049 -1.1053712948250636 -0.9946313077364265
| 20> H -0.5580453450451139 -0.8696394459756143 -1.984215593524739
| 21> H -2.011869248012391 -0.30822220090773056 1.4546296674717347
| 22> H -0.5568181007505482 0.4599741225420117 2.117619925630649
| 23> H -0.5585198492655669 -1.2827187754845297 1.7471640506132862
| 24> *
| 25> 
| 26>                          ****END OF INPUT****
================================================================================

                       ****************************
                       * Single Point Calculation *
                       ****************************

---------------------------------
CARTESIAN COORDINATES (ANGSTROEM)
---------------------------------
  C     -0.916317    1.382263   -0.448882
  C     -0.485524   -0.000166    0.000189
  C     -0.915848   -1.079934   -0.973160
  C     -0.916127   -0.302504    1.421929
  Cl     1.412411   -0.000224    0.000496
  H     -0.557984    1.602629   -1.457577
  H     -2.012048    1.413489   -0.458709
  H     -0.557718    2.153757    0.237066
  H     -0.556029   -2.063839   -0.661917
  H     -2.011544   -1.105371   -0.994631
  H     -0.558045   -0.869639   -1.984216
  H     -2.011869   -0.308222    1.454630
  H     -0.556818    0.459974    2.117620
  H     -0.558520   -1.282719    1.747164

----------------------------
CARTESIAN COORDINATES (A.U.)
----------------------------
  NO LB      ZA    FRAG     MASS         X           Y           Z
   0 C     6.0000    0    12.011   -1.731589    2.612099   -0.848264
   1 C     6.0000    0    12.011   -0.917507   -0.000314    0.000358
   2 C     6.0000    0    12.011   -1.730703   -2.040780   -1.839006
   3 C     6.0000    0    12.011   -1.731229   -0.571650    2.687057
   4 Cl   17.0000    0    35.453    2.669070   -0.000424    0.000938
   5 H     1.0000    0     1.008   -1.054438    3.028530   -2.754421
   6 H     1.0000    0     1.008   -3.802220    2.671107   -0.866834
   7 H     1.0000    0     1.008   -1.053934    4.070010    0.447989
   8 H     1.0000    0     1.008   -1.050743   -3.900090   -1.250841
   9 H     1.0000    0     1.008   -3.801266   -2.088849   -1.879581
  10 H     1.0000    0     1.008   -1.054553   -1.643380   -3.749624
  11 H     1.0000    0     1.008   -3.801882   -0.582456    2.748852
  12 H     1.0000    0     1.008   -1.052234    0.869225    4.001722
  13 H     1.0000    0     1.008   -1.055450   -2.423987    3.301662

--------------------------------
INTERNAL COORDINATES (ANGSTROEM)
--------------------------------
 C      0   0   0     0.000000000000     0.00000000     0.00000000
 C      1   0   0     1.516033537891     0.00000000     0.00000000
 C      2   1   0     1.516076423268   112.24796622     0.00000000
 C      2   1   3     1.515972511236   112.26853213   232.37306362
 Cl     2   1   3     1.897935279691   106.51307066   116.18237847
 H      1   2   3     1.092899180628   111.35152112   304.94270447
 H      1   2   3     1.096219726632   108.21970971    63.84281670
 H      1   2   3     1.092849515548   111.38094045   182.74507031
 H      3   2   1     1.092890794519   111.40130019   177.18570639
 H      3   2   1     1.096200646349   108.22876268   296.12554868
 H      3   2   1     1.092922745397   111.34374093    55.01681770
 H      4   2   1     1.096244865112   108.23585106    63.73006364
 H      4   2   1     1.092914227369   111.37426642   304.83944650
 H      4   2   1     1.092923175359   111.40838530   182.65829852

---------------------------
INTERNAL COORDINATES (A.U.)
---------------------------
 C      0   0   0     0.000000000000     0.00000000     0.00000000
 C      1   0   0     2.864888196453     0.00000000     0.00000000
 C      2   1   0     2.864969238072   112.24796622     0.00000000
 C      2   1   3     2.864772872788   112.26853213   232.37306362
 Cl     2   1   3     3.586577898522   106.51307066   116.18237847
 H      1   2   3     2.065280143375   111.35152112   304.94270447
 H      1   2   3     2.071555065936   108.21970971    63.84281670
 H      1   2   3     2.065186289973   111.38094045   182.74507031
 H      3   2   1     2.065264295924   111.40130019   177.18570639
 H      3   2   1     2.071519009426   108.22876268   296.12554868
 H      3   2   1     2.065324674334   111.34374093    55.01681770
 H      4   2   1     2.071602570780   108.23585106    63.73006364
 H      4   2   1     2.065308577594   111.37426642   304.83944650
 H      4   2   1     2.065325486843   111.40838530   182.65829852

---------------------
BASIS SET INFORMATION
---------------------
There are 3 groups of distinct atoms

 Group   1 Type C   : 11s6p2d1f contracted to 5s3p2d1f pattern {62111/411/11/1}
 Group   2 Type Cl  : 14s9p3d1f contracted to 5s5p2d1f pattern {73211/51111/21/1}
 Group   3 Type H   : 5s1p contracted to 3s1p pattern {311/1}

Atom   0C    basis set group =>   1
Atom   1C    basis set group =>   1
Atom   2C    basis set group =>   1
Atom   3C    basis set group =>   1
Atom   4Cl   basis set group =>   2
Atom   5H    basis set group =>   3
Atom   6H    basis set group =>   3
Atom   7H    basis set group =>   3
Atom   8H    basis set group =>   3
Atom   9H    basis set group =>   3
Atom  10H    basis set group =>   3
Atom  11H    basis set group =>   3
Atom  12H    basis set group =>   3
Atom  13H    basis set group =>   3
---------------------------------
AUXILIARY/J BASIS SET INFORMATION
---------------------------------
There are 3 groups of distinct atoms

 Group   1 Type C   : 12s5p4d2f1g contracted to 6s4p3d1f1g pattern {711111/2111/211/2/1}
 Group   2 Type Cl  : 14s5p5d2f1g contracted to 8s4p3d1f1g pattern {71111111/2111/311/2/1}
 Group   3 Type H   : 5s2p1d contracted to 3s1p1d pattern {311/2/1}

Atom   0C    basis set group =>   1
Atom   1C    basis set group =>   1
Atom   2C    basis set group =>   1
Atom   3C    basis set group =>   1
Atom   4Cl   basis set group =>   2
Atom   5H    basis set group =>   3
Atom   6H    basis set group =>   3
Atom   7H    basis set group =>   3
Atom   8H    basis set group =>   3
Atom   9H    basis set group =>   3
Atom  10H    basis set group =>   3
Atom  11H    basis set group =>   3
Atom  12H    basis set group =>   3
Atom  13H    basis set group =>   3

Checking for AutoStart:
The File: sp_solv.gbw exists
Trying to determine its content:
     ... Fine, the file contains calculation information
     ... Fine, the calculation information was read
     ... Fine, the file contains a basis set
     ... Fine, the basis set was read
     ... Fine, the file contains a geometry
     ... Fine, the geometry was read
     ... Fine, the file contains a set of orbitals
     ... Fine, the orbitals can be read
     => possible old guess file was deleted
     => GBW file was renamed to GES file
     => GES file is set as startup file
     => Guess is set to MORead
     ... now leaving AutoStart

------------------------------------------------------------------------------
                             ORCA STARTUP CALCULATIONS
                           -- RI-GTO INTEGRALS CHOSEN --
------------------------------------------------------------------------------
------------------------------------------------------------------------------
                   ___                                                        
                  /   \      - P O W E R E D   B Y -                         
                 /     \                                                     
                 |  |  |   _    _      __       _____    __    __             
                 |  |  |  | |  | |    /  \     |  _  \  |  |  /  |          
                  \  \/   | |  | |   /    \    | | | |  |  | /  /          
                 / \  \   | |__| |  /  /\  \   | |_| |  |  |/  /          
                |  |  |   |  __  | /  /__\  \  |    /   |      \           
                |  |  |   | |  | | |   __   |  |    \   |  |\   \          
                \     /   | |  | | |  |  |  |  | |\  \  |  | \   \       
                 \___/    |_|  |_| |__|  |__|  |_| \__\ |__|  \__/        
                                                                              
                      - O R C A' S   B I G   F R I E N D -                    
                                      &                                       
                       - I N T E G R A L  F E E D E R -                       
                                                                              
 v1 FN, 2020, v2 2021, v3 2022-2024                                           
------------------------------------------------------------------------------


----------------------
SHARK INTEGRAL PACKAGE
----------------------

Number of atoms                             ...     14
Number of basis functions                   ...    215
Number of shells                            ...     93
Maximum angular momentum                    ...      3
Integral batch strategy                     ... SHARK/LIBINT Hybrid
RI-J (if used) integral strategy            ... SPLIT-RIJ (Revised 2003 algorithm where possible)
Printlevel                                  ...      1
Contraction scheme used                     ... SEGMENTED contraction
Prescreening option                         ... SCHWARTZ
   Thresh                                   ... 3.000e-11
   Tcut                                     ... 1.000e-12
   Tpresel                                  ... 1.000e-12 
Coulomb Range Separation                    ... NOT USED
Exchange Range Separation                   ... Long Range
   Mu parameter                             ... 3.000e-01
   Scaling (regular/separated)              ... 1.670e-01 8.330e-01
Multipole approximations                    ... NOT USED
Finite Nucleus Model                        ... NOT USED
CABS basis                                  ... NOT available
Auxiliary Coulomb fitting basis             ... AVAILABLE
   # of basis functions in Aux-J            ...    346
   # of shells in Aux-J                     ...    122
   Maximum angular momentum in Aux-J        ...      4
Auxiliary J/K fitting basis                 ... NOT available
Auxiliary Correlation fitting basis         ... NOT available
Auxiliary 'external' fitting basis          ... NOT available

Checking pre-screening integrals            ... done (  0.0 sec) Dimension = 93
Check shell pair data                       ... done (  0.0 sec)
Shell pair information
Shell pair cut-off parameter TPreSel        ...   1.0e-12
Total number of shell pairs                 ...      4371
Shell pairs after pre-screening             ...      4227
Total number of primitive shell pairs       ...     13192
Primitive shell pairs kept                  ...     10058
          la=0 lb=0:   1282 shell pairs
          la=1 lb=0:   1308 shell pairs
          la=1 lb=1:    347 shell pairs
          la=2 lb=0:    520 shell pairs
          la=2 lb=1:    260 shell pairs
          la=2 lb=2:     55 shell pairs
          la=3 lb=0:    260 shell pairs
          la=3 lb=1:    130 shell pairs
          la=3 lb=2:     50 shell pairs
          la=3 lb=3:     15 shell pairs

Calculating one electron integrals          ... done (  0.0 sec)
Calculating RI/J V-Matrix + Cholesky decomp.... done (  0.0 sec)
Calculating Nuclear repulsion               ... done (  0.0 sec) ENN=    239.153103190697 Eh

Diagonalization of the overlap matrix:
Smallest eigenvalue                        ... 2.691e-04
Time for diagonalization                   ...    0.004 sec
Threshold for overlap eigenvalues          ... 1.000e-07
Number of eigenvalues below threshold      ... 0
Time for construction of square roots      ...    0.014 sec
Total time needed                          ...    0.025 sec

-------------------
DFT GRID GENERATION
-------------------

General Integration Accuracy     IntAcc      ... 4.388
Radial Grid Type                 RadialGrid  ... OptM3 with GC (2021)
Angular Grid (max. ang.)         AngularGrid ... 4 (Lebedev-302)
Angular grid pruning method      GridPruning ... 4 (adaptive)
Weight generation scheme         WeightScheme... mBecke (2022)
Basis function cutoff            BFCut       ... 1.0000e-11
Integration weight cutoff        WCut        ... 1.0000e-14
Partially contracted basis set               ... off
Rotationally invariant grid construction     ... off
Angular grids for H and He will be reduced by one unit

Total number of grid points                  ...    60294
Total number of batches                      ...      950
Average number of points per batch           ...       63
Average number of grid points per atom       ...     4307

--------------------
COSX GRID GENERATION
--------------------

GRIDX 1
-------
General Integration Accuracy     IntAcc      ... 3.816
Radial Grid Type                 RadialGrid  ... OptM3 with GC (2021)
Angular Grid (max. ang.)         AngularGrid ... 1 (Lebedev-50)
Angular grid pruning method      GridPruning ... 4 (adaptive)
Weight generation scheme         WeightScheme... mBecke (2022)
Basis function cutoff            BFCut       ... 1.0000e-11
Integration weight cutoff        WCut        ... 1.0000e-14
Partially contracted basis set               ... on
Rotationally invariant grid construction     ... off
Angular grids for H and He will be reduced by one unit

Total number of grid points                  ...     8747
Total number of batches                      ...       77
Average number of points per batch           ...      113
Average number of grid points per atom       ...      625
UseSFitting                                  ... on

GRIDX 2
-------
General Integration Accuracy     IntAcc      ... 4.020
Radial Grid Type                 RadialGrid  ... OptM3 with GC (2021)
Angular Grid (max. ang.)         AngularGrid ... 2 (Lebedev-110)
Angular grid pruning method      GridPruning ... 4 (adaptive)
Weight generation scheme         WeightScheme... mBecke (2022)
Basis function cutoff            BFCut       ... 1.0000e-11
Integration weight cutoff        WCut        ... 1.0000e-14
Partially contracted basis set               ... on
Rotationally invariant grid construction     ... off
Angular grids for H and He will be reduced by one unit

Total number of grid points                  ...    15991
Total number of batches                      ...      132
Average number of points per batch           ...      121
Average number of grid points per atom       ...     1142
UseSFitting                                  ... on

GRIDX 3
-------
General Integration Accuracy     IntAcc      ... 4.338
Radial Grid Type                 RadialGrid  ... OptM3 with GC (2021)
Angular Grid (max. ang.)         AngularGrid ... 3 (Lebedev-194)
Angular grid pruning method      GridPruning ... 4 (adaptive)
Weight generation scheme         WeightScheme... mBecke (2022)
Basis function cutoff            BFCut       ... 1.0000e-11
Integration weight cutoff        WCut        ... 1.0000e-14
Partially contracted basis set               ... on
Rotationally invariant grid construction     ... off
Angular grids for H and He will be reduced by one unit

Total number of grid points                  ...    35649
Total number of batches                      ...      285
Average number of points per batch           ...      125
Average number of grid points per atom       ...     2546
UseSFitting                                  ... on
Initializing property integral containers    ... done (  0.0 sec)

SHARK setup successfully completed in   2.1 seconds

Maximum memory used throughout the entire STARTUP-calculation: 33.0 MB
-------------------------------------------------------------------------------
                                 ORCA GUESS
                   Start orbitals & Density for SCF / CASSCF
-------------------------------------------------------------------------------

------------
SCF SETTINGS
------------
Hamiltonian:
 Density Functional     Method          .... DFT(GTOs)
 Exchange Functional    Exchange        .... WB97X-V
 Correlation Functional Correlation     .... WB97X-V
 Gradients option       PostSCFGGA      .... off
 Hybrid DFT is turned on
   Fraction HF Exchange ScalHFX         ....  0.167000
   Scaling of DF-GGA-X  ScalDFX         ....  0.000000
   Scaling of DF-GGA-C  ScalDFC         ....  1.000000
   Scaling of DF-LDA-C  ScalLDAC        ....  1.000000
   Perturbative correction              ....  0.000000
 Long-range corrected/Screened/Range-Separated Hybrid DFT is turned on
   Amount of maximum screened exact exchange              ....  0.833000
   Range separation parameter mu (erf(mu*r12)/r12)        ....  0.300000
   NL short-range parameter             ....  6.000000
   NL long-range parameter              ....  0.010000
 RI-approximation to the Coulomb term is turned on
   Number of AuxJ basis functions       .... 346
   RIJ-COSX (HFX calculated with COS-X)).... on


General Settings:
 Integral files         IntName         .... sp_solv
 Hartree-Fock type      HFTyp           .... RHF
 Total Charge           Charge          ....    0
 Multiplicity           Mult            ....    1
 Number of Electrons    NEL             ....   50
 Basis Dimension        Dim             ....  215
 Nuclear Repulsion      ENuc            ....    239.1531031907 Eh

Convergence Acceleration:
 AO-DIIS                CNVDIIS         .... on
   Start iteration      DIISMaxIt       ....    12
   Startup error        DIISStart       ....  0.200000
   # of expansion vecs  DIISMaxEq       ....     5
   Bias factor          DIISBfac        ....   1.050
   Max. coefficient     DIISMaxC        ....  10.000
 MO-DIIS                CNVKDIIS        .... off
 Trust-Rad. Augm. Hess. CNVTRAH         .... auto
   Auto Start mean grad. ratio tolernc. ....  1.125000
   Auto Start start iteration           ....     1
   Auto Start num. interpolation iter.  ....    10
   Max. Number of Micro iterations      ....    24
   Max. Number of Macro iterations      .... Maxiter - #DIIS iter
   Number of Davidson start vectors     ....     2
   Converg. threshold    (grad. norm)   ....   1.000e-04
   Grad. Scal. Fac. for Micro threshold ....   0.100
   Minimum threshold for Micro iter.    ....   1.000e-02
   NR start threshold (gradient norm)   ....   1.000e-04
   Initial trust radius                 ....   0.400
   Minimum AH scaling param. (alpha)    ....   1.000
   Maximum AH scaling param. (alpha)    .... 1000.000
   Quad. conv. algorithm                .... NR
   White noise on init. David. guess    .... on
   Maximum white noise                  ....   0.010
   Pseudo random numbers                .... off
   Inactive MOs                         .... canonical
   Orbital update algorithm             .... Taylor
   Preconditioner                       .... Diag
   Full preconditioner red. dimension   ....   250
 SOSCF                  CNVSOSCF        .... on
   Start iteration      SOSCFMaxIt      ....   150
   Startup grad/error   SOSCFStart      ....  0.003300
   Hessian update       SOSCFHessUp     .... L-BFGS
 Level Shifting         CNVShift        .... on
   Level shift para.    LevelShift      ....    0.2500
   Turn off err/grad.   ShiftErr        ....    0.0010
 Zerner damping         CNVZerner       .... off
 Static damping         CNVDamp         .... on
   Fraction old density DampFac         ....    0.7000
   Max. Damping (<1)    DampMax         ....    0.9800
   Min. Damping (>=0)   DampMin         ....    0.0000
   Turn off err/grad.   DampErr         ....    0.1000

SCF Procedure:
 Maximum # iterations   MaxIter         ....   125
 SCF integral mode      SCFMode         .... Direct
   Integral package                     .... SHARK and LIBINT hybrid scheme
 Reset frequency        DirectResetFreq ....    20
 Integral Threshold     Thresh          ....  3.000e-11 Eh
 Primitive CutOff       TCut            ....  1.000e-12 Eh

Convergence Tolerance:
 Convergence Check Mode ConvCheckMode   .... Total+1el-Energy
 Convergence forced     ConvForced      .... 0
 Energy Change          TolE            ....  1.000e-07 Eh
 1-El. energy change                    ....  1.000e-04 Eh
 Orbital Gradient       TolG            ....  1.000e-04
 Orbital Rotation angle TolX            ....  1.000e-04
 DIIS Error             TolErr          ....  1.000e-07

---------------------
INITIAL GUESS: MOREAD
---------------------
Guess MOs are being read from file: sp_solv.ges
Input Geometry matches current geometry (good)
Atom 0: N(Shells)= 11 and 9 - projection required
Input basis set needs projection
NBasis(read)= 148
NBasis(calc)= 215
Basis set overlap was calculated
Using GuessMode=FMatrix for the initial guess
C*T matrix was formed
Effective Fockian was calculated
Effective Fockian was diagonalized
Initial density was built
                      ------------------
                      INITIAL GUESS DONE (   0.4 sec)
                      ------------------
             **** ENERGY FILE WAS UPDATED (sp_solv.en.tmp) ****
Finished Guess after   0.6 sec
Maximum memory used throughout the entire GUESS-calculation: 17.6 MB

-------------------------------------------------------------------------------------------
                                      ORCA LEAN-SCF
                              memory conserving SCF solver
-------------------------------------------------------------------------------------------

--------------------
CPCM SOLVATION MODEL
--------------------
CPCM parameters:
  Epsilon                                         ...      78.3550
  Refrac                                          ...       1.3328
  Rsolv                                           ...       1.3000
  Surface type                                    ... GAUSSIAN VDW
  Discretization scheme                           ... Constant charge density
    Threshold for H atoms                         ...       5.0000 (charges/Ang^2)
    Threshold for non-H atoms                     ...       5.0000 (charges/Ang^2)
  Epsilon function type                           ...         CPCM
Solvent:                                          ... WATER
SMD-CDS solvent descriptors:
  Soln                                            ...       1.3328
  Soln25                                          ...       1.3323
  Sola                                            ...       0.0000
  Solb                                            ...       0.0000
  Solg                                            ...       0.0000
  Solc                                            ...       0.0000
  Solh                                            ...       0.0000
Radii:
  Scheme                                          ... Element-dependent radii
  Radius for C  used is    3.4960 Bohr (=   1.8500 Ang.)
  Radius for Cl used is    4.4975 Bohr (=   2.3800 Ang.)
  Radius for H  used is    2.2677 Bohr (=   1.2000 Ang.)
Calculating surface                               ...        done! (  0.0s)
Cavity surface points                             ...         1106
Cavity Volume                                     ...     816.8447
Cavity Surface-area                               ...     499.1237
Calculating surface distance matrix               ...        done! (  0.0s)
Performing Cholesky decomposition & store         ...        done! (  0.2s)
Overall time for CPCM initialization              ...                 0.2s

----------------------------------------D-I-I-S--------------------------------------------
Iteration    Energy (Eh)           Delta-E    RMSDP     MaxDP     DIISErr   Damp  Time(sec)
-------------------------------------------------------------------------------------------
               ***  Starting incremental Fock matrix formation  ***
    1    -618.2079599240225889     0.00e+00  7.69e-04  1.73e-02  3.81e-02  0.700   8.8
    2    -618.2109679898264858    -3.01e-03  6.66e-04  1.43e-02  2.70e-02  0.700   4.7
                               ***Turning on AO-DIIS***
    3    -618.2132525057222665    -2.28e-03  5.55e-04  1.11e-02  1.93e-02  0.700   5.0
    4    -618.2149413061813448    -1.69e-03  1.39e-03  2.88e-02  1.36e-02  0.000   5.7
                              *** Initializing SOSCF ***
---------------------------------------S-O-S-C-F--------------------------------------
Iteration    Energy (Eh)           Delta-E    RMSDP     MaxDP     MaxGrad    Time(sec)
--------------------------------------------------------------------------------------
    5    -618.2192825796362285    -4.34e-03  6.37e-05  1.77e-03  8.58e-04     4.8
               *** Restarting incremental Fock matrix formation ***
    6    -618.2192875213397656    -4.94e-06  2.86e-05  6.50e-04  4.83e-04     7.9
    7    -618.2192901341932156    -2.61e-06  1.56e-05  4.10e-04  1.36e-04     7.2
    8    -618.2192904664218531    -3.32e-07  3.10e-06  1.10e-04  7.20e-05     7.0
    9    -618.2192905216169265    -5.52e-08  1.04e-06  2.65e-05  8.53e-06     7.7
                 **** Energy Check signals convergence ****

               *****************************************************
               *                     SUCCESS                       *
               *           SCF CONVERGED AFTER   9 CYCLES          *
               *****************************************************


------------------
NL GRID GENERATION
------------------

General Integration Accuracy     IntAcc      ... 4.004
Radial Grid Type                 RadialGrid  ... OptM3 with GC (2021)
Angular Grid (max. ang.)         AngularGrid ... 2 (Lebedev-110)
Angular grid pruning method      GridPruning ... 4 (adaptive)
Weight generation scheme         WeightScheme... mBecke (2022)
Basis function cutoff            BFCut       ... 1.0000e-10
Integration weight cutoff        WCut        ... 1.0000e-14
Partially contracted basis set               ... off
Rotationally invariant grid construction     ... off
Angular grids for H and He will be reduced by one unit

Total number of grid points                  ...    17742
Total number of batches                      ...      285
Average number of points per batch           ...       62
Average number of grid points per atom       ...     1267
Final grid set up in    0.4 sec

-------------------------------------------------------------------------------
                    post-SCF DFT-NL dispersion correction                      
-------------------------------------------------------------------------------

SCF Energy:     -618.219290522 
NL    Energy:      0.194425588 
SC+NL Energy:   -618.024864934 
NL done in  :              1.0 sec
-------------------------------------------------------------------------------
Recomputing exchange energy using gridx3       ... done (   13.759 sec)
Old exchange energy                            :    -15.143533337 Eh
New exchange energy                            :    -15.143535243 Eh
Exchange energy change after final integration :     -0.000001907 Eh
Total energy after final integration           :   -618.024866840 Eh

SMD CDS free energy correction energy :                 2.94465     Kcal/mol
Total Energy after SMD CDS correction =              -618.020174250 Eh
             **** ENERGY FILE WAS UPDATED (sp_solv.en.tmp) ****

----------------
TOTAL SCF ENERGY
----------------

Total Energy       :       -618.02017425011104 Eh          -16817.18391 eV

Components:
Nuclear Repulsion  :        239.15310319069661 Eh            6507.68678 eV
Electronic Energy  :       -857.36428436883114 Eh          -23330.06826 eV
One Electron Energy:      -1321.55962942601786 Eh          -35961.46576 eV
Two Electron Energy:        464.19534505718673 Eh           12631.39751 eV
CPCM Dielectric    :         -0.00810934348242 Eh              -0.22067 eV
SMD CDS (Gcds)     :          0.00469259025739 Eh               0.12769 eV

Virial components:
Potential Energy   :      -1234.57014650479368 Eh          -33594.36159 eV
Kinetic Energy     :        616.54997225468276 Eh           16777.17768 eV
Virial Ratio       :          2.00238456258469

DFT components:
N(Alpha)           :       25.000032081953 electrons
N(Beta)            :       25.000032081953 electrons
N(Total)           :       50.000064163906 electrons
E(X)               :      -36.101628629686 Eh       
E(C)               :       -2.196085693887 Eh       
NL Energy, E(C,NL) :        0.194425588052 Eh       
E(XC)              :      -38.103288735521 Eh       

CPCM Solvation Model Properties:
Surface-charge          :         -0.03307071582612
Corrected charge        :          0.00000000000000
Outlying charge corr.   :          0.00008957823937 Eh               0.00244 eV
Free-energy (cav+disp)  :          0.00469259025739 Eh               0.12769 eV

---------------
SCF CONVERGENCE
---------------

  Last Energy change         ...    5.5195e-08  Tolerance :   1.0000e-07
  Last MAX-Density change    ...    2.6530e-05  Tolerance :   1.0000e-05
  Last RMS-Density change    ...    1.0355e-06  Tolerance :   1.0000e-06
  Last DIIS Error            ...    8.5789e-04  Tolerance :   1.0000e-07
  Last Orbital Gradient      ...    8.5268e-06  Tolerance :   1.0000e-04
  Last Orbital Rotation      ...    1.8332e-05  Tolerance :   1.0000e-04


----------------
ORBITAL ENERGIES
----------------

  NO   OCC          E(Eh)            E(eV) 
   0   2.0000    -107.113088     -2914.6953 
   1   2.0000     -12.118611      -329.7642 
   2   2.0000     -12.034904      -327.4864 
   3   2.0000     -12.034878      -327.4857 
   4   2.0000     -12.034415      -327.4731 
   5   2.0000     -11.266684      -306.5821 
   6   2.0000      -9.057909      -246.4782 
   7   2.0000      -9.055621      -246.4160 
   8   2.0000      -9.055621      -246.4160 
   9   2.0000      -1.384110       -37.6636 
  10   2.0000      -1.294845       -35.2345 
  11   2.0000      -1.186883       -32.2967 
  12   2.0000      -1.186832       -32.2953 
  13   2.0000      -1.018988       -27.7281 
  14   2.0000      -0.900485       -24.5034 
  15   2.0000      -0.885542       -24.0968 
  16   2.0000      -0.885421       -24.0935 
  17   2.0000      -0.818310       -22.2673 
  18   2.0000      -0.818241       -22.2655 
  19   2.0000      -0.798648       -21.7323 
  20   2.0000      -0.787187       -21.4205 
  21   2.0000      -0.787152       -21.4195 
  22   2.0000      -0.782054       -21.2808 
  23   2.0000      -0.756175       -20.5766 
  24   2.0000      -0.756171       -20.5765 
  25   0.0000      -0.265081        -7.2132 
  26   0.0000      -0.022797        -0.6203 
  27   0.0000      -0.011322        -0.3081 
  28   0.0000      -0.011256        -0.3063 
  29   0.0000      -0.002861        -0.0779 
  30   0.0000       0.040428         1.1001 
  31   0.0000       0.040492         1.1018 
  32   0.0000       0.051243         1.3944 
  33   0.0000       0.065494         1.7822 
  34   0.0000       0.065608         1.7853 
  35   0.0000       0.078477         2.1355 
*Only the first 10 virtual orbitals were printed.

                    ********************************
                    * MULLIKEN POPULATION ANALYSIS *
                    ********************************

-----------------------
MULLIKEN ATOMIC CHARGES
-----------------------
   0 C :   -0.385830
   1 C :    0.197830
   2 C :   -0.385531
   3 C :   -0.386000
   4 Cl:   -0.286628
   5 H :    0.138438
   6 H :    0.138367
   7 H :    0.138536
   8 H :    0.138505
   9 H :    0.138321
  10 H :    0.138545
  11 H :    0.138397
  12 H :    0.138597
  13 H :    0.138454
Sum of atomic charges:   -0.0000000

--------------------------------
MULLIKEN REDUCED ORBITAL CHARGES
--------------------------------
  0 C s       :     3.254035  s :     3.254035
      pz      :     1.066609  p :     3.070920
      px      :     1.062194
      py      :     0.942116
      dz2     :     0.012876  d :     0.057513
      dxz     :     0.003630
      dyz     :     0.016799
      dx2y2   :     0.016442
      dxy     :     0.007766
      f0      :     0.000426  f :     0.003362
      f+1     :     0.000411
      f-1     :     0.000673
      f+2     :     0.000462
      f-2     :     0.000190
      f+3     :     0.000740
      f-3     :     0.000460

  1 C s       :     3.046858  s :     3.046858
      pz      :     0.939513  p :     2.536487
      px      :     0.657150
      py      :     0.939825
      dz2     :     0.046670  d :     0.208043
      dxz     :     0.032146
      dyz     :     0.042820
      dx2y2   :     0.054279
      dxy     :     0.032127
      f0      :     0.001783  f :     0.010782
      f+1     :     0.001130
      f-1     :     0.002175
      f+2     :     0.001763
      f-2     :     0.000858
      f+3     :     0.001311
      f-3     :     0.001763

  2 C s       :     3.253928  s :     3.253928
      pz      :     1.012317  p :     3.070727
      px      :     1.062082
      py      :     0.996327
      dz2     :     0.019855  d :     0.057514
      dxz     :     0.005429
      dyz     :     0.008519
      dx2y2   :     0.017726
      dxy     :     0.005985
      f0      :     0.000500  f :     0.003363
      f+1     :     0.000442
      f-1     :     0.000774
      f+2     :     0.000515
      f-2     :     0.000244
      f+3     :     0.000657
      f-3     :     0.000232

  3 C s       :     3.254090  s :     3.254090
      pz      :     0.934084  p :     3.071023
      px      :     1.062241
      py      :     1.074698
      dz2     :     0.013004  d :     0.057525
      dxz     :     0.008042
      dyz     :     0.019126
      dx2y2   :     0.013997
      dxy     :     0.003356
      f0      :     0.000864  f :     0.003362
      f+1     :     0.000580
      f-1     :     0.000786
      f+2     :     0.000340
      f-2     :     0.000175
      f+3     :     0.000586
      f-3     :     0.000032

  4 Cls       :     5.907413  s :     5.907413
      pz      :     3.972885  p :    11.336522
      px      :     3.390773
      py      :     3.972864
      dz2     :     0.006246  d :     0.039222
      dxz     :     0.007434
      dyz     :     0.000627
      dx2y2   :     0.017483
      dxy     :     0.007432
      f0      :     0.000275  f :     0.003471
      f+1     :     0.000747
      f-1     :     0.000056
      f+2     :     0.000453
      f-2     :     0.000063
      f+3     :     0.001203
      f-3     :     0.000675

  5 H s       :     0.840596  s :     0.840596
      pz      :     0.011570  p :     0.020966
      px      :     0.004947
      py      :     0.004448

  6 H s       :     0.840828  s :     0.840828
      pz      :     0.004141  p :     0.020805
      px      :     0.012705
      py      :     0.003959

  7 H s       :     0.840495  s :     0.840495
      pz      :     0.007289  p :     0.020969
      px      :     0.004951
      py      :     0.008730

  8 H s       :     0.840530  s :     0.840530
      pz      :     0.004563  p :     0.020965
      px      :     0.004957
      py      :     0.011446

  9 H s       :     0.840878  s :     0.840878
      pz      :     0.004062  p :     0.020801
      px      :     0.012700
      py      :     0.004039

 10 H s       :     0.840492  s :     0.840492
      pz      :     0.011808  p :     0.020963
      px      :     0.004948
      py      :     0.004208

 11 H s       :     0.840802  s :     0.840802
      pz      :     0.003947  p :     0.020801
      px      :     0.012702
      py      :     0.004153

 12 H s       :     0.840435  s :     0.840435
      pz      :     0.007886  p :     0.020967
      px      :     0.004955
      py      :     0.008126

 13 H s       :     0.840579  s :     0.840579
      pz      :     0.004928  p :     0.020967
      px      :     0.004945
      py      :     0.011094


------------------------
MULLIKEN OVERLAP CHARGES
------------------------
B(  0-C ,  1-C ) :   0.7126 B(  0-C ,  2-C ) :  -0.1291 B(  0-C ,  3-C ) :  -0.1291 
B(  0-C ,  4-Cl) :  -0.0954 B(  0-C ,  5-H ) :   0.8174 B(  0-C ,  6-H ) :   0.7981 
B(  0-C ,  7-H ) :   0.8175 B(  1-C ,  2-C ) :   0.7130 B(  1-C ,  3-C ) :   0.7121 
B(  1-C ,  4-Cl) :   0.4581 B(  1-C ,  5-H ) :  -0.0644 B(  1-C ,  6-H ) :  -0.0567 
B(  1-C ,  7-H ) :  -0.0645 B(  1-C ,  8-H ) :  -0.0644 B(  1-C ,  9-H ) :  -0.0565 
B(  1-C , 10-H ) :  -0.0646 B(  1-C , 11-H ) :  -0.0566 B(  1-C , 12-H ) :  -0.0645 
B(  1-C , 13-H ) :  -0.0645 B(  2-C ,  3-C ) :  -0.1290 B(  2-C ,  4-Cl) :  -0.0954 
B(  2-C ,  8-H ) :   0.8175 B(  2-C ,  9-H ) :   0.7979 B(  2-C , 10-H ) :   0.8176 
B(  3-C ,  4-Cl) :  -0.0956 B(  3-C , 11-H ) :   0.7979 B(  3-C , 12-H ) :   0.8176 
B(  3-C , 13-H ) :   0.8175 


                     *******************************
                     * LOEWDIN POPULATION ANALYSIS *
                     *******************************

----------------------
LOEWDIN ATOMIC CHARGES
----------------------
   0 C :   -0.283700
   1 C :   -0.490386
   2 C :   -0.283764
   3 C :   -0.283814
   4 Cl:    0.174005
   5 H :    0.126557
   6 H :    0.136109
   7 H :    0.126568
   8 H :    0.126517
   9 H :    0.136057
  10 H :    0.126622
  11 H :    0.136091
  12 H :    0.126613
  13 H :    0.126526

-------------------------------
LOEWDIN REDUCED ORBITAL CHARGES
-------------------------------
  0 C s       :     2.827820  s :     2.827820
      pz      :     1.066092  p :     3.170668
      px      :     1.078983
      py      :     1.025593
      dz2     :     0.054367  d :     0.260774
      dxz     :     0.016103
      dyz     :     0.074668
      dx2y2   :     0.078442
      dxy     :     0.037194
      f0      :     0.002567  f :     0.024438
      f+1     :     0.002999
      f-1     :     0.003984
      f+2     :     0.002882
      f-2     :     0.003858
      f+3     :     0.004905
      f-3     :     0.003244

  1 C s       :     2.771820  s :     2.771820
      pz      :     1.064085  p :     2.954200
      px      :     0.826058
      py      :     1.064056
      dz2     :     0.156576  d :     0.694517
      dxz     :     0.105862
      dyz     :     0.143351
      dx2y2   :     0.182889
      dxy     :     0.105839
      f0      :     0.010127  f :     0.069850
      f+1     :     0.009003
      f-1     :     0.012700
      f+2     :     0.010105
      f-2     :     0.007966
      f+3     :     0.009690
      f-3     :     0.010258

  2 C s       :     2.827837  s :     2.827837
      pz      :     1.048490  p :     3.170719
      px      :     1.078960
      py      :     1.043269
      dz2     :     0.084939  d :     0.260775
      dxz     :     0.025250
      dyz     :     0.044277
      dx2y2   :     0.078227
      dxy     :     0.028082
      f0      :     0.002886  f :     0.024433
      f+1     :     0.003637
      f-1     :     0.004652
      f+2     :     0.003377
      f-2     :     0.004184
      f+3     :     0.003940
      f-3     :     0.001757

  3 C s       :     2.827818  s :     2.827818
      pz      :     1.022984  p :     3.170743
      px      :     1.078997
      py      :     1.068762
      dz2     :     0.066935  d :     0.260819
      dxz     :     0.038595
      dyz     :     0.083197
      dx2y2   :     0.057373
      dxy     :     0.014719
      f0      :     0.005270  f :     0.024435
      f+1     :     0.005116
      f-1     :     0.004642
      f+2     :     0.002186
      f-2     :     0.003770
      f+3     :     0.002873
      f-3     :     0.000577

  4 Cls       :     5.626511  s :     5.626511
      pz      :     3.898480  p :    11.127787
      px      :     3.330805
      py      :     3.898501
      dz2     :     0.009011  d :     0.064954
      dxz     :     0.014880
      dyz     :     0.000849
      dx2y2   :     0.025338
      dxy     :     0.014876
      f0      :     0.000647  f :     0.006742
      f+1     :     0.001232
      f-1     :     0.000123
      f+2     :     0.001068
      f-2     :     0.000065
      f+3     :     0.002010
      f-3     :     0.001595

  5 H s       :     0.812255  s :     0.812255
      pz      :     0.032824  p :     0.061188
      px      :     0.015557
      py      :     0.012807

  6 H s       :     0.802948  s :     0.802948
      pz      :     0.013045  p :     0.060943
      px      :     0.035690
      py      :     0.012208

  7 H s       :     0.812230  s :     0.812230
      pz      :     0.022228  p :     0.061202
      px      :     0.015565
      py      :     0.023409

  8 H s       :     0.812288  s :     0.812288
      pz      :     0.014442  p :     0.061195
      px      :     0.015578
      py      :     0.031175

  9 H s       :     0.802994  s :     0.802994
      pz      :     0.012684  p :     0.060948
      px      :     0.035690
      py      :     0.012575

 10 H s       :     0.812189  s :     0.812189
      pz      :     0.032377  p :     0.061189
      px      :     0.015550
      py      :     0.013262

 11 H s       :     0.802971  s :     0.802971
      pz      :     0.012151  p :     0.060938
      px      :     0.035687
      py      :     0.013101

 12 H s       :     0.812194  s :     0.812194
      pz      :     0.021165  p :     0.061193
      px      :     0.015573
      py      :     0.024455

 13 H s       :     0.812285  s :     0.812285
      pz      :     0.013839  p :     0.061190
      px      :     0.015548
      py      :     0.031802


---------------------------------
LOEWDIN BOND ORDERS (THRESH 0.050000)
---------------------------------
B(  0-C ,  1-C ) :   1.2309 B(  0-C ,  2-C ) :   0.1470 B(  0-C ,  3-C ) :   0.1469 
B(  0-C ,  4-Cl) :   0.1345 B(  0-C ,  5-H ) :   0.8956 B(  0-C ,  6-H ) :   0.8806 
B(  0-C ,  7-H ) :   0.8956 B(  1-C ,  2-C ) :   1.2309 B(  1-C ,  3-C ) :   1.2310 
B(  1-C ,  4-Cl) :   1.2981 B(  1-C ,  5-H ) :   0.0806 B(  1-C ,  6-H ) :   0.0845 
B(  1-C ,  7-H ) :   0.0806 B(  1-C ,  8-H ) :   0.0806 B(  1-C ,  9-H ) :   0.0845 
B(  1-C , 10-H ) :   0.0806 B(  1-C , 11-H ) :   0.0845 B(  1-C , 12-H ) :   0.0806 
B(  1-C , 13-H ) :   0.0806 B(  2-C ,  3-C ) :   0.1468 B(  2-C ,  4-Cl) :   0.1346 
B(  2-C ,  8-H ) :   0.8957 B(  2-C ,  9-H ) :   0.8806 B(  2-C , 10-H ) :   0.8956 
B(  3-C ,  4-Cl) :   0.1346 B(  3-C , 11-H ) :   0.8806 B(  3-C , 12-H ) :   0.8956 
B(  3-C , 13-H ) :   0.8957 

------------------------------------------
LOEWDIN REDUCED ORBITAL POPULATIONS PER MO
-------------------------------------------
THRESHOLD FOR PRINTING IS 0.1%%
                      0         1         2         3         4         5   
                 -107.11309 -12.11861 -12.03490 -12.03488 -12.03441 -11.26668
                   2.00000   2.00000   2.00000   2.00000   2.00000   2.00000
                  --------  --------  --------  --------  --------  --------
 0 C  s               0.0       0.0      19.6      45.6      34.3       0.0
 1 C  s               0.0      99.2       0.0       0.0       0.0       0.0
 1 C  dz2             0.0       0.0       0.0       0.1       0.0       0.0
 1 C  dyz             0.0       0.0       0.1       0.0       0.0       0.0
 2 C  s               0.0       0.0      69.1       0.5      29.9       0.0
 3 C  s               0.0       0.0      10.7      53.4      35.4       0.0
 4 Cl s             100.0       0.0       0.0       0.0       0.0      99.9

                      6         7         8         9        10        11   
                  -9.05791  -9.05562  -9.05562  -1.38411  -1.29485  -1.18688
                   2.00000   2.00000   2.00000   2.00000   2.00000   2.00000
                  --------  --------  --------  --------  --------  --------
 0 C  s               0.0       0.0       0.0       3.7       7.1       0.1
 0 C  pz              0.0       0.0       0.0       0.3       0.2       0.7
 0 C  px              0.0       0.0       0.0       0.8       0.1       0.0
 0 C  py              0.0       0.0       0.0       2.6       1.9       0.1
 0 C  dz2             0.0       0.0       0.0       0.1       0.0       0.1
 0 C  dyz             0.0       0.0       0.0       0.1       0.1       0.3
 0 C  dx2y2           0.0       0.0       0.0       0.1       0.5       0.0
 0 C  dxy             0.0       0.0       0.0       0.2       0.0       0.0
 1 C  s               0.0       0.0       0.0      17.5      11.3       0.0
 1 C  pz              0.0       0.0       0.0       0.0       0.0      18.9
 1 C  px              0.0       0.0       0.0       4.5      10.3       0.0
 1 C  py              0.0       0.0       0.0       0.0       0.0       1.2
 1 C  dz2             0.0       0.0       0.0       0.3       0.8       0.7
 1 C  dxz             0.0       0.0       0.0       0.0       0.0       0.7
 1 C  dyz             0.0       0.0       0.0       0.0       0.0       1.3
 1 C  dx2y2           0.0       0.0       0.0       0.8       2.4       0.2
 1 C  f+1             0.0       0.0       0.0       0.1       0.0       0.0
 1 C  f+3             0.0       0.0       0.0       0.2       0.0       0.0
 2 C  s               0.0       0.0       0.0       3.7       7.1      18.0
 2 C  pz              0.0       0.0       0.0       1.3       0.9       0.5
 2 C  px              0.0       0.0       0.0       0.8       0.1       0.0
 2 C  py              0.0       0.0       0.0       1.6       1.1       0.1
 2 C  dz2             0.0       0.0       0.0       0.0       0.0       0.1
 2 C  dxz             0.0       0.0       0.0       0.1       0.0       0.0
 2 C  dyz             0.0       0.0       0.0       0.3       0.4       0.0
 2 C  dx2y2           0.0       0.0       0.0       0.0       0.2       0.0
 2 C  dxy             0.0       0.0       0.0       0.1       0.0       0.0
 3 C  s               0.0       0.0       0.0       3.7       7.1      21.0
 3 C  pz              0.0       0.0       0.0       2.8       2.0       0.4
 3 C  px              0.0       0.0       0.0       0.8       0.1       0.0
 3 C  py              0.0       0.0       0.0       0.1       0.1       0.1
 3 C  dz2             0.0       0.0       0.0       0.2       0.5       0.1
 3 C  dxz             0.0       0.0       0.0       0.2       0.0       0.0
 4 Cl s               0.0       0.0       0.0      45.8      29.9       0.0
 4 Cl pz              0.0      22.3      77.7       0.0       0.0       0.1
 4 Cl px            100.0       0.0       0.0       0.7       2.3       0.0
 4 Cl py              0.0      77.7      22.3       0.0       0.0       0.0
 4 Cl dxz             0.0       0.0       0.0       0.0       0.0       0.1
 4 Cl dx2y2           0.0       0.0       0.0       0.2       0.2       0.0
 5 H  s               0.0       0.0       0.0       0.6       1.2       0.1
 6 H  s               0.0       0.0       0.0       0.6       1.3       0.0
 6 H  px              0.0       0.0       0.0       0.0       0.2       0.0
 7 H  s               0.0       0.0       0.0       0.6       1.2       0.0
 8 H  s               0.0       0.0       0.0       0.6       1.2       4.6
 8 H  py              0.0       0.0       0.0       0.0       0.1       0.4
 9 H  s               0.0       0.0       0.0       0.6       1.3       4.7
 9 H  px              0.0       0.0       0.0       0.0       0.2       0.5
10 H  s               0.0       0.0       0.0       0.6       1.2       5.1
10 H  pz              0.0       0.0       0.0       0.0       0.1       0.5
11 H  s               0.0       0.0       0.0       0.6       1.3       5.5
11 H  px              0.0       0.0       0.0       0.0       0.2       0.6
12 H  s               0.0       0.0       0.0       0.6       1.2       5.9
12 H  pz              0.0       0.0       0.0       0.0       0.1       0.3
12 H  py              0.0       0.0       0.0       0.0       0.0       0.3
13 H  s               0.0       0.0       0.0       0.6       1.2       5.4
13 H  py              0.0       0.0       0.0       0.0       0.1       0.5

                     12        13        14        15        16        17   
                  -1.18683  -1.01899  -0.90049  -0.88554  -0.88542  -0.81831
                   2.00000   2.00000   2.00000   2.00000   2.00000   2.00000
                  --------  --------  --------  --------  --------  --------
 0 C  s              26.0       3.6       0.1       0.1       0.5       0.0
 0 C  pz              0.0       0.8       0.5      10.1       5.0       5.6
 0 C  px              0.0       1.4       6.4       0.4       3.5       2.1
 0 C  py              0.4       7.9       4.5       5.1       9.3       0.3
 0 C  dz2             0.0       0.2       0.1       0.0       0.0       0.1
 0 C  dxz             0.0       0.0       0.0       0.2       0.1       0.0
 0 C  dyz             0.0       0.3       0.1       0.0       0.1       0.1
 0 C  dx2y2           0.0       0.4       0.1       0.0       0.1       0.0
 0 C  dxy             0.0       0.4       0.2       0.1       0.2       0.0
 1 C  s               0.0      10.3       0.1       0.0       0.0       0.0
 1 C  pz              1.2       0.0       0.0      19.9       0.0       0.4
 1 C  px              0.0       0.9      18.9       0.0       0.0       0.0
 1 C  py             18.9       0.0       0.0       0.0      19.9       0.2
 1 C  dz2             1.0       0.0       0.0       0.2       0.1       0.1
 1 C  dxz             0.0       0.0       0.0       0.0       0.0       2.2
 1 C  dyz             0.9       0.0       0.0       0.2       0.3       1.2
 1 C  dx2y2           0.3       0.1       0.0       0.1       0.0       0.0
 1 C  dxy             0.7       0.0       0.0       0.0       0.0       1.0
 2 C  s               8.1       3.6       0.1       0.2       0.3       0.0
 2 C  pz              0.1       3.9       2.2       0.3      14.6       0.0
 2 C  px              0.0       1.4       6.4       1.7       2.1      25.2
 2 C  py              0.6       4.8       2.7      14.6       0.2       1.0
 2 C  dz2             0.2       0.0       0.0       0.0       0.1       0.1
 2 C  dxz             0.0       0.2       0.1       0.0       0.3       0.0
 2 C  dyz             0.0       0.7       0.3       0.1       0.1       0.0
 2 C  dx2y2           0.1       0.1       0.0       0.1       0.0       0.6
 2 C  dxy             0.0       0.2       0.1       0.3       0.0       0.0
 3 C  s               5.1       3.6       0.1       0.5       0.0       0.0
 3 C  pz              0.0       8.4       4.8      11.9       2.5       0.0
 3 C  px              0.0       1.4       6.4       3.7       0.2      12.7
 3 C  py              0.7       0.4       0.2       2.5      12.8       3.6
 3 C  dz2             0.0       0.7       0.2       0.2       0.0       0.0
 3 C  dxz             0.0       0.4       0.2       0.2       0.0       0.0
 3 C  dyz             0.3       0.1       0.0       0.1       0.1       0.1
 3 C  dx2y2           0.0       0.0       0.0       0.0       0.0       0.4
 3 C  dxy             0.0       0.0       0.0       0.0       0.3       0.0
 4 Cl s               0.0       2.7       2.6       0.0       0.0       0.0
 4 Cl pz              0.0       0.0       0.0       3.7       0.0       5.2
 4 Cl px              0.0       9.0      24.1       0.0       0.0       0.0
 4 Cl py              0.1       0.0       0.0       0.0       3.7       2.4
 4 Cl dz2             0.0       0.2       0.1       0.0       0.0       0.0
 4 Cl dxz             0.0       0.0       0.0       0.3       0.0       0.0
 4 Cl dx2y2           0.0       0.5       0.3       0.0       0.0       0.0
 4 Cl dxy             0.1       0.0       0.0       0.0       0.3       0.0
 5 H  s               6.9       3.0       1.9       2.3       3.1       3.2
 5 H  pz              0.6       0.2       0.1       0.0       0.1       0.1
 5 H  px              0.1       0.1       0.0       0.0       0.1       0.0
 5 H  py              0.0       0.0       0.0       0.1       0.1       0.0
 6 H  s               6.8       3.4       1.6       0.3       2.9       1.1
 6 H  px              0.7       0.2       0.1       0.0       0.1       0.0
 6 H  py              0.0       0.1       0.1       0.1       0.1       0.0
 7 H  s               7.0       3.0       1.9       5.1       0.3       0.9
 7 H  pz              0.3       0.2       0.1       0.0       0.1       0.0
 7 H  py              0.4       0.0       0.0       0.1       0.1       0.0
 8 H  s               2.4       3.0       1.9       5.2       0.2       3.2
 8 H  pz              0.0       0.1       0.1       0.0       0.1       0.0
 8 H  px              0.0       0.1       0.0       0.1       0.0       0.1
 8 H  py              0.2       0.1       0.1       0.1       0.1       0.2
 9 H  s               2.1       3.4       1.6       1.5       1.8      12.5
 9 H  pz              0.0       0.0       0.0       0.0       0.2       0.0
 9 H  px              0.2       0.2       0.1       0.1       0.1       0.3
 9 H  py              0.0       0.0       0.0       0.2       0.0       0.0
10 H  s               1.9       3.0       1.9       0.4       4.9       1.2
10 H  pz              0.2       0.1       0.1       0.0       0.1       0.1
10 H  px              0.0       0.1       0.0       0.0       0.2       0.2
10 H  py              0.0       0.1       0.1       0.1       0.0       0.0
11 H  s               1.3       3.4       1.6       3.1       0.1       6.3
11 H  pz              0.0       0.1       0.1       0.1       0.0       0.0
11 H  px              0.1       0.2       0.1       0.1       0.0       0.1
11 H  py              0.0       0.0       0.0       0.0       0.1       0.1
12 H  s               1.1       3.0       1.9       0.6       4.8       0.0
12 H  pz              0.0       0.0       0.0       0.1       0.1       0.0
12 H  px              0.0       0.1       0.0       0.1       0.1       0.2
12 H  py              0.1       0.2       0.1       0.1       0.0       0.0
13 H  s               1.6       3.0       1.9       2.6       2.8       4.2
13 H  pz              0.0       0.0       0.0       0.1       0.1       0.0
13 H  px              0.0       0.1       0.0       0.1       0.0       0.0
13 H  py              0.2       0.2       0.1       0.1       0.0       0.1

                     18        19        20        21        22        23   
                  -0.81824  -0.79865  -0.78719  -0.78715  -0.78205  -0.75618
                   2.00000   2.00000   2.00000   2.00000   2.00000   2.00000
                  --------  --------  --------  --------  --------  --------
 0 C  s               0.0       0.0       0.0       0.2       0.1       0.0
 0 C  pz              0.2      15.6      13.0       0.1       0.0       0.6
 0 C  px             24.6       0.0       0.3       2.5       9.2       0.1
 0 C  py              1.0       1.7       0.1      13.4       0.1       0.4
 0 C  dz2             0.2       0.3       0.9       0.2       0.3       0.1
 0 C  dxz             0.0       0.2       0.1       0.0       0.0       0.0
 0 C  dyz             0.0       0.9       1.0       0.4       0.0       0.3
 0 C  dx2y2           0.5       0.1       0.0       0.5       1.1       0.0
 0 C  dxy             0.1       0.0       0.0       0.4       0.3       0.0
 1 C  s               0.0       0.0       0.0       0.0       0.2       0.0
 1 C  pz              0.2       0.0       7.7       0.0       0.0       3.5
 1 C  px              0.0       0.0       0.0       0.0       6.5       0.0
 1 C  py              0.4       0.0       0.0       7.7       0.0       1.3
 1 C  dz2             0.9       0.0       1.1       0.5       1.3       0.1
 1 C  dxz             1.0       0.0       0.2       0.0       0.0       0.8
 1 C  dyz             0.2       0.0       0.7       1.5       0.0       0.7
 1 C  dx2y2           0.3       0.0       0.4       0.2       3.9       0.0
 1 C  dxy             2.2       0.0       0.0       0.2       0.0       0.3
 1 C  f0              0.0       0.2       0.0       0.0       0.0       0.1
 1 C  f+1             0.0       0.0       0.1       0.1       0.1       0.0
 1 C  f-1             0.0       0.5       0.0       0.0       0.0       0.0
 1 C  f+2             0.0       0.1       0.1       0.0       0.0       0.1
 1 C  f-2             0.0       0.0       0.1       0.2       0.0       0.0
 1 C  f+3             0.0       0.0       0.1       0.0       0.1       0.0
 1 C  f-3             0.0       0.0       0.0       0.1       0.0       0.1
 2 C  s               0.0       0.0       0.1       0.1       0.1       0.3
 2 C  pz              3.8       9.4      13.2       0.2       0.1       1.7
 2 C  px              1.5       0.0       1.2       1.7       9.1       2.3
 2 C  py              2.2       7.7       0.1      13.2       0.1       1.2
 2 C  dz2             0.2       1.0       1.6       0.2       0.3       0.0
 2 C  dxz             0.0       0.1       0.2       0.0       0.1       0.0
 2 C  dyz             0.0       0.0       0.0       0.2       0.0       0.0
 2 C  dx2y2           0.0       0.3       0.0       1.1       1.0       0.3
 2 C  dxy             0.0       0.1       0.0       0.2       0.2       0.0
 3 C  s               0.0       0.0       0.2       0.0       0.1       0.2
 3 C  pz              1.0       0.7      13.6       0.0       0.1       1.8
 3 C  px             14.0       0.0       2.7       0.1       9.2       1.3
 3 C  py              2.4      16.3       0.0      13.2       0.0       0.2
 3 C  dz2             0.1       0.2       0.1       0.2       0.4       0.0
 3 C  dxz             0.0       0.0       0.4       0.0       0.3       0.0
 3 C  dyz             0.1       1.1       0.2       1.6       0.0       0.2
 3 C  dx2y2           0.2       0.1       0.8       0.2       0.9       0.2
 3 C  dxy             0.0       0.2       0.0       0.1       0.0       0.0
 4 Cl s               0.0       0.0       0.0       0.0       0.4       0.0
 4 Cl pz              2.4       0.0       7.3       0.0       0.0      55.1
 4 Cl px              0.0       0.0       0.0       0.0      30.4       0.0
 4 Cl py              5.2       0.0       0.0       7.3       0.0      21.1
 4 Cl dxz             0.0       0.0       0.0       0.0       0.0       0.2
 5 H  s               1.1       6.8       8.2       0.8       0.6       0.4
 5 H  pz              0.1       0.1       0.1       0.0       0.0       0.0
 5 H  px              0.2       0.1       0.0       0.0       0.1       0.0
 5 H  py              0.0       0.1       0.0       0.2       0.0       0.0
 6 H  s              12.2       0.0       0.2       1.8       6.2       0.1
 6 H  pz              0.0       0.2       0.2       0.0       0.0       0.0
 6 H  px              0.3       0.0       0.0       0.0       0.1       0.0
 6 H  py              0.0       0.0       0.0       0.2       0.0       0.0
 7 H  s               3.4       6.9       2.7       6.3       0.7       0.6
 7 H  pz              0.1       0.0       0.0       0.2       0.0       0.0
 7 H  px              0.1       0.1       0.1       0.0       0.1       0.0
 7 H  py              0.1       0.1       0.1       0.0       0.0       0.0
 8 H  s               1.1       6.8       0.4       8.6       0.7       0.1
 8 H  pz              0.0       0.0       0.1       0.1       0.0       0.0
 8 H  py              0.0       0.1       0.0       0.1       0.0       0.0
 9 H  s               0.7       0.0       0.9       1.2       6.2       1.5
 9 H  pz              0.1       0.1       0.2       0.0       0.0       0.0
 9 H  py              0.0       0.1       0.0       0.2       0.0       0.0
10 H  s               3.0       6.8       9.1       0.0       0.6       0.3
10 H  pz              0.1       0.1       0.1       0.0       0.0       0.0
10 H  py              0.0       0.0       0.0       0.2       0.0       0.0
11 H  s               6.9       0.0       2.0       0.1       6.3       0.8
11 H  pz              0.0       0.0       0.2       0.0       0.0       0.0
11 H  px              0.2       0.0       0.0       0.0       0.1       0.0
11 H  py              0.0       0.2       0.0       0.2       0.0       0.0
12 H  s               4.3       6.7       4.9       4.2       0.7       0.5
12 H  pz              0.1       0.1       0.0       0.1       0.0       0.0
12 H  py              0.1       0.0       0.2       0.0       0.0       0.0
13 H  s               0.0       6.8       1.8       7.2       0.7       0.2
13 H  pz              0.0       0.1       0.1       0.0       0.0       0.0
13 H  px              0.2       0.1       0.0       0.0       0.1       0.0

                     24        25        26        27        28        29   
                  -0.75617  -0.26508  -0.02280  -0.01132  -0.01126  -0.00286
                   2.00000   0.00000   0.00000   0.00000   0.00000   0.00000
                  --------  --------  --------  --------  --------  --------
 0 C  s               0.4       0.0       0.3       3.9       1.6       9.1
 0 C  pz              0.5       0.0       0.7       0.5       2.7       0.1
 0 C  px              2.4       0.1       2.5       0.6       0.2       0.1
 0 C  py              2.4       0.2       6.6       6.7       1.7       0.6
 0 C  dz2             0.0       0.3       0.5       0.0       2.4       0.0
 0 C  dxz             0.0       0.2       0.1       0.1       0.1       0.0
 0 C  dyz             0.0       0.0       1.8       3.5       1.8       0.0
 0 C  dx2y2           0.3       0.4       6.4       0.2       1.5       0.5
 0 C  dxy             0.0       2.1       0.5       1.2       0.4       0.0
 0 C  f0              0.0       0.0       0.1       0.1       0.0       0.1
 0 C  f-1             0.0       0.0       0.0       0.0       0.1       0.1
 0 C  f+2             0.0       0.0       0.1       0.0       0.0       0.1
 0 C  f-2             0.0       0.1       0.0       0.2       0.1       0.0
 0 C  f+3             0.0       0.3       0.0       0.1       0.2       0.1
 0 C  f-3             0.0       0.1       0.1       0.0       0.0       0.0
 1 C  s               0.0       5.8      12.6       0.0       0.0       3.2
 1 C  pz              1.3       0.0       0.0       1.0      15.9       0.0
 1 C  px              0.0      35.0       3.3       0.0       0.0       0.7
 1 C  py              3.5       0.0       0.0      15.9       1.0       0.0
 1 C  dz2             0.5       0.4       0.8       1.3       8.2       0.6
 1 C  dxz             0.3       0.0       0.0       0.2       3.1       0.0
 1 C  dyz             0.1       0.0       0.0      10.9       1.7       0.0
 1 C  dx2y2           0.2       1.3       2.5       0.4       2.7       2.0
 1 C  dxy             0.8       0.0       0.0       3.1       0.2       0.0
 1 C  f0              0.0       0.0       0.3       0.0       0.1       0.4
 1 C  f+1             0.0       0.1       0.0       0.0       0.3       0.1
 1 C  f-1             0.0       0.0       0.2       0.0       0.0       0.3
 1 C  f+2             0.0       0.0       0.2       0.0       0.1       0.3
 1 C  f-2             0.0       0.0       0.0       0.4       0.1       0.0
 1 C  f+3             0.0       0.2       0.0       0.0       0.2       0.2
 1 C  f-3             0.2       0.0       0.0       0.2       0.0       0.0
 2 C  s               0.0       0.0       0.3       4.3       1.2       9.1
 2 C  pz              0.2       0.1       3.3       2.2       3.2       0.3
 2 C  px              0.2       0.1       2.5       0.7       0.2       0.1
 2 C  py              0.9       0.1       4.0       5.3       0.7       0.4
 2 C  dz2             0.4       0.2       0.5       1.4       3.8       0.1
 2 C  dxz             0.0       1.0       0.3       0.5       0.3       0.0
 2 C  dyz             0.0       0.0       5.3       2.0       0.2       0.1
 2 C  dx2y2           0.0       0.5       2.9       0.0       2.0       0.4
 2 C  dxy             0.0       1.3       0.3       0.9       0.1       0.0
 2 C  f0              0.0       0.0       0.0       0.0       0.0       0.1
 2 C  f+1             0.0       0.0       0.0       0.1       0.1       0.0
 2 C  f-1             0.0       0.0       0.1       0.1       0.0       0.1
 2 C  f+2             0.0       0.0       0.2       0.0       0.1       0.1
 2 C  f-2             0.0       0.2       0.1       0.1       0.0       0.0
 2 C  f+3             0.0       0.1       0.0       0.0       0.2       0.1
 3 C  s               0.2       0.0       0.3       0.0       5.5       9.0
 3 C  pz              1.1       0.3       6.9       0.2       8.5       0.7
 3 C  px              1.2       0.1       2.5       0.0       0.9       0.1
 3 C  py              0.8       0.0       0.3       2.3       0.4       0.0
 3 C  dz2             0.2       0.1       7.5       0.7       2.2       0.3
 3 C  dxz             0.0       2.2       0.6       0.0       1.7       0.0
 3 C  dyz             0.2       0.0       0.9       5.9       0.3       0.0
 3 C  dx2y2           0.0       0.6       0.3       0.3       0.1       0.2
 3 C  f0              0.0       0.1       0.3       0.0       0.1       0.2
 3 C  f+1             0.0       0.3       0.0       0.0       0.2       0.0
 3 C  f-1             0.0       0.0       0.1       0.1       0.0       0.1
 3 C  f-2             0.0       0.0       0.0       0.3       0.0       0.0
 4 Cl s               0.0       3.2       0.7       0.0       0.0       0.6
 4 Cl pz             21.1       0.0       0.0       0.0       0.3       0.0
 4 Cl px              0.0      27.8       0.1       0.0       0.0       0.3
 4 Cl py             55.1       0.0       0.0       0.3       0.0       0.0
 4 Cl dz2             0.0       2.6       0.4       0.0       0.1       0.0
 4 Cl dxz             0.1       0.0       0.0       0.2       3.1       0.0
 4 Cl dyz             0.0       0.0       0.0       0.1       0.0       0.0
 4 Cl dx2y2           0.0       7.7       1.1       0.0       0.0       0.0
 4 Cl dxy             0.2       0.0       0.0       3.1       0.2       0.0
 4 Cl f+1             0.0       0.3       0.0       0.0       0.0       0.0
 4 Cl f+3             0.0       0.4       0.1       0.0       0.0       0.0
 5 H  s               0.3       0.1       0.3       1.8       1.6       5.5
 5 H  pz              0.0       0.0       0.0       0.5       0.1       1.7
 5 H  px              0.0       0.0       0.3       0.0       0.0       0.1
 5 H  py              0.0       0.0       0.4       0.7       0.0       0.1
 6 H  s               1.5       0.8       3.0       0.9       0.4       3.7
 6 H  pz              0.0       0.0       0.0       0.0       0.1       0.0
 6 H  px              0.0       0.0       0.8       0.3       0.1       1.2
 6 H  py              0.0       0.1       0.3       0.4       0.1       0.0
 7 H  s               0.1       0.1       0.3       0.5       2.9       5.5
 7 H  pz              0.0       0.0       0.3       0.0       0.0       0.8
 7 H  px              0.0       0.0       0.3       0.0       0.0       0.1
 7 H  py              0.1       0.0       0.2       0.0       1.2       1.0
 8 H  s               0.6       0.1       0.3       0.4       3.0       5.5
 8 H  pz              0.0       0.0       0.4       0.1       0.1       0.2
 8 H  px              0.0       0.0       0.3       0.0       0.0       0.1
 8 H  py              0.0       0.0       0.0       0.0       1.1       1.6
 9 H  s               0.1       0.8       3.0       1.0       0.3       3.7
 9 H  pz              0.0       0.0       0.1       0.1       0.2       0.0
 9 H  px              0.0       0.0       0.8       0.4       0.1       1.2
 9 H  py              0.0       0.0       0.2       0.3       0.0       0.0
10 H  s               0.4       0.1       0.3       1.6       1.8       5.4
10 H  pz              0.0       0.0       0.0       0.9       0.2       1.7
10 H  px              0.0       0.0       0.3       0.0       0.0       0.1
10 H  py              0.0       0.0       0.5       0.2       0.0       0.1
11 H  s               0.8       0.8       3.0       0.0       1.3       3.6
11 H  pz              0.0       0.1       0.3       0.0       0.5       0.0
11 H  px              0.0       0.0       0.8       0.0       0.5       1.2
12 H  s               0.2       0.1       0.3       2.9       0.6       5.4
12 H  pz              0.0       0.0       0.2       0.6       0.6       0.8
12 H  px              0.0       0.0       0.3       0.0       0.0       0.1
[...]
 0 C  dxy             0.0       0.9       1.5       0.0       0.0       0.0
 0 C  f0              0.0       2.6       0.4       0.0       0.0       0.0
 0 C  f+1             0.0       0.5       0.0       0.0       0.0       0.0
 0 C  f-1             0.2       1.8       0.3       0.0       0.0       0.0
 0 C  f+2             0.2       2.6       0.2       0.0       0.0       0.0
 0 C  f-2             0.0       0.2       0.1       0.0       0.0       0.0
 0 C  f+3             0.0       3.8       0.3       0.0       0.0       0.0
 0 C  f-3             0.1       1.7       0.0       0.0       0.0       0.0
 1 C  s               0.0       0.0      27.1       0.0       0.0       0.2
 1 C  pz             11.2       1.2       0.0       0.0       0.0       0.0
 1 C  px              0.0       0.0       1.1       0.0       0.0       0.4
 1 C  py              1.2      11.2       0.0       0.0       0.0       0.0
 1 C  dz2             3.3       6.2       0.8       0.0       0.0       0.0
 1 C  dxz             4.3       0.4       0.0       0.0       0.0       0.0
 1 C  dyz             8.3       4.4       0.0       0.0       0.0       0.0
 1 C  dx2y2           1.1       2.1       2.2       0.0       0.0       0.0
 1 C  dxy             0.4       4.3       0.0       0.0       0.0       0.0
 1 C  f0              0.3       0.0       7.6       0.0       0.0       0.0
 1 C  f+1             0.9       1.7       2.5       0.0       0.0       0.0
 1 C  f-1             0.0       0.0       6.0       0.0       0.0       0.0
 1 C  f+2             0.4       0.1       4.5       0.0       0.0       0.0
 1 C  f-2             2.7       1.5       0.0       0.0       0.0       0.0
 1 C  f+3             0.6       1.0       4.0       0.0       0.0       0.0
 1 C  f-3             0.1       0.7       0.4       0.0       0.0       0.0
 2 C  s              11.7       3.9       2.3       0.0       0.0       0.0
 2 C  pz              1.5       0.7       1.2       0.0       0.0       0.0
 2 C  px              0.5       0.2       0.3       0.0       0.0       0.0
 2 C  py              2.2       0.5       1.4       0.0       0.0       0.0
 2 C  dz2             0.2       0.0       0.1       0.0       0.0       0.0
 2 C  dxz             0.4       0.2       0.7       0.0       0.0       0.0
 2 C  dyz             2.7       0.9       3.9       0.0       0.0       0.0
 2 C  dx2y2           0.7       0.4       0.9       0.0       0.0       0.0
 2 C  dxy             0.4       0.3       0.9       0.0       0.0       0.0
 2 C  f0              0.9       1.2       0.4       0.0       0.0       0.0
 2 C  f+1             1.0       0.3       0.1       0.0       0.0       0.0
 2 C  f-1             3.1       0.2       0.3       0.0       0.0       0.0
 2 C  f+2             2.6       1.0       0.3       0.0       0.0       0.0
 2 C  f-2             0.4       0.1       0.2       0.0       0.0       0.0
 2 C  f+3             1.9       0.7       0.2       0.0       0.0       0.0
 2 C  f-3             0.0       0.2       0.0       0.0       0.0       0.0
 3 C  s              11.7       3.8       2.4       0.0       0.0       0.0
 3 C  pz              3.4       1.2       2.5       0.0       0.0       0.0
 3 C  px              0.5       0.2       0.3       0.0       0.0       0.0
 3 C  py              0.2       0.0       0.1       0.0       0.0       0.0
 3 C  dz2             3.1       0.9       4.3       0.0       0.0       0.0
 3 C  dxz             0.7       0.2       1.6       0.0       0.0       0.0
 3 C  dyz             0.4       0.3       0.7       0.0       0.0       0.0
 3 C  dxy             0.1       0.2       0.1       0.0       0.0       0.0
 3 C  f0              4.9       0.7       0.4       0.0       0.0       0.0
 3 C  f+1             2.3       0.7       0.4       0.0       0.0       0.0
 3 C  f-1             1.2       1.8       0.3       0.0       0.0       0.0
 3 C  f+2             0.4       0.0       0.2       0.0       0.0       0.0
 3 C  f+3             0.9       0.3       0.0       0.0       0.0       0.0
 4 Cl s               0.0       0.0       0.6       0.0       0.0       0.8
 4 Cl pz              0.0       0.0       0.0       0.1      99.8       0.0
 4 Cl px              0.0       0.0       0.8       0.0       0.0      98.2
 4 Cl py              0.0       0.0       0.0      99.8       0.1       0.0
 4 Cl dx2y2           0.0       0.0       0.1       0.0       0.0       0.1
 5 H  s               0.1       0.9       0.2       0.0       0.0       0.0
 6 H  s               0.0       0.4       0.1       0.0       0.0       0.0
 6 H  px              0.0       0.0       0.2       0.0       0.0       0.0
 7 H  s               0.1       0.9       0.2       0.0       0.0       0.0
 7 H  py              0.0       0.0       0.1       0.0       0.0       0.0
 8 H  s               0.6       0.4       0.2       0.0       0.0       0.0
 8 H  py              0.0       0.0       0.1       0.0       0.0       0.0
 9 H  s               0.3       0.1       0.1       0.0       0.0       0.0
 9 H  px              0.0       0.0       0.2       0.0       0.0       0.0
10 H  s               0.8       0.2       0.2       0.0       0.0       0.0
10 H  pz              0.0       0.0       0.1       0.0       0.0       0.0
11 H  s               0.3       0.1       0.1       0.0       0.0       0.0
11 H  px              0.0       0.0       0.2       0.0       0.0       0.0
12 H  s               0.8       0.2       0.2       0.0       0.0       0.0
12 H  pz              0.1       0.0       0.1       0.0       0.0       0.0
13 H  s               0.6       0.4       0.2       0.0       0.0       0.0

                    210       211       212       213       214   
                  20.71914  20.80054  20.80069  20.90151  24.15352
                   0.00000   0.00000   0.00000   0.00000   0.00000
                  --------  --------  --------  --------  --------
 0 C  s              20.4       0.2      65.3      12.5       0.0
 1 C  s              37.3       0.0       0.0      61.6       0.7
 1 C  pz              0.0       0.2       0.0       0.0       0.0
 1 C  py              0.0       0.0       0.2       0.0       0.0
 2 C  s              20.4      52.3      13.4      12.4       0.0
 3 C  s              20.3      45.9      19.7      12.5       0.0
 3 C  pz              0.1       0.0       0.0       0.0       0.0
 4 Cl s               0.3       0.0       0.0       0.2      98.7
 4 Cl px              0.0       0.0       0.0       0.0       0.1
 5 H  s               0.1       0.0       0.1       0.0       0.0
 6 H  s               0.0       0.0       0.2       0.0       0.0
 7 H  s               0.1       0.0       0.1       0.0       0.0
 8 H  s               0.1       0.1       0.0       0.0       0.0
 9 H  s               0.0       0.1       0.0       0.0       0.0
10 H  s               0.1       0.1       0.0       0.0       0.0
11 H  s               0.0       0.1       0.0       0.0       0.0
13 H  s               0.1       0.1       0.0       0.0       0.0


                      *****************************
                      * MAYER POPULATION ANALYSIS *
                      *****************************

  NA   - Mulliken gross atomic population
  ZA   - Total nuclear charge
  QA   - Mulliken gross atomic charge
  VA   - Mayer's total valence
  BVA  - Mayer's bonded valence
  FA   - Mayer's free valence

  ATOM       NA         ZA         QA         VA         BVA        FA
  0 C      6.3858     6.0000    -0.3858     3.8744     3.8744    -0.0000
  1 C      5.8022     6.0000     0.1978     3.8904     3.8904    -0.0000
  2 C      6.3855     6.0000    -0.3855     3.8745     3.8745    -0.0000
  3 C      6.3860     6.0000    -0.3860     3.8740     3.8740     0.0000
  4 Cl    17.2866    17.0000    -0.2866     1.0086     1.0086    -0.0000
  5 H      0.8616     1.0000     0.1384     0.9789     0.9789     0.0000
  6 H      0.8616     1.0000     0.1384     0.9735     0.9735    -0.0000
  7 H      0.8615     1.0000     0.1385     0.9789     0.9789     0.0000
  8 H      0.8615     1.0000     0.1385     0.9790     0.9790     0.0000
  9 H      0.8617     1.0000     0.1383     0.9735     0.9735    -0.0000
 10 H      0.8615     1.0000     0.1385     0.9789     0.9789    -0.0000
 11 H      0.8616     1.0000     0.1384     0.9735     0.9735     0.0000
 12 H      0.8614     1.0000     0.1386     0.9789     0.9789    -0.0000
 13 H      0.8615     1.0000     0.1385     0.9789     0.9789    -0.0000

  Mayer bond orders larger than 0.100000
B(  0-C ,  1-C ) :   0.9930 B(  0-C ,  5-H ) :   0.9705 B(  0-C ,  6-H ) :   0.9587 
B(  0-C ,  7-H ) :   0.9706 B(  1-C ,  2-C ) :   0.9932 B(  1-C ,  3-C ) :   0.9927 
B(  1-C ,  4-Cl) :   0.8941 B(  2-C ,  8-H ) :   0.9705 B(  2-C ,  9-H ) :   0.9586 
B(  2-C , 10-H ) :   0.9706 B(  3-C , 11-H ) :   0.9587 B(  3-C , 12-H ) :   0.9706 
B(  3-C , 13-H ) :   0.9706 

-------
TIMINGS
-------

Total SCF time: 0 days 0 hours 1 min 15 sec 

Total time                  ....      75.176 sec
Sum of individual times     ....      72.118 sec  ( 95.9%)

SCF preparation             ....       0.559 sec  (  0.7%)
Fock matrix formation       ....      69.818 sec  ( 92.9%)
  Startup                   ....       0.052 sec  (  0.1% of F)
  Split-RI-J                ....       1.908 sec  (  2.7% of F)
  Chain of spheres X        ....      53.121 sec  ( 76.1% of F)
  XC integration            ....      11.865 sec  ( 17.0% of F)
    XC Preparation          ....       0.000 sec  (  0.0% of XC)
    Basis function eval.    ....       1.715 sec  ( 14.5% of XC)
    Density eval.           ....       1.217 sec  ( 10.3% of XC)
    XC-Functional eval.     ....       1.576 sec  ( 13.3% of XC)
    XC-Potential eval.      ....       1.788 sec  ( 15.1% of XC)
  CPCM terms                ....       3.410 sec  (  4.9% of F)
Diagonalization             ....       0.000 sec  (  0.0%)
Density matrix formation    ....       0.345 sec  (  0.5%)
Total Energy calculation    ....       0.049 sec  (  0.1%)
Population analysis         ....       0.107 sec  (  0.1%)
Orbital Transformation      ....       0.051 sec  (  0.1%)
Orbital Orthonormalization  ....       0.000 sec  (  0.0%)
DIIS solution               ....       0.638 sec  (  0.8%)
  MO trafo                  ....       0.000 sec  (  0.0 % of DIIS)
  Orb grad                  ....       0.000 sec  (  0.0 % of DIIS)
  Energy W gradient         ....       0.000 sec  (  0.0 % of DIIS)
  DIIS error                ....       0.006 sec  (  0.9 % of DIIS)
  DIIS work                 ....       0.595 sec  ( 93.2 % of DIIS)
  Form Q                    ....       0.000 sec  (  0.0 % of DIIS)
  Form QpQm                 ....       0.000 sec  (  0.0 % of DIIS)
  Exp/Cayley                ....       0.000 sec  (  0.0 % of DIIS)
  Orb update                ....       0.000 sec  (  0.0 % of DIIS)
  Wake-sleep                ....       0.011 sec  (  1.7 % of DIIS)
SOSCF solution              ....       0.162 sec  (  0.2%)
  MO trafo                  ....       0.059 sec  ( 36.4 % of SOSCF)
  Orb grad                  ....       0.003 sec  (  1.6 % of SOSCF)
  Rot update                ....       0.060 sec  ( 37.2 % of SOSCF)
  Step                      ....       0.040 sec  ( 24.7 % of SOSCF)
Grid generation             ....       0.389 sec  (  0.5%)
Finished LeanSCF after  75.5 sec

Maximum memory used throughout the entire LEANSCF-calculation: 25.8 MB
------------------   -----------------
gCP correction             0.009792526
------------------   -----------------

-------------------------   --------------------
FINAL SINGLE POINT ENERGY      -618.010381724311
-------------------------   --------------------


------------------------------------------------------------------------------
                              ORCA PROPERTY CALCULATIONS
------------------------------------------------------------------------------

GBWName                                 ... sp_solv.gbw
Number of atoms                         ...     14
Number of basis functions               ...    215
Max core memory                         ...   1024 MB

Electric properties:
Dipole moment                           ... YES
Quadrupole moment                       ...  NO
Static polarizability (Dipole/Dipole)   ...  NO
Static polarizability (Dipole/Quad.)    ...  NO
Static polarizability (Quad./Quad.)     ...  NO
Static polarizability (Velocity)        ...  NO

Atomic electric properties:
Dipole moment                           ...  NO
Quadrupole moment                       ...  NO
Static polarizability                   ...  NO

Choice of electric origin               ... Center of mass
Position of electric origin             ...     0.036281    -0.000245     0.000366

General magnetic properties:
Magnetizability                         ...  NO

EPR properties:
g-Tensor (aka g-matrix)                 ...  NO
Zero-Field splitting spin-orbit         ...  NO
Zero-field splitting spin-spin          ...  NO
Hyperfine couplings                     ...  NO (   0 nuclei)
Quadrupole couplings                    ...  NO (   0 nuclei)
Contact density                         ...  NO (   0 nuclei)

NMR properties:
Chemical shifts                         ...  NO (   0 nuclei)
Spin-rotation constants                 ...  NO (   0 nuclei)
Spin-spin couplings                     ...  NO (   0 nuclei,    0 pairs)

Choice of magnetic origin               ... GIAO
Position of magnetic origin             ...     0.000000     0.000000     0.000000

Properties with geometric perturbations:
SCF Hessian                             ...  NO
IR spectrum                             ...  NO
VCD spectrum                            ...  NO
X-ray spectroscopy properties:
SCF XES/XAS/RIXS spectra                ...  NO


-------------
DIPOLE MOMENT
-------------

Method             : SCF
Type of density    : Electron Density
Multiplicity       :   1
Irrep              :   0
Energy             :  -618.0201742501110402 Eh
Relativity type    : 
Basis              : AO
                                X                 Y                 Z
Electronic contribution:      9.430368121      -0.000372942       0.002681283
Nuclear contribution   :    -10.832722402       0.001275545      -0.002576874
                        -----------------------------------------
Total Dipole Moment    :     -1.402354281       0.000902604       0.000104409
                        -----------------------------------------
Magnitude (a.u.)       :      1.402354575
Magnitude (Debye)      :      3.564502055



--------------------
Rotational spectrum 
--------------------
 
Rotational constants in cm-1:             0.151574             0.097179             0.097156 
Rotational constants in MHz :          4544.074767          2913.341108          2912.670130 

Dipole components along the rotational axes: 
x,y,z [a.u.] :     1.402354    -0.000648    -0.000414 
x,y,z [Debye]:     3.564502    -0.001647    -0.001052 

 

Dipole moment calculation done in   0.0 sec 

Maximum memory used throughout the entire PROP-calculation: 15.0 MB

--------------------------------
SUGGESTED CITATIONS FOR THIS RUN
--------------------------------

Below you find a list of papers that are relevant to this ORCA run
We neither can nor want to force you to cite these papers, but we appreciate if you do
You receive ORCA, which is the product of decades of hard work by many enthusiastic individuals, for free
The only thing we kindly ask in return is that you cite our papers,
We deeply appreciate it, if you show your appreciation for ORCA by not just citing the generic ORCA reference.

Please note that relegating all ORCA citations to the supporting information does *not* help us.
SI sections are not indexed - citations you put there will not count into any citation statistics
But we need these citations in order to attract the funding resources that allow us to do what we are doing

Therefore, if you are a happy ORCA user, please consider citing a few of the papers listed below in the main body of your paper

In addition to the list printed below, the program has created the file sp_solv.bibtex that contains the list in bibtex format
You can import this file easily into all common literature databanks and citation aid programs


List of essential papers. We consider these as the minimum necessary citations

  1. Neese,F.
     Software update: the ORCA program system, version 5.0
     WIRES Comput. Molec. Sci., 2022 12(1)e1606
     doi.org/10.1002/wcms.1606

List of papers to cite with high priority. The work reported in these papers was absolutely
necessary for this run to complete.
Our perspective: the developers of density functionals and basis sets usually get cited in chemistry papers
Good! But without the algorithms to do something with them, the functionals or basis sets would not do anything.
Hence, in our opinion, the algorithm design and method developments papers are equally worthy of getting cited

  1. Neese,F.
     An improvement of the resolution of the identity approximation for the formation of the Coulomb matrix
     J. Comp. Chem., 2003 24(14)1740-1747
     doi.org/10.1002/jcc.10318
  2. Neese,F.; Wennmohs,F.; Hansen,A.; Becker,U.
     Efficient, approximate and parallel Hartree-Fock and hybrid DFT calculations. A 'chain-of-spheres' algorithm for the Hartree-Fock exchange
     Chem. Phys., 2009 356(1-3)98-109
     doi.org/10.1016/j.chemphys.2008.10.036
  3. Garcia-Rates,M.; Neese,F.
     Effect of the Solute Cavity on the Solvation Energy and its Derivatives within the Framework of the Gaussian Charge Scheme
     J. Comput. Chem., 2020 41 922-939
     doi.org/10.1002/jcc.26139
  4. Helmich-Paris,B.; de Souza,B.; Neese,F.; Izsák,R.
     An improved chain of spheres for exchange algorithm
     J. Chem. Phys., 2021 155 104109
     doi.org/doi: 10.1063/5.0058766.
  5. Neese,F.
     The SHARK Integral Generation and Digestion System
     J. Comp. Chem., 2022  1-16
     doi.org/10.1002/jcc.26942

List of suggested additional citations. These are papers that are important in the 'surrounding' of 
of this run, or papers that preceded the highly important papers. If you like your results we are grateful for a citation.

  1. Izsak,R.; Neese,F.
     An overlap fitted chain of spheres exchange method
     J. Chem. Phys., 2011 135 144105
     doi.org/10.1063/1.3646921
  2. Izsak,R.; Hansen,A.; Neese,F.
     The resolution of identity and chain of spheres approximations for the LPNO-CCSD singles Fock term
     Molec. Phys., 2012 110 2413-2417
     doi.org/10.1080/00268976.2012.687466
  3. Neese,F.
     The ORCA program system
     WIRES Comput. Molec. Sci., 2012 2(1)73-78
     doi.org/10.1002/wcms.81
  4. Izsak,R.; Neese,F.; Klopper,W.
     Robust fitting techniques in the chain of spheres approximation to the Fock exchange: The role of the complementary space
     J. Chem. Phys., 2013 139 
     doi.org/10.1063/1.4819264
  5. Neese,F.
     Software update: the ORCA program system, version 4.0
     WIRES Comput. Molec. Sci., 2018 8(1)1-6
     doi.org/10.1002/wcms.1327
  6. Neese,F.; Wennmohs,F.; Becker,U.; Riplinger,C.
     The ORCA quantum chemistry program package
     J. Chem. Phys., 2020 152 Art. No. L224108
     doi.org/10.1063/5.0004608

List of optional additional citations

  1. Neese,F.
     Approximate second-order SCF convergence for spin unrestricted wavefunctions
     Chem. Phys. Lett., 2000 325(1-3)93-98
     doi.org/10.1016/s0009-2614(00)00662-x

Timings for individual modules:

Sum of individual times          ...       78.379 sec (=   1.306 min)
Startup calculation              ...        2.135 sec (=   0.036 min)   2.7 %
SCF iterations                   ...       76.149 sec (=   1.269 min)  97.2 %
Property calculations            ...        0.095 sec (=   0.002 min)   0.1 %
                             ****ORCA TERMINATED NORMALLY****
TOTAL RUN TIME: 0 days 0 hours 1 minutes 19 seconds 730 msec
