
                                 *****************
                                 * O   R   C   A *
                                 *****************

                                            #,                                       
                                            ###                                      
                                            ####                                     
                                            #####                                    
                                            ######                                   
                                           ########,                                 
                                     ,,################,,,,,                         
                               ,,#################################,,                 
                          ,,##########################################,,             
                       ,#########################################, ''#####,          
                    ,#############################################,,   '####,        
                  ,##################################################,,,,####,       
                ,###########''''           ''''###############################       
              ,#####''   ,,,,##########,,,,          '''####'''          '####       
            ,##' ,,,,###########################,,,                        '##       
           ' ,,###''''                  '''############,,,                           
         ,,##''                                '''############,,,,        ,,,,,,###''
      ,#''                                            '''#######################'''  
     '                                                          ''''####''''         
             ,#######,   #######,   ,#######,      ##                                
            ,#'     '#,  ##    ##  ,#'     '#,    #''#        ,####,   ,####,        
            ##       ##  ##   ,#'  ##            #'  '#       #'       #'  '#        
            ##       ##  #######   ##           ,######,      #####,   #    #        
            '#,     ,#'  ##    ##  '#,     ,#' ,#      #,     #,   #   #,  ,#        
             '#######'   ##     ##  '#######'  #'      '#     '####' # '####'        



                #########################################################
                #                        -***-                          #
                #          Department of theory and spectroscopy        #
                #                                                       #
                #                      Frank Neese                      #
                #                                                       #
                #     Directorship, Architecture, Infrastructure        #
                #                    SHARK, DRIVERS                     #
                #        Core code/Algorithms in most modules           #
                #                                                       #
                #        Max Planck Institute fuer Kohlenforschung      #
                #                Kaiser Wilhelm Platz 1                 #
                #                 D-45470 Muelheim/Ruhr                 #
                #                      Germany                          #
                #                                                       #
                #                  All rights reserved                  #
                #                        -***-                          #
                #########################################################


                         Program Version 6.0.0  -   RELEASE  -


 With contributions from (in alphabetic order):
   Daniel Aravena         : Magnetic Suceptibility
   Michael Atanasov       : Ab Initio Ligand Field Theory (pilot matlab implementation)
   Alexander A. Auer      : GIAO ZORA, VPT2 properties, NMR spectrum
   Ute Becker             : All parallelization in ORCA, NUMFREQ, NUMCALC
   Giovanni Bistoni       : ED, misc. LED, open-shell LED, HFLD
   Martin Brehm           : Molecular dynamics
   Dmytro Bykov           : pre 5.0 version of the SCF Hessian
   Marcos Casanova-Páez   : Triplet and SCS-CIS(D). UHF-(DLPNO)-IP/EA/STEOM-CCSD. UHF-CVS-IP/STEOM-CCSD
   Vijay G. Chilkuri      : MRCI spin determinant printing, contributions to CSF-ICE
   Pauline Colinet        : FMM embedding
   Dipayan Datta          : RHF DLPNO-CCSD density
   Achintya Kumar Dutta   : EOM-CC, STEOM-CC
   Nicolas Foglia         : Exact transition moments, OPA infrastructure, MCD improvements
   Dmitry Ganyushin       : Spin-Orbit,Spin-Spin,Magnetic field MRCI
   Miquel Garcia          : C-PCM and meta-GGA Hessian, CCSD/C-PCM, Gaussian charge scheme
   Tiago L. C. Gouveia    : GS-ROHF, GS-ROCIS
   Yang Guo               : DLPNO-NEVPT2, F12-NEVPT2, CIM, IAO-localization
   Andreas Hansen         : Spin unrestricted coupled pair/coupled cluster methods
   Ingolf Harden          : AUTO-CI MPn and infrastructure 
   Benjamin Helmich-Paris : MC-RPA, TRAH-(SCF,CASSCF), AVAS, COSX integrals, SCF dyn. polar.
   Lee Huntington         : MR-EOM, pCC
   Robert Izsak           : Overlap fitted RIJCOSX, COSX-SCS-MP3, EOM
   Riya Kayal             : Wick's Theorem for AUTO-CI, AUTO-CI UHF-CCSDT
   Emily Kempfer          : AUTO-CI, RHF CISDT and CCSDT
   Christian Kollmar      : KDIIS, OOCD, Brueckner-CCSD(T), CCSD density, CASPT2, CASPT2-K, improved NEVPT2
   Axel Koslowski         : Symmetry handling
   Simone Kossmann        : Meta GGA functionals, TD-DFT gradient, OOMP2, (MP2 Hessian; deprecated post 5.0)
   Lucas Lang             : DCDCAS
   Marvin Lechner         : AUTO-CI (C++ implementation), FIC-MRCC
   Spencer Leger          : CASSCF response
   Dagmar Lenk            : GEPOL surface, SMD, ORCA-2-JSON
   Dimitrios Liakos       : Extrapolation schemes; Compound Job, initial MDCI parallelization
   Dimitrios Manganas     : Further ROCIS development; embedding schemes. LFT, Crystal Embedding
   Dimitrios Pantazis     : SARC Basis sets
   Anastasios Papadopoulos: AUTO-CI, single reference methods and gradients
   Taras Petrenko         : pre 6.0 DFT Hessian and TD-DFT gradient, (ASA, deprecated), ECA, 1-Electron XAS/XES, NRVS
   Peter Pinski           : DLPNO-MP2, DLPNO-MP2 Gradient
   Christoph Reimann      : Effective Core Potentials
   Marius Retegan         : Local ZFS, SOC
   Christoph Riplinger    : Optimizer, TS searches, QM/MM, DLPNO-CCSD(T), (RO)-DLPNO pert. Triples
   Michael Roemelt        : Original ROCIS implementation
   Masaaki Saitow         : Open-shell DLPNO-CCSD energy and density
   Barbara Sandhoefer     : DKH picture change effects
   Kantharuban Sivalingam : CASSCF convergence/infrastructure, NEVPT2 and variants, FIC-MRCI
   Bernardo de Souza      : ESD, SOC TD-DFT
   Georgi Stoychev        : AutoAux, RI-MP2 NMR, DLPNO-MP2 response, X2C
   Van Anh Tran           : RI-MP2 g-tensors
   Willem Van den Heuvel  : Paramagnetic NMR
   Zikuan Wang            : NOTCH, Electric field optimization 
   Frank Wennmohs         : Technical directorship and infrastructure
   Hang Xu                : AUTO-CI-Response properties 


 We gratefully acknowledge several colleagues who have allowed us to
 interface, adapt or use parts of their codes:
   Stefan Grimme, W. Hujo, H. Kruse, P. Pracht,  : VdW corrections, initial TS optimization,
                  C. Bannwarth, S. Ehlert,         DFT functionals, gCP, sTDA/sTD-DF
                  L. Wittmann, M. Mueller
   Ed Valeev, F. Pavosevic, A. Kumar             : LibInt (2-el integral package), F12 methods
   Garnet Chan, S. Sharma, J. Yang, R. Olivares  : DMRG
   Ulf Ekstrom                                   : XCFun DFT Library
   Mihaly Kallay                                 : mrcc  (arbitrary order and MRCC methods)
   Frank Weinhold                                : gennbo (NPA and NBO analysis)
   Simon Mueller                                 : openCOSMO-RS
   Christopher J. Cramer and Donald G. Truhlar   : smd solvation model
   Lars Goerigk                                  : TD-DFT with DH, B97 family of functionals
   V. Asgeirsson, H. Jonsson                     : NEB implementation
   FAccTs GmbH                                   : IRC, NEB, NEB-TS, DLPNO-Multilevel, CI-OPT
                                                   MM, QMMM, 2- and 3-layer-ONIOM, Crystal-QMMM,
                                                   LR-CPCM, SF, NACMEs, symmetry and pop. for TD-DFT,
                                                   nearIR, NL-DFT gradient (VV10), updates on ESD,
                                                   ML-optimized integration grids, MBIS, APM,
                                                   GOAT, DOCKER, SOLVATOR, interface openCOSMO-RS
   S Lehtola, MJT Oliveira, MAL Marques          : LibXC Library
   Liviu Ungur et al                             : ANISO software


 Your calculation uses the libint2 library for the computation of 2-el integrals
 For citations please refer to: http://libint.valeyev.net

 Your ORCA version has been built with support for libXC version: 6.2.2
 For citations please refer to: https://libxc.gitlab.io

 This ORCA versions uses:
   CBLAS   interface :  Fast vector & matrix operations
   LAPACKE interface :  Fast linear algebra routines
   SCALAPACK package :  Parallel linear algebra routines
   Shared memory     :  Shared parallel matrices
   BLAS/LAPACK       :  OpenBLAS 0.3.27  USE64BITINT DYNAMIC_ARCH NO_AFFINITY SkylakeX SINGLE_THREADED
        Core in use  :  SkylakeX
   Copyright (c) 2011-2014, The OpenBLAS Project


Your calculation utilizes the geometrical counterpoise correction gCP
Please cite in your paper:
H.Kruse, S. Grimme J.Chem.Phys., 136, (2012), 154101 
   

Your calculation utilizes the DFT-NL dispersion correction.
Cite in your paper:
Vydrov, O. A.; Van Voorhis, T. J. Chem. Phys. 2010, 133, 244103
Hujo, W.; Grimme, S. J. Chem. Theory Comput. 2011, 7, 3866 
   

================================================================================

----- Orbital basis set information -----
Your calculation utilizes the basis: def2-TZVP
   F. Weigend and R. Ahlrichs, Phys. Chem. Chem. Phys. 7, 3297 (2005).

----- AuxJ basis set information -----
Your calculation utilizes the auxiliary basis: def2/J
   F. Weigend, Phys. Chem. Chem. Phys. 8, 1057 (2006).

================================================================================
                                        WARNINGS
                       Please study these warnings very carefully!
================================================================================


================================================================================
                                       INPUT FILE
================================================================================
NAME = sp_gas.inp
|  1> ! wb97x-v def2-tzvp def2/J RIJCOSX DEFGRID2 scfconv7 GCP(DFT/TZ) printgap
|  2> %output
|  3>     printlevel normal
|  4> end
|  5> * xyz 0 1
|  6> C 1.690734624208423 -1.073917143517953 0.15059248003678022
|  7> C 1.040799054476385 0.2606294264526488 -0.1906780347891376
|  8> C -0.45764462508222314 0.34732816430487956 -0.06304586341976715
|  9> O -1.0743090074593327 1.3943959218085882 -0.15549895402130198
| 10> O -1.1553727725083378 -0.7927566946949488 0.14477581509044202
| 11> H 1.360958355783357 -1.8735497857337533 -0.5220739211274649
| 12> H 2.7748567819233396 -0.9911684671119394 0.04083732251713646
| 13> H 1.4841732963675855 -1.3701311375440108 1.1840697875754085
| 14> H 1.441366022709768 1.0661085084414577 0.43355193558657484
| 15> H 1.2622950963211008 0.5470784761006477 -1.2265785568753873
| 16> H -0.5586049801942781 -1.5564954865707974 0.1971457172962887
| 17> *
| 18> 
| 19>                          ****END OF INPUT****
================================================================================

                       ****************************
                       * Single Point Calculation *
                       ****************************

---------------------------------
CARTESIAN COORDINATES (ANGSTROEM)
---------------------------------
  C      1.690735   -1.073917    0.150592
  C      1.040799    0.260629   -0.190678
  C     -0.457645    0.347328   -0.063046
  O     -1.074309    1.394396   -0.155499
  O     -1.155373   -0.792757    0.144776
  H      1.360958   -1.873550   -0.522074
  H      2.774857   -0.991168    0.040837
  H      1.484173   -1.370131    1.184070
  H      1.441366    1.066109    0.433552
  H      1.262295    0.547078   -1.226579
  H     -0.558605   -1.556495    0.197146

----------------------------
CARTESIAN COORDINATES (A.U.)
----------------------------
  NO LB      ZA    FRAG     MASS         X           Y           Z
   0 C     6.0000    0    12.011    3.195025   -2.029409    0.284579
   1 C     6.0000    0    12.011    1.966825    0.492518   -0.360329
   2 C     6.0000    0    12.011   -0.864823    0.656355   -0.119139
   3 O     8.0000    0    15.999   -2.030150    2.635026   -0.293850
   4 O     8.0000    0    15.999   -2.183338   -1.498093    0.273587
   5 H     1.0000    0     1.008    2.571839   -3.540496   -0.986577
   6 H     1.0000    0     1.008    5.243719   -1.873037    0.077171
   7 H     1.0000    0     1.008    2.804681   -2.589173    2.237568
   8 H     1.0000    0     1.008    2.723787    2.014653    0.819294
   9 H     1.0000    0     1.008    2.385392    1.033828   -2.317898
  10 H     1.0000    0     1.008   -1.055610   -2.941350    0.372551

--------------------------------
INTERNAL COORDINATES (ANGSTROEM)
--------------------------------
 C      0   0   0     0.000000000000     0.00000000     0.00000000
 C      1   0   0     1.523120598151     0.00000000     0.00000000
 C      2   1   0     1.506366523500   117.12373716     0.00000000
 O      3   2   1     1.218676915043   123.11849882   171.18676803
 O      3   2   1     1.352703923070   118.52867373   350.19727798
 H      1   2   3     1.095739401942   111.92801304    62.93840686
 H      1   2   3     1.092801167138   109.54056016   181.43371334
 H      1   2   3     1.094753697237   111.59737027   300.49273953
 H      2   1   3     1.094949087162   111.14399101   121.82356145
 H      2   1   3     1.097362039737   110.73814124   239.12170778
 H      5   3   2     0.970655112188   110.75194281     0.71934653

---------------------------
INTERNAL COORDINATES (A.U.)
---------------------------
 C      0   0   0     0.000000000000     0.00000000     0.00000000
 C      1   0   0     2.878280799440     0.00000000     0.00000000
 C      2   1   0     2.846620186723   117.12373716     0.00000000
 O      3   2   1     2.302965615163   123.11849882   171.18676803
 O      3   2   1     2.556239954884   118.52867373   350.19727798
 H      1   2   3     2.070647383817   111.92801304    62.93840686
 H      1   2   3     2.065094924720   109.54056016   181.43371334
 H      1   2   3     2.068784671875   111.59737027   300.49273953
 H      2   1   3     2.069153905323   111.14399101   121.82356145
 H      2   1   3     2.073713724864   110.73814124   239.12170778
 H      5   3   2     1.834272332526   110.75194281     0.71934653

---------------------
BASIS SET INFORMATION
---------------------
There are 3 groups of distinct atoms

 Group   1 Type C   : 11s6p2d1f contracted to 5s3p2d1f pattern {62111/411/11/1}
 Group   2 Type O   : 11s6p2d1f contracted to 5s3p2d1f pattern {62111/411/11/1}
 Group   3 Type H   : 5s1p contracted to 3s1p pattern {311/1}

Atom   0C    basis set group =>   1
Atom   1C    basis set group =>   1
Atom   2C    basis set group =>   1
Atom   3O    basis set group =>   2
Atom   4O    basis set group =>   2
Atom   5H    basis set group =>   3
Atom   6H    basis set group =>   3
Atom   7H    basis set group =>   3
Atom   8H    basis set group =>   3
Atom   9H    basis set group =>   3
Atom  10H    basis set group =>   3
---------------------------------
AUXILIARY/J BASIS SET INFORMATION
---------------------------------
There are 3 groups of distinct atoms

 Group   1 Type C   : 12s5p4d2f1g contracted to 6s4p3d1f1g pattern {711111/2111/211/2/1}
 Group   2 Type O   : 12s5p4d2f1g contracted to 6s4p3d1f1g pattern {711111/2111/211/2/1}
 Group   3 Type H   : 5s2p1d contracted to 3s1p1d pattern {311/2/1}

Atom   0C    basis set group =>   1
Atom   1C    basis set group =>   1
Atom   2C    basis set group =>   1
Atom   3O    basis set group =>   2
Atom   4O    basis set group =>   2
Atom   5H    basis set group =>   3
Atom   6H    basis set group =>   3
Atom   7H    basis set group =>   3
Atom   8H    basis set group =>   3
Atom   9H    basis set group =>   3
Atom  10H    basis set group =>   3

Checking for AutoStart:
The File: sp_gas.gbw exists
Trying to determine its content:
     ... Fine, the file contains calculation information
     ... Fine, the calculation information was read
     ... Fine, the file contains a basis set
     ... Fine, the basis set was read
     ... Fine, the file contains a geometry
     ... Fine, the geometry was read
     ... Fine, the file contains a set of orbitals
     ... Fine, the orbitals can be read
     => possible old guess file was deleted
     => GBW file was renamed to GES file
     => GES file is set as startup file
     => Guess is set to MORead
     ... now leaving AutoStart

------------------------------------------------------------------------------
                             ORCA STARTUP CALCULATIONS
                           -- RI-GTO INTEGRALS CHOSEN --
------------------------------------------------------------------------------
------------------------------------------------------------------------------
                   ___                                                        
                  /   \      - P O W E R E D   B Y -                         
                 /     \                                                     
                 |  |  |   _    _      __       _____    __    __             
                 |  |  |  | |  | |    /  \     |  _  \  |  |  /  |          
                  \  \/   | |  | |   /    \    | | | |  |  | /  /          
                 / \  \   | |__| |  /  /\  \   | |_| |  |  |/  /          
                |  |  |   |  __  | /  /__\  \  |    /   |      \           
                |  |  |   | |  | | |   __   |  |    \   |  |\   \          
                \     /   | |  | | |  |  |  |  | |\  \  |  | \   \       
                 \___/    |_|  |_| |__|  |__|  |_| \__\ |__|  \__/        
                                                                              
                      - O R C A' S   B I G   F R I E N D -                    
                                      &                                       
                       - I N T E G R A L  F E E D E R -                       
                                                                              
 v1 FN, 2020, v2 2021, v3 2022-2024                                           
------------------------------------------------------------------------------


----------------------
SHARK INTEGRAL PACKAGE
----------------------

Number of atoms                             ...     11
Number of basis functions                   ...    191
Number of shells                            ...     79
Maximum angular momentum                    ...      3
Integral batch strategy                     ... SHARK/LIBINT Hybrid
RI-J (if used) integral strategy            ... SPLIT-RIJ (Revised 2003 algorithm where possible)
Printlevel                                  ...      1
Contraction scheme used                     ... SEGMENTED contraction
Prescreening option                         ... SCHWARTZ
   Thresh                                   ... 3.000e-11
   Tcut                                     ... 1.000e-12
   Tpresel                                  ... 1.000e-12 
Coulomb Range Separation                    ... NOT USED
Exchange Range Separation                   ... Long Range
   Mu parameter                             ... 3.000e-01
   Scaling (regular/separated)              ... 1.670e-01 8.330e-01
Multipole approximations                    ... NOT USED
Finite Nucleus Model                        ... NOT USED
CABS basis                                  ... NOT available
Auxiliary Coulomb fitting basis             ... AVAILABLE
   # of basis functions in Aux-J            ...    311
   # of shells in Aux-J                     ...    105
   Maximum angular momentum in Aux-J        ...      4
Auxiliary J/K fitting basis                 ... NOT available
Auxiliary Correlation fitting basis         ... NOT available
Auxiliary 'external' fitting basis          ... NOT available

Checking pre-screening integrals            ... done (  0.0 sec) Dimension = 79
Check shell pair data                       ... done (  0.0 sec)
Shell pair information
Shell pair cut-off parameter TPreSel        ...   1.0e-12
Total number of shell pairs                 ...      3160
Shell pairs after pre-screening             ...      3046
Total number of primitive shell pairs       ...      9444
Primitive shell pairs kept                  ...      7273
          la=0 lb=0:    886 shell pairs
          la=1 lb=0:    882 shell pairs
          la=1 lb=1:    229 shell pairs
          la=2 lb=0:    414 shell pairs
          la=2 lb=1:    206 shell pairs
          la=2 lb=2:     54 shell pairs
          la=3 lb=0:    206 shell pairs
          la=3 lb=1:    104 shell pairs
          la=3 lb=2:     50 shell pairs
          la=3 lb=3:     15 shell pairs

Calculating one electron integrals          ... done (  0.0 sec)
Calculating RI/J V-Matrix + Cholesky decomp.... done (  0.0 sec)
Calculating Nuclear repulsion               ... done (  0.0 sec) ENN=    178.449228066594 Eh

Diagonalization of the overlap matrix:
Smallest eigenvalue                        ... 2.523e-04
Time for diagonalization                   ...    0.004 sec
Threshold for overlap eigenvalues          ... 1.000e-07
Number of eigenvalues below threshold      ... 0
Time for construction of square roots      ...    0.015 sec
Total time needed                          ...    0.027 sec

-------------------
DFT GRID GENERATION
-------------------

General Integration Accuracy     IntAcc      ... 4.388
Radial Grid Type                 RadialGrid  ... OptM3 with GC (2021)
Angular Grid (max. ang.)         AngularGrid ... 4 (Lebedev-302)
Angular grid pruning method      GridPruning ... 4 (adaptive)
Weight generation scheme         WeightScheme... mBecke (2022)
Basis function cutoff            BFCut       ... 1.0000e-11
Integration weight cutoff        WCut        ... 1.0000e-14
Partially contracted basis set               ... off
Rotationally invariant grid construction     ... off
Angular grids for H and He will be reduced by one unit

Total number of grid points                  ...    49696
Total number of batches                      ...      782
Average number of points per batch           ...       63
Average number of grid points per atom       ...     4518

--------------------
COSX GRID GENERATION
--------------------

GRIDX 1
-------
General Integration Accuracy     IntAcc      ... 3.816
Radial Grid Type                 RadialGrid  ... OptM3 with GC (2021)
Angular Grid (max. ang.)         AngularGrid ... 1 (Lebedev-50)
Angular grid pruning method      GridPruning ... 4 (adaptive)
Weight generation scheme         WeightScheme... mBecke (2022)
Basis function cutoff            BFCut       ... 1.0000e-11
Integration weight cutoff        WCut        ... 1.0000e-14
Partially contracted basis set               ... on
Rotationally invariant grid construction     ... off
Angular grids for H and He will be reduced by one unit

Total number of grid points                  ...     6378
Total number of batches                      ...       56
Average number of points per batch           ...      113
Average number of grid points per atom       ...      580
UseSFitting                                  ... on

GRIDX 2
-------
General Integration Accuracy     IntAcc      ... 4.020
Radial Grid Type                 RadialGrid  ... OptM3 with GC (2021)
Angular Grid (max. ang.)         AngularGrid ... 2 (Lebedev-110)
Angular grid pruning method      GridPruning ... 4 (adaptive)
Weight generation scheme         WeightScheme... mBecke (2022)
Basis function cutoff            BFCut       ... 1.0000e-11
Integration weight cutoff        WCut        ... 1.0000e-14
Partially contracted basis set               ... on
Rotationally invariant grid construction     ... off
Angular grids for H and He will be reduced by one unit

Total number of grid points                  ...    13766
Total number of batches                      ...      115
Average number of points per batch           ...      119
Average number of grid points per atom       ...     1251
UseSFitting                                  ... on

GRIDX 3
-------
General Integration Accuracy     IntAcc      ... 4.338
Radial Grid Type                 RadialGrid  ... OptM3 with GC (2021)
Angular Grid (max. ang.)         AngularGrid ... 3 (Lebedev-194)
Angular grid pruning method      GridPruning ... 4 (adaptive)
Weight generation scheme         WeightScheme... mBecke (2022)
Basis function cutoff            BFCut       ... 1.0000e-11
Integration weight cutoff        WCut        ... 1.0000e-14
Partially contracted basis set               ... on
Rotationally invariant grid construction     ... off
Angular grids for H and He will be reduced by one unit

Total number of grid points                  ...    30263
Total number of batches                      ...      243
Average number of points per batch           ...      124
Average number of grid points per atom       ...     2751
UseSFitting                                  ... on
Initializing property integral containers    ... done (  0.0 sec)

SHARK setup successfully completed in   1.2 seconds

Maximum memory used throughout the entire STARTUP-calculation: 26.6 MB
-------------------------------------------------------------------------------
                                 ORCA GUESS
                   Start orbitals & Density for SCF / CASSCF
-------------------------------------------------------------------------------

------------
SCF SETTINGS
------------
Hamiltonian:
 Density Functional     Method          .... DFT(GTOs)
 Exchange Functional    Exchange        .... WB97X-V
 Correlation Functional Correlation     .... WB97X-V
 Gradients option       PostSCFGGA      .... off
 Hybrid DFT is turned on
   Fraction HF Exchange ScalHFX         ....  0.167000
   Scaling of DF-GGA-X  ScalDFX         ....  0.000000
   Scaling of DF-GGA-C  ScalDFC         ....  1.000000
   Scaling of DF-LDA-C  ScalLDAC        ....  1.000000
   Perturbative correction              ....  0.000000
 Long-range corrected/Screened/Range-Separated Hybrid DFT is turned on
   Amount of maximum screened exact exchange              ....  0.833000
   Range separation parameter mu (erf(mu*r12)/r12)        ....  0.300000
   NL short-range parameter             ....  6.000000
   NL long-range parameter              ....  0.010000
 RI-approximation to the Coulomb term is turned on
   Number of AuxJ basis functions       .... 311
   RIJ-COSX (HFX calculated with COS-X)).... on


General Settings:
 Integral files         IntName         .... sp_gas
 Hartree-Fock type      HFTyp           .... RHF
 Total Charge           Charge          ....    0
 Multiplicity           Mult            ....    1
 Number of Electrons    NEL             ....   40
 Basis Dimension        Dim             ....  191
 Nuclear Repulsion      ENuc            ....    178.4492280666 Eh

Convergence Acceleration:
 AO-DIIS                CNVDIIS         .... on
   Start iteration      DIISMaxIt       ....    12
   Startup error        DIISStart       ....  0.200000
   # of expansion vecs  DIISMaxEq       ....     5
   Bias factor          DIISBfac        ....   1.050
   Max. coefficient     DIISMaxC        ....  10.000
 MO-DIIS                CNVKDIIS        .... off
 Trust-Rad. Augm. Hess. CNVTRAH         .... auto
   Auto Start mean grad. ratio tolernc. ....  1.125000
   Auto Start start iteration           ....     1
   Auto Start num. interpolation iter.  ....    10
   Max. Number of Micro iterations      ....    24
   Max. Number of Macro iterations      .... Maxiter - #DIIS iter
   Number of Davidson start vectors     ....     2
   Converg. threshold    (grad. norm)   ....   1.000e-04
   Grad. Scal. Fac. for Micro threshold ....   0.100
   Minimum threshold for Micro iter.    ....   1.000e-02
   NR start threshold (gradient norm)   ....   1.000e-04
   Initial trust radius                 ....   0.400
   Minimum AH scaling param. (alpha)    ....   1.000
   Maximum AH scaling param. (alpha)    .... 1000.000
   Quad. conv. algorithm                .... NR
   White noise on init. David. guess    .... on
   Maximum white noise                  ....   0.010
   Pseudo random numbers                .... off
   Inactive MOs                         .... canonical
   Orbital update algorithm             .... Taylor
   Preconditioner                       .... Diag
   Full preconditioner red. dimension   ....   250
 SOSCF                  CNVSOSCF        .... on
   Start iteration      SOSCFMaxIt      ....   150
   Startup grad/error   SOSCFStart      ....  0.003300
   Hessian update       SOSCFHessUp     .... L-BFGS
 Level Shifting         CNVShift        .... on
   Level shift para.    LevelShift      ....    0.2500
   Turn off err/grad.   ShiftErr        ....    0.0010
 Zerner damping         CNVZerner       .... off
 Static damping         CNVDamp         .... on
   Fraction old density DampFac         ....    0.7000
   Max. Damping (<1)    DampMax         ....    0.9800
   Min. Damping (>=0)   DampMin         ....    0.0000
   Turn off err/grad.   DampErr         ....    0.1000

SCF Procedure:
 Maximum # iterations   MaxIter         ....   125
 SCF integral mode      SCFMode         .... Direct
   Integral package                     .... SHARK and LIBINT hybrid scheme
 Reset frequency        DirectResetFreq ....    20
 Integral Threshold     Thresh          ....  3.000e-11 Eh
 Primitive CutOff       TCut            ....  1.000e-12 Eh

Convergence Tolerance:
 Convergence Check Mode ConvCheckMode   .... Total+1el-Energy
 Convergence forced     ConvForced      .... 0
 Energy Change          TolE            ....  1.000e-07 Eh
 1-El. energy change                    ....  1.000e-04 Eh
 Orbital Gradient       TolG            ....  1.000e-04
 Orbital Rotation angle TolX            ....  1.000e-04
 DIIS Error             TolErr          ....  1.000e-07

---------------------
INITIAL GUESS: MOREAD
---------------------
Guess MOs are being read from file: sp_gas.ges
Input Geometry matches current geometry (good)
Atom 0: N(Shells)= 11 and 9 - projection required
Input basis set needs projection
NBasis(read)= 135
NBasis(calc)= 191
Basis set overlap was calculated
Using GuessMode=FMatrix for the initial guess
C*T matrix was formed
Effective Fockian was calculated
Effective Fockian was diagonalized
Initial density was built
                      ------------------
                      INITIAL GUESS DONE (   0.0 sec)
                      ------------------
             **** ENERGY FILE WAS UPDATED (sp_gas.en.tmp) ****
Finished Guess after   0.2 sec
Maximum memory used throughout the entire GUESS-calculation: 15.1 MB

-------------------------------------------------------------------------------------------
                                      ORCA LEAN-SCF
                              memory conserving SCF solver
-------------------------------------------------------------------------------------------

----------------------------------------D-I-I-S--------------------------------------------
Iteration    Energy (Eh)           Delta-E    RMSDP     MaxDP     DIISErr   Damp  Time(sec)
-------------------------------------------------------------------------------------------
               ***  Starting incremental Fock matrix formation  ***
    1    -268.5568932708399075     0.00e+00  9.21e-04  2.24e-02  6.48e-02  0.700   5.7
    2    -268.5620143483505444    -5.12e-03  8.26e-04  2.46e-02  4.70e-02  0.700   3.2
                               ***Turning on AO-DIIS***
    3    -268.5656961296321015    -3.68e-03  6.44e-04  1.72e-02  3.35e-02  0.700   3.1
    4    -268.5683138166286881    -2.62e-03  1.60e-03  4.18e-02  2.38e-02  0.000   3.1
                              *** Initializing SOSCF ***
---------------------------------------S-O-S-C-F--------------------------------------
Iteration    Energy (Eh)           Delta-E    RMSDP     MaxDP     MaxGrad    Time(sec)
--------------------------------------------------------------------------------------
    5    -268.5750344915936125    -6.72e-03  9.12e-05  1.93e-03  2.97e-03     3.2
               *** Restarting incremental Fock matrix formation ***
    6    -268.5750765977223296    -4.21e-05  8.70e-05  4.07e-03  6.63e-04     5.9
    7    -268.5750874667253925    -1.09e-05  4.69e-05  1.32e-03  8.85e-04     4.9
    8    -268.5750932618588536    -5.80e-06  1.27e-05  2.74e-04  1.71e-04     4.7
    9    -268.5750934991405643    -2.37e-07  4.88e-06  9.70e-05  5.67e-05     4.3
   10    -268.5750935728999593    -7.38e-08  1.97e-06  3.40e-05  1.85e-05     4.0
                 **** Energy Check signals convergence ****

               *****************************************************
               *                     SUCCESS                       *
               *           SCF CONVERGED AFTER  10 CYCLES          *
               *****************************************************


------------------
NL GRID GENERATION
------------------

General Integration Accuracy     IntAcc      ... 4.004
Radial Grid Type                 RadialGrid  ... OptM3 with GC (2021)
Angular Grid (max. ang.)         AngularGrid ... 2 (Lebedev-110)
Angular grid pruning method      GridPruning ... 4 (adaptive)
Weight generation scheme         WeightScheme... mBecke (2022)
Basis function cutoff            BFCut       ... 1.0000e-10
Integration weight cutoff        WCut        ... 1.0000e-14
Partially contracted basis set               ... off
Rotationally invariant grid construction     ... off
Angular grids for H and He will be reduced by one unit

Total number of grid points                  ...    15436
Total number of batches                      ...      246
Average number of points per batch           ...       62
Average number of grid points per atom       ...     1403
Final grid set up in    0.1 sec

-------------------------------------------------------------------------------
                    post-SCF DFT-NL dispersion correction                      
-------------------------------------------------------------------------------

SCF Energy:     -268.575093573 
NL    Energy:      0.158014877 
SC+NL Energy:   -268.417078696 
NL done in  :              0.9 sec
-------------------------------------------------------------------------------
Recomputing exchange energy using gridx3       ... done (    9.862 sec)
Old exchange energy                            :    -10.949641577 Eh
New exchange energy                            :    -10.949638627 Eh
Exchange energy change after final integration :      0.000002950 Eh
Total energy after final integration           :   -268.417075746 Eh
             **** ENERGY FILE WAS UPDATED (sp_gas.en.tmp) ****

----------------
TOTAL SCF ENERGY
----------------

Total Energy       :       -268.41707574550105 Eh           -7303.99996 eV

Components:
Nuclear Repulsion  :        178.44922806659406 Eh            4855.85036 eV
Electronic Energy  :       -447.02432163949402 Eh          -12164.15021 eV
One Electron Energy:       -718.25247191876099 Eh          -19544.64339 eV
Two Electron Energy:        271.22815027926697 Eh            7380.49319 eV

Virial components:
Potential Energy   :       -535.81399969868096 Eh          -14580.24018 eV
Kinetic Energy     :        267.39692395317991 Eh            7276.24022 eV
Virial Ratio       :          2.00381512164478

DFT components:
N(Alpha)           :       20.000002675943 electrons
N(Beta)            :       20.000002675943 electrons
N(Total)           :       40.000005351885 electrons
E(X)               :      -23.183252501548 Eh       
E(C)               :       -1.673082462677 Eh       
NL Energy, E(C,NL) :        0.158014877026 Eh       
E(XC)              :      -24.698320087199 Eh       

---------------
SCF CONVERGENCE
---------------

  Last Energy change         ...    7.3759e-08  Tolerance :   1.0000e-07
  Last MAX-Density change    ...    3.4043e-05  Tolerance :   1.0000e-05
  Last RMS-Density change    ...    1.9681e-06  Tolerance :   1.0000e-06
  Last DIIS Error            ...    2.9659e-03  Tolerance :   1.0000e-07
  Last Orbital Gradient      ...    1.8451e-05  Tolerance :   1.0000e-04
  Last Orbital Rotation      ...    5.9134e-05  Tolerance :   1.0000e-04


----------------
ORBITAL ENERGIES
----------------

  NO   OCC          E(Eh)            E(eV) 
   0   2.0000     -21.725277      -591.1748 
   1   2.0000     -21.651109      -589.1566 
   2   2.0000     -12.183332      -331.5253 
   3   2.0000     -12.079360      -328.6961 
   4   2.0000     -12.073374      -328.5332 
   5   2.0000      -1.761912       -47.9441 
   6   2.0000      -1.691902       -46.0390 
   7   2.0000      -1.319165       -35.8963 
   8   2.0000      -1.216028       -33.0898 
   9   2.0000      -1.164276       -31.6816 
  10   2.0000      -1.055049       -28.7093 
  11   2.0000      -1.045340       -28.4451 
  12   2.0000      -0.979634       -26.6572 
  13   2.0000      -0.946802       -25.7638 
  14   2.0000      -0.908059       -24.7095 
  15   2.0000      -0.882369       -24.0105 
  16   2.0000      -0.879989       -23.9457 
  17   2.0000      -0.853443       -23.2234 
  18   2.0000      -0.821345       -22.3499 
  19   2.0000      -0.807609       -21.9762 
  20   0.0000      -0.305736        -8.3195 
  21   0.0000      -0.137820        -3.7503 
  22   0.0000      -0.087244        -2.3740 
  23   0.0000      -0.061283        -1.6676 
  24   0.0000      -0.008403        -0.2287 
  25   0.0000      -0.001775        -0.0483 
  26   0.0000       0.005204         0.1416 
  27   0.0000       0.041113         1.1187 
  28   0.0000       0.048180         1.3110 
  29   0.0000       0.075209         2.0465 
  30   0.0000       0.099302         2.7021 
*Only the first 10 virtual orbitals were printed.

                    ********************************
                    * MULLIKEN POPULATION ANALYSIS *
                    ********************************

-----------------------
MULLIKEN ATOMIC CHARGES
-----------------------
   0 C :   -0.428697
   1 C :   -0.149501
   2 C :    0.256804
   3 O :   -0.325419
   4 O :   -0.332350
   5 H :    0.120671
   6 H :    0.133697
   7 H :    0.142114
   8 H :    0.132564
   9 H :    0.130535
  10 H :    0.319581
Sum of atomic charges:   -0.0000000

--------------------------------
MULLIKEN REDUCED ORBITAL CHARGES
--------------------------------
  0 C s       :     3.265691  s :     3.265691
      pz      :     1.037702  p :     3.098954
      px      :     1.098824
      py      :     0.962429
      dz2     :     0.011494  d :     0.060715
      dxz     :     0.003258
      dyz     :     0.018390
      dx2y2   :     0.016560
      dxy     :     0.011014
      f0      :     0.000570  f :     0.003336
      f+1     :     0.000233
      f-1     :     0.000600
      f+2     :     0.000190
      f-2     :     0.000266
      f+3     :     0.000761
      f-3     :     0.000718

  1 C s       :     3.126865  s :     3.126865
      pz      :     1.058303  p :     2.936140
      px      :     0.906710
      py      :     0.971128
      dz2     :     0.014035  d :     0.081536
      dxz     :     0.007292
      dyz     :     0.017032
      dx2y2   :     0.026486
      dxy     :     0.016691
      f0      :     0.000715  f :     0.004960
      f+1     :     0.000355
      f-1     :     0.000584
      f+2     :     0.000498
      f-2     :     0.000302
      f+3     :     0.001119
      f-3     :     0.001388

  2 C s       :     3.098498  s :     3.098498
      pz      :     0.728783  p :     2.348696
      px      :     0.914927
      py      :     0.704986
      dz2     :     0.011258  d :     0.271882
      dxz     :     0.025157
      dyz     :     0.068284
      dx2y2   :     0.093403
      dxy     :     0.073780
      f0      :     0.002625  f :     0.024119
      f+1     :     0.001309
      f-1     :     0.001628
      f+2     :     0.001636
      f-2     :     0.003996
      f+3     :     0.003452
      f-3     :     0.009474

  3 O s       :     3.790075  s :     3.790075
      pz      :     1.394583  p :     4.501023
      px      :     1.660910
      py      :     1.445531
      dz2     :     0.002976  d :     0.032389
      dxz     :     0.003282
      dyz     :     0.008614
      dx2y2   :     0.008565
      dxy     :     0.008951
      f0      :     0.000182  f :     0.001931
      f+1     :     0.000062
      f-1     :     0.000156
      f+2     :     0.000128
      f-2     :     0.000366
      f+3     :     0.000473
      f-3     :     0.000563

  4 O s       :     3.741588  s :     3.741588
      pz      :     1.767168  p :     4.557215
      px      :     1.560315
      py      :     1.229732
      dz2     :     0.004519  d :     0.031836
      dxz     :     0.004644
      dyz     :     0.002484
      dx2y2   :     0.004219
      dxy     :     0.015970
      f0      :     0.000242  f :     0.001711
      f+1     :     0.000195
      f-1     :     0.000419
      f+2     :     0.000084
      f-2     :     0.000094
      f+3     :     0.000434
      f-3     :     0.000242

  5 H s       :     0.858585  s :     0.858585
      pz      :     0.007186  p :     0.020744
      px      :     0.004709
      py      :     0.008849

  6 H s       :     0.844531  s :     0.844531
      pz      :     0.004437  p :     0.021772
      px      :     0.013076
      py      :     0.004260

  7 H s       :     0.837391  s :     0.837391
      pz      :     0.011532  p :     0.020495
      px      :     0.004248
      py      :     0.004715

  8 H s       :     0.845676  s :     0.845676
      pz      :     0.006882  p :     0.021760
      px      :     0.005174
      py      :     0.009704

  9 H s       :     0.847655  s :     0.847655
      pz      :     0.012250  p :     0.021810
      px      :     0.004490
      py      :     0.005070

 10 H s       :     0.633393  s :     0.633393
      pz      :     0.015279  p :     0.047025
      px      :     0.014817
      py      :     0.016930


------------------------
MULLIKEN OVERLAP CHARGES
------------------------
B(  0-C ,  1-C ) :   0.2632 B(  0-C ,  5-H ) :   0.8029 B(  0-C ,  6-H ) :   0.7738 
B(  0-C ,  7-H ) :   0.8416 B(  0-C ,  8-H ) :  -0.0546 B(  1-C ,  2-C ) :   0.5078 
B(  1-C ,  3-O ) :  -0.2131 B(  1-C ,  4-O ) :  -0.2495 B(  1-C ,  5-H ) :  -0.0587 
B(  1-C ,  7-H ) :  -0.0879 B(  1-C ,  8-H ) :   0.7733 B(  1-C ,  9-H ) :   0.7403 
B(  2-C ,  3-O ) :   1.4645 B(  2-C ,  4-O ) :   0.7659 B(  3-O ,  4-O ) :  -0.1939 
B(  4-O , 10-H ) :   0.5866 B(  5-H ,  7-H ) :  -0.0780 


                     *******************************
                     * LOEWDIN POPULATION ANALYSIS *
                     *******************************

----------------------
LOEWDIN ATOMIC CHARGES
----------------------
   0 C :   -0.313791
   1 C :   -0.260309
   2 C :   -0.488441
   3 O :    0.088536
   4 O :    0.105461
   5 H :    0.116865
   6 H :    0.128161
   7 H :    0.121636
   8 H :    0.157300
   9 H :    0.157884
  10 H :    0.186697

-------------------------------
LOEWDIN REDUCED ORBITAL CHARGES
-------------------------------
  0 C s       :     2.828192  s :     2.828192
      pz      :     1.068599  p :     3.195906
      px      :     1.074064
      py      :     1.053243
      dz2     :     0.052022  d :     0.264726
      dxz     :     0.012187
      dyz     :     0.076453
      dx2y2   :     0.079284
      dxy     :     0.044780
      f0      :     0.002957  f :     0.024966
      f+1     :     0.002458
      f-1     :     0.003024
      f+2     :     0.002765
      f-2     :     0.004386
      f+3     :     0.004607
      f-3     :     0.004768

  1 C s       :     2.777535  s :     2.777535
      pz      :     1.035328  p :     3.076517
      px      :     1.010066
      py      :     1.031123
      dz2     :     0.064203  d :     0.369086
      dxz     :     0.042056
      dyz     :     0.070405
      dx2y2   :     0.105041
      dxy     :     0.087381
      f0      :     0.004608  f :     0.037171
      f+1     :     0.003689
      f-1     :     0.003222
      f+2     :     0.004969
      f-2     :     0.005132
      f+3     :     0.006686
      f-3     :     0.008865

  2 C s       :     2.774994  s :     2.774994
      pz      :     0.720360  p :     2.632649
      px      :     1.002386
      py      :     0.909903
      dz2     :     0.065593  d :     0.930439
      dxz     :     0.090394
      dyz     :     0.180003
      dx2y2   :     0.302932
      dxy     :     0.291518
      f0      :     0.009393  f :     0.150358
      f+1     :     0.007695
      f-1     :     0.012130
      f+2     :     0.011155
      f-2     :     0.025874
      f+3     :     0.023973
      f-3     :     0.060137

  3 O s       :     3.409594  s :     3.409594
      pz      :     1.320126  p :     4.431495
      px      :     1.592103
      py      :     1.519266
      dz2     :     0.007987  d :     0.064593
      dxz     :     0.003690
      dyz     :     0.010537
      dx2y2   :     0.018399
      dxy     :     0.023979
      f0      :     0.000413  f :     0.005782
      f+1     :     0.000298
      f-1     :     0.000745
      f+2     :     0.000268
      f-2     :     0.000588
      f+3     :     0.001825
      f-3     :     0.001645

  4 O s       :     3.331080  s :     3.331080
      pz      :     1.650034  p :     4.488039
      px      :     1.559853
      py      :     1.278152
      dz2     :     0.009508  d :     0.070640
      dxz     :     0.003940
      dyz     :     0.007960
      dx2y2   :     0.013627
      dxy     :     0.035605
      f0      :     0.000327  f :     0.004780
      f+1     :     0.000287
      f-1     :     0.000840
      f+2     :     0.000232
      f-2     :     0.000372
      f+3     :     0.001307
      f-3     :     0.001415

  5 H s       :     0.822311  s :     0.822311
      pz      :     0.021689  p :     0.060824
      px      :     0.015351
      py      :     0.023784

  6 H s       :     0.810868  s :     0.810868
      pz      :     0.013257  p :     0.060971
      px      :     0.034998
      py      :     0.012717

  7 H s       :     0.817310  s :     0.817310
      pz      :     0.033102  p :     0.061054
      px      :     0.014095
      py      :     0.013857

  8 H s       :     0.783622  s :     0.783622
      pz      :     0.020225  p :     0.059078
      px      :     0.014364
      py      :     0.024490

  9 H s       :     0.783169  s :     0.783169
      pz      :     0.031997  p :     0.058947
      px      :     0.012936
      py      :     0.014015

 10 H s       :     0.661488  s :     0.661488
      pz      :     0.040228  p :     0.151815
      px      :     0.057684
      py      :     0.053903


---------------------------------
LOEWDIN BOND ORDERS (THRESH 0.050000)
---------------------------------
B(  0-C ,  1-C ) :   1.2887 B(  0-C ,  2-C ) :   0.1375 B(  0-C ,  5-H ) :   0.9046 
B(  0-C ,  6-H ) :   0.8984 B(  0-C ,  7-H ) :   0.9063 B(  0-C ,  8-H ) :   0.0732 
B(  0-C ,  9-H ) :   0.0735 B(  1-C ,  2-C ) :   1.1900 B(  1-C ,  3-O ) :   0.1760 
B(  1-C ,  4-O ) :   0.1180 B(  1-C ,  5-H ) :   0.0763 B(  1-C ,  6-H ) :   0.0838 
B(  1-C ,  7-H ) :   0.0765 B(  1-C ,  8-H ) :   0.8276 B(  1-C ,  9-H ) :   0.8240 
B(  2-C ,  3-O ) :   2.6730 B(  2-C ,  4-O ) :   1.7627 B(  2-C ,  8-H ) :   0.0909 
B(  2-C ,  9-H ) :   0.0931 B(  2-C , 10-H ) :   0.1056 B(  3-O ,  4-O ) :   0.1805 
B(  4-O , 10-H ) :   0.9770 

------------------------------------------
LOEWDIN REDUCED ORBITAL POPULATIONS PER MO
-------------------------------------------
THRESHOLD FOR PRINTING IS 0.1%%
                      0         1         2         3         4         5   
                 -21.72528 -21.65111 -12.18333 -12.07936 -12.07337  -1.76191
                   2.00000   2.00000   2.00000   2.00000   2.00000   2.00000
                  --------  --------  --------  --------  --------  --------
 0 C  s               0.0       0.0       0.0       1.0      98.6       0.1
 0 C  px              0.0       0.0       0.0       0.0       0.0       0.2
 1 C  s               0.0       0.0       0.0      98.4       1.0       0.6
 1 C  px              0.0       0.0       0.1       0.0       0.0       1.9
 1 C  dx2y2           0.0       0.0       0.1       0.0       0.0       0.3
 2 C  s               0.0       0.0      99.2       0.0       0.0      15.3
 2 C  pz              0.0       0.0       0.0       0.0       0.0       0.1
 2 C  px              0.0       0.0       0.0       0.1       0.0       5.3
 2 C  py              0.0       0.0       0.0       0.0       0.0       1.3
 2 C  dz2             0.0       0.0       0.0       0.0       0.0       1.6
 2 C  dyz             0.0       0.0       0.0       0.0       0.0       0.3
 2 C  dx2y2           0.0       0.0       0.0       0.1       0.0       1.5
 2 C  dxy             0.0       0.1       0.0       0.0       0.0       0.5
 2 C  f+3             0.0       0.1       0.0       0.0       0.0       0.9
 3 O  s               0.0      99.7       0.0       0.0       0.0      10.7
 3 O  px              0.0       0.0       0.0       0.0       0.0       0.4
 3 O  py              0.0       0.0       0.1       0.0       0.0       2.0
 3 O  dx2y2           0.0       0.0       0.0       0.0       0.0       0.1
 3 O  dxy             0.0       0.0       0.1       0.0       0.0       0.0
 4 O  s              99.8       0.0       0.0       0.0       0.0      43.9
 4 O  px              0.0       0.0       0.0       0.0       0.0       1.1
 4 O  py              0.0       0.0       0.1       0.0       0.0       0.8
10 H  s               0.0       0.0       0.0       0.0       0.0       8.1
10 H  px              0.0       0.0       0.0       0.0       0.0       0.7
10 H  py              0.0       0.0       0.0       0.0       0.0       1.4

                      6         7         8         9        10        11   
                  -1.69190  -1.31916  -1.21603  -1.16428  -1.05505  -1.04534
                   2.00000   2.00000   2.00000   2.00000   2.00000   2.00000
                  --------  --------  --------  --------  --------  --------
 0 C  s               0.0      17.7       8.2      14.4       0.6       0.2
 0 C  pz              0.0       0.2       0.0       0.1       0.2       0.3
 0 C  px              0.0       1.0       0.0       1.1       0.3       0.5
 0 C  py              0.0       3.3       0.1       2.4       1.9       3.3
 0 C  dz2             0.0       0.2       0.0       0.1       0.0       0.0
 0 C  dx2y2           0.0       0.2       0.0       0.0       0.1       0.6
 0 C  dxy             0.0       0.5       0.1       0.2       0.1       0.0
 1 C  s               0.1      27.8       0.0       5.4       1.4       3.0
 1 C  pz              0.0       0.2       0.1       0.3       0.1       0.3
 1 C  px              0.3       0.1       4.1       4.1       0.5       5.7
 1 C  py              0.4       1.9       1.6       6.8       0.1       2.0
 1 C  dz2             0.0       0.3       0.0       0.1       0.1       0.4
 1 C  dyz             0.0       0.1       0.0       0.1       0.0       0.0
 1 C  dx2y2           0.0       0.0       1.0       0.5       0.0       0.3
 1 C  dxy             0.4       0.2       0.5       0.2       0.6       0.0
 1 C  f+3             0.0       0.2       0.0       0.0       0.0       0.0
 2 C  s               4.3       4.7       8.7       0.5       2.0       1.3
 2 C  pz              0.3       0.0       0.1       0.3       0.1       0.0
 2 C  px              1.2      10.7       0.2      13.2       0.5       1.9
 2 C  py             22.9       0.5       4.0       1.8      10.8       1.8
 2 C  dz2             0.2       0.1       0.2       0.0       0.5       0.1
 2 C  dxz             0.1       0.0       0.0       0.0       0.0       0.1
 2 C  dx2y2           0.1       1.5       0.8       0.0       0.0       2.4
 2 C  dxy             5.5       0.0       0.8       0.0       0.6       1.7
 2 C  f-1             0.4       0.0       0.0       0.0       0.0       0.0
 2 C  f+3             0.1       0.0       0.0       0.0       0.0       0.0
 2 C  f-3             0.0       0.0       0.0       0.1       0.0       0.3
 3 O  s              41.6       1.0       4.3       0.0      12.5       0.1
 3 O  pz              0.0       0.0       0.1       0.0       0.2       0.0
 3 O  px              1.0       0.7       0.6       2.1      19.9       0.1
 3 O  py              2.5       0.3       5.8       0.4      36.0       0.6
 3 O  dz2             0.1       0.0       0.1       0.0       0.2       0.0
 3 O  dx2y2           0.0       0.0       0.1       0.2       0.0       0.0
 3 O  dxy             0.2       0.1       0.1       0.1       0.5       0.0
 4 O  s              13.0       0.8       1.3       0.0       0.0       5.8
 4 O  pz              0.0       0.0       0.8       0.2       0.1       0.2
 4 O  px              0.3       1.0       1.0       0.9       0.9      52.7
 4 O  py              0.9       1.1      35.3      16.1       4.4       0.4
 4 O  dz2             0.0       0.0       0.0       0.0       0.0       0.2
 4 O  dxy             0.0       0.1       1.1       0.2       0.1       0.0
 5 H  s               0.0       3.3       2.5       5.2       0.6       0.8
 5 H  pz              0.0       0.1       0.1       0.2       0.0       0.0
 5 H  py              0.0       0.2       0.1       0.2       0.0       0.0
 6 H  s               0.0       3.3       2.6       5.3       0.4       0.0
 6 H  px              0.0       0.3       0.2       0.5       0.0       0.0
 7 H  s               0.0       3.2       2.4       5.2       0.6       0.7
 7 H  pz              0.0       0.3       0.2       0.5       0.0       0.0
 8 H  s               0.0       5.2       0.0       2.4       0.6       3.2
 8 H  pz              0.0       0.1       0.0       0.1       0.0       0.2
 8 H  px              0.0       0.1       0.0       0.2       0.0       0.0
 8 H  py              0.0       0.3       0.0       0.1       0.0       0.1
 9 H  s               0.0       5.3       0.0       2.4       0.8       3.0
 9 H  pz              0.0       0.5       0.0       0.2       0.1       0.3
10 H  s               2.6       0.3       9.4       4.3       0.9       4.2
10 H  px              0.3       0.1       0.8       0.3       0.1       0.4
10 H  py              0.6       0.0       0.1       0.1       0.0       0.3

                     12        13        14        15        16        17   
                  -0.97963  -0.94680  -0.90806  -0.88237  -0.87999  -0.85344
                   2.00000   2.00000   2.00000   2.00000   2.00000   2.00000
                  --------  --------  --------  --------  --------  --------
 0 C  s               0.0       0.3       0.0       0.1       0.0       0.3
 0 C  pz              0.6       1.0      15.1       3.4      10.4       2.0
 0 C  px              0.0       0.1       0.1      21.3       9.1       1.4
 0 C  py              0.1       7.3       2.2       0.2       1.2      22.9
 0 C  dz2             0.0       0.1       0.0       0.0       0.1       0.1
 0 C  dxz             0.1       0.0       0.2       0.2       0.0       0.0
 0 C  dyz             0.0       0.1       0.0       0.0       0.0       0.1
 0 C  dx2y2           0.0       0.2       0.0       0.2       0.1       0.0
 0 C  dxy             0.0       0.0       0.0       0.1       0.2       0.2
 1 C  s               0.0       0.7       0.0       0.2       0.1       0.1
 1 C  pz              3.5       0.4      20.7       0.1       5.4       1.0
 1 C  px              0.0      17.6       0.4       2.6       0.9       4.1
 1 C  py              0.2       0.0       1.4      11.3       2.1      17.8
 1 C  dz2             0.0       0.2       0.0       0.0       0.0       0.4
 1 C  dxz             0.5       0.0       0.1       0.4       0.7       0.0
 1 C  dyz             0.0       0.0       0.0       0.0       0.3       0.1
 1 C  dx2y2           0.0       0.2       0.0       0.4       0.0       0.0
 1 C  dxy             0.0       0.2       0.0       0.0       0.1       1.0
 2 C  s               0.0       1.0       0.0       0.1       0.0       0.4
 2 C  pz             22.8       0.1       3.4       3.2       5.3       0.0
 2 C  px              0.2      11.4       0.0       0.3       0.1       0.5
 2 C  py              0.4       0.3       0.1       0.6       0.6       0.1
 2 C  dz2             0.1       0.0       0.3       0.1       0.0       0.0
 2 C  dxz             0.6       0.0       0.8       0.2       0.9       0.1
 2 C  dyz             1.1       0.0       2.5       2.3       2.3       0.2
 2 C  dx2y2           0.0       0.1       0.0       1.1       1.8       3.6
 2 C  dxy             0.0       1.4       0.1       1.6       0.9       0.0
 2 C  f0              0.3       0.0       0.0       0.0       0.0       0.0
 2 C  f-1             0.1       0.0       0.0       0.0       0.0       0.0
 2 C  f+2             0.1       0.0       0.1       0.0       0.1       0.1
 2 C  f-2             0.1       0.0       0.4       0.3       0.4       0.0
 2 C  f-3             0.0       1.2       0.0       0.0       0.1       1.2
 3 O  s               0.0       0.5       0.0       0.0       0.0       0.1
 3 O  pz              6.3       0.7      11.5      18.2      24.0       1.4
 3 O  px              0.1       9.8       0.1       4.9       6.9      23.2
 3 O  py              0.2      17.1       0.2       1.2       4.2       3.6
 3 O  dyz             0.3       0.0       0.0       0.0       0.1       0.0
 3 O  dx2y2           0.0       0.1       0.0       0.0       0.0       0.0
 4 O  s               0.0       1.4       0.0       0.1       0.0       0.1
 4 O  pz             57.7       0.0      16.8       2.1       4.3       0.0
 4 O  px              0.3      13.8       0.0       3.2       0.8       0.2
 4 O  py              1.1       0.5       0.3       0.8       0.1       0.6
 4 O  dxz             0.1       0.0       0.0       0.0       0.0       0.0
 4 O  dyz             0.1       0.0       0.1       0.1       0.1       0.0
 4 O  dx2y2           0.0       0.3       0.0       0.0       0.0       0.0
 4 O  dxy             0.0       0.2       0.0       0.0       0.0       0.0
 5 H  s               0.2       1.4       5.0       2.6       1.9       3.0
 5 H  pz              0.0       0.1       0.0       0.0       0.0       0.2
 5 H  px              0.0       0.0       0.0       0.1       0.2       0.1
 5 H  py              0.0       0.0       0.2       0.2       0.0       0.1
 6 H  s               0.0       0.0       0.0       9.8       5.1       0.3
 6 H  pz              0.0       0.0       0.2       0.1       0.1       0.0
 6 H  px              0.0       0.0       0.0       0.2       0.1       0.0
 6 H  py              0.0       0.1       0.0       0.0       0.0       0.4
 7 H  s               0.1       1.8       3.9       0.6       4.7       3.2
 7 H  pz              0.0       0.1       0.1       0.0       0.1       0.1
 7 H  px              0.0       0.0       0.0       0.3       0.1       0.1
 7 H  py              0.0       0.0       0.1       0.0       0.1       0.2
 8 H  s               0.4       1.7       5.9       3.9       0.1       2.2
 8 H  pz              0.0       0.1       0.0       0.1       0.1       0.1
 8 H  px              0.0       0.1       0.1       0.0       0.0       0.2
 8 H  py              0.0       0.1       0.2       0.0       0.0       0.0
 9 H  s               0.5       2.2       6.1       0.2       3.0       1.9
 9 H  pz              0.0       0.1       0.1       0.0       0.1       0.1
 9 H  px              0.0       0.2       0.1       0.0       0.0       0.1
 9 H  py              0.0       0.0       0.1       0.1       0.0       0.2
10 H  s               0.0       2.4       0.0       0.3       0.1       0.4
10 H  pz              1.3       0.0       0.4       0.1       0.2       0.0

                     18        19        20        21        22        23   
                  -0.82135  -0.80761  -0.30574  -0.13782  -0.08724  -0.06128
                   2.00000   2.00000   0.00000   0.00000   0.00000   0.00000
                  --------  --------  --------  --------  --------  --------
 0 C  s               0.0       0.0       0.0       1.9       3.4       4.0
 0 C  pz              0.7      19.4       0.0       0.0       0.2       0.6
 0 C  px             18.5       0.1       0.0       0.6       0.8       2.8
 0 C  py              6.4       1.3       0.1       0.0       0.9      12.2
 0 C  dz2             0.7       1.1       0.0       0.0       1.7       1.6
 0 C  dxz             0.0       0.0       0.0       0.0       0.0       0.4
 0 C  dyz             0.0       3.3       0.0       0.0       0.0       0.8
 0 C  dx2y2           2.3       0.3       0.0       0.0       3.7       0.9
 0 C  dxy             0.7       0.0       0.0       0.6       0.0       7.0
 0 C  f-2             0.0       0.2       0.0       0.0       0.0       0.1
 0 C  f+3             0.1       0.0       0.0       0.0       0.1       0.4
 0 C  f-3             0.1       0.0       0.0       0.0       0.0       0.0
 1 C  s               0.1       0.0       0.0       2.3       1.0       6.0
 1 C  pz              0.4      19.5       0.2       0.0       0.1       0.6
 1 C  px              7.9       0.1       0.0       4.1       5.0       0.1
 1 C  py              4.5       1.4       0.0       0.3       0.3       9.6
 1 C  dz2             0.3       1.2       0.6       0.0       1.0       3.2
 1 C  dxz             0.0       0.1       4.9       0.1       0.1       0.0
 1 C  dyz             0.0       2.8       0.1       0.1       0.0       1.4
 1 C  dx2y2           2.1       0.2       0.0       2.6       2.2       0.2
 1 C  dxy             0.9       0.1       0.1       1.7       0.3       7.7
 1 C  f0              0.0       0.1       0.2       0.0       0.0       0.0
 1 C  f+2             0.1       0.0       0.4       0.0       0.0       0.0
 1 C  f-2             0.0       0.2       0.0       0.0       0.0       0.1
 1 C  f+3             0.1       0.0       0.0       0.1       0.5       0.6
 1 C  f-3             0.1       0.0       0.0       0.1       0.0       0.2
 2 C  s               1.3       0.0       0.0      11.2       6.8       1.6
 2 C  pz              0.0       0.1      45.5       0.2       0.0       0.0
 2 C  px              4.3       0.0       0.3       2.4       1.1       2.1
 2 C  py              0.3       0.0       0.8       7.8       1.4       5.0
 2 C  dz2             0.0       0.0       0.0       6.3       3.1       1.0
 2 C  dxz             0.0       1.6       1.1       0.3       0.1       0.1
 2 C  dyz             0.1       0.1       0.8       0.5       0.1       0.0
 2 C  dx2y2           2.0       0.1       0.0       0.1       0.8       0.0
 2 C  dxy             1.2       0.0       0.0       1.0       0.0       5.7
 2 C  f0              0.0       0.0       0.8       0.0       0.0       0.0
 2 C  f-1             0.0       0.0       0.1       0.2       0.0       0.1
 2 C  f+2             0.0       0.2       0.2       0.1       0.0       0.0
 2 C  f-2             0.0       0.0       0.1       0.1       0.0       0.0
 2 C  f+3             0.0       0.0       0.0       2.9       0.6       0.5
 2 C  f-3             0.1       0.0       0.0       0.3       0.4       0.4
 3 O  s               0.1       0.0       0.0       0.9       0.3       1.9
 3 O  pz              0.2       3.3      25.3       0.1       0.0       0.0
 3 O  px              9.4       0.3       0.1       0.6       1.1       5.0
 3 O  py              1.5       0.1       0.4       3.8       0.2       0.8
 3 O  dz2             0.0       0.0       0.0       0.0       0.0       0.2
 3 O  dxz             0.0       0.0       0.7       0.0       0.0       0.0
 3 O  dyz             0.0       0.0       1.9       0.0       0.0       0.0
 3 O  dx2y2           0.1       0.0       0.1       1.2       0.0       0.2
 3 O  dxy             0.0       0.0       0.0       0.0       0.5       0.8
 3 O  f0              0.0       0.0       0.1       0.0       0.0       0.0
 3 O  f-2             0.0       0.0       0.1       0.0       0.0       0.0
 4 O  s               0.2       0.0       0.0      10.5       0.9       0.2
 4 O  pz              0.1       0.1       9.5       0.3       0.2       0.1
 4 O  px              1.7       0.0       0.1       9.8       1.3       0.0
 4 O  py              1.4       0.0       0.2       2.8      17.5       2.6
 4 O  dz2             0.0       0.0       0.1       1.4       0.1       0.0
 4 O  dxz             0.0       0.0       0.5       0.1       0.1       0.0
 4 O  dyz             0.0       0.0       1.2       0.2       0.0       0.0
 4 O  dx2y2           0.0       0.0       0.0       0.8       0.0       0.0
 4 O  dxy             0.1       0.0       0.0       0.8       4.8       0.8
 4 O  f+3             0.0       0.0       0.0       0.3       0.0       0.0
 5 H  s               4.7       9.9       0.0       1.0       2.1       0.0
 5 H  pz              0.2       0.0       0.0       0.1       0.1       0.1
 5 H  px              0.1       0.0       0.0       0.1       0.6       0.3
 5 H  py              0.0       0.2       0.0       0.2       0.3       0.3
 6 H  s              13.6       0.0       0.0       0.4       4.7       0.7
 6 H  pz              0.0       0.3       0.0       0.0       0.0       0.0
 6 H  px              0.2       0.0       0.0       0.1       1.1       0.5
 6 H  py              0.0       0.0       0.0       0.0       0.0       0.8
 7 H  s               3.5      10.9       0.0       0.6       1.0       0.1
 7 H  pz              0.1       0.1       0.0       0.2       0.1       0.0
 7 H  px              0.2       0.0       0.0       0.0       0.2       0.2
 7 H  py              0.0       0.1       0.0       0.0       0.0       0.5
 8 H  s               4.0       9.2       1.0       0.9       0.0       0.5
 8 H  pz              0.1       0.0       0.0       0.1       0.0       0.1
 8 H  px              0.0       0.1       0.0       0.4       0.2       0.1
 8 H  py              0.0       0.2       0.0       0.0       0.0       0.3
 9 H  s               2.4      11.1       1.4       0.6       0.0       0.3
 9 H  pz              0.1       0.1       0.0       0.1       0.0       0.0
 9 H  px              0.1       0.0       0.0       0.3       0.2       0.0
 9 H  py              0.0       0.1       0.0       0.0       0.0       0.6
10 H  s               0.0       0.0       0.0      10.0      19.1       3.4
10 H  pz              0.0       0.0       0.2       0.0       0.0       0.0
10 H  px              0.2       0.0       0.0       0.3       3.9       0.5
10 H  py              0.0       0.0       0.0       2.9       3.5       0.6

                     24        25        26        27        28        29   
                  -0.00840  -0.00177   0.00520   0.04111   0.04818   0.07521
                   0.00000   0.00000   0.00000   0.00000   0.00000   0.00000
                  --------  --------  --------  --------  --------  --------
 0 C  s               0.3      11.6       0.7       1.1       0.1       1.5
 0 C  pz              0.5       0.1      15.2       0.7       8.7       0.1
 0 C  px              7.3       1.1       0.0      16.0       0.1       7.7
 0 C  py              4.4       4.2       0.3       0.7       1.0       4.0
 0 C  dz2             0.1       3.4       3.0       4.8       0.2       0.3
 0 C  dxz             0.3       0.0       0.6       0.9       6.9       0.3
 0 C  dyz             0.1       1.5       7.9       0.5       0.4       0.8
 0 C  dx2y2           8.8       1.1       0.3       0.9       0.0       0.4
 0 C  dxy             0.1       0.4       0.0       1.6       1.3       0.0
 0 C  f0              0.1       0.1       0.2       0.0       0.0       0.1
 0 C  f+1             0.0       0.0       0.1       0.0       0.0       0.1
 0 C  f-1             0.1       0.2       0.0       0.0       0.1       0.0
 0 C  f+2             0.2       0.0       0.0       0.0       0.1       0.0
 0 C  f-2             0.0       0.1       0.2       0.0       0.0       0.0
 0 C  f+3             0.0       0.1       0.0       0.0       0.0       0.1
 0 C  f-3             0.2       0.0       0.0       0.1       0.0       0.0
 1 C  s               9.3       2.2       0.1       0.2       0.3       2.9
 1 C  pz              0.0       1.0      10.0       0.2      14.3       1.8
 1 C  px              6.7       0.9       0.3      10.3       0.6       5.1
 1 C  py              2.4       1.5       0.2       1.2       1.2       2.8
 1 C  dz2             0.9       1.2       4.0       3.4       1.8       0.1
 1 C  dxz             0.0       0.0       0.0       1.0       2.4       0.6
 1 C  dyz             0.2       0.3       6.3       1.8       1.2       0.1
 1 C  dx2y2           5.0       2.9       0.0       2.0       0.0       3.0
 1 C  dxy             0.9       0.0       0.0       1.1       0.8       0.8
 1 C  f0              0.2       0.0       0.1       0.0       0.1       0.0
 1 C  f+1             0.0       0.1       0.0       0.1       0.0       0.3
 1 C  f-1             0.2       0.0       0.0       0.0       0.1       0.0
 1 C  f+2             0.1       0.0       0.0       0.0       0.0       0.0
 1 C  f-2             0.0       0.0       0.2       0.0       0.0       0.0
 1 C  f+3             0.0       0.0       0.0       0.0       0.0       0.1
 1 C  f-3             0.0       0.0       0.0       0.3       0.0       0.0
 2 C  s               1.1       0.2       0.0       1.8       0.3       0.6
 2 C  pz              0.0       0.2       1.4       0.1       1.3       0.2
 2 C  px              1.3       4.5       0.6       5.4       1.4      13.3
 2 C  py              0.7       1.2       0.1       0.5       0.0       0.7
 2 C  dz2             0.2       0.1       0.1       0.2       0.1       0.5
 2 C  dxz             0.1       0.1       0.3       0.0       1.7       0.3
 2 C  dyz             0.0       0.0       0.1       0.2       0.1       0.1
 2 C  dx2y2           0.3       0.8       0.1       0.8       0.5       2.5
 2 C  dxy             0.6       0.0       0.0       0.0       0.4       1.2
 2 C  f0              0.0       0.0       0.1       0.0       0.1       0.1
 2 C  f+1             0.0       0.1       0.0       0.1       0.0       0.4
 2 C  f-2             0.0       0.0       0.0       0.0       0.2       0.0
 3 O  s               0.1       0.1       0.0       0.4       0.2       1.7
 3 O  pz              0.0       0.1       0.2       0.1       0.8       0.2
 3 O  px              0.1       0.5       0.1       0.2       0.1       0.1
 3 O  py              0.4       0.6       0.1       0.3       0.6       3.1
 3 O  dz2             0.0       0.0       0.0       0.0       0.0       0.2
 3 O  dyz             0.0       0.1       0.0       0.0       0.1       0.1
 3 O  dx2y2           0.0       0.5       0.1       0.3       0.1       1.3
 3 O  dxy             0.2       0.1       0.0       0.2       0.0       0.0
 4 O  s               0.1       1.7       0.0       0.4       0.1       0.1
 4 O  pz              0.0       0.0       0.4       0.0       0.9       0.1
 4 O  px              0.0       0.4       0.0       0.9       0.1       1.7
 4 O  py              1.8       0.3       0.2       0.1       0.0       5.5
 4 O  dz2             0.0       0.6       0.0       0.0       0.0       0.0
 4 O  dyz             0.0       0.1       0.0       0.0       0.2       0.0
 4 O  dx2y2           0.0       0.6       0.0       0.5       0.1       1.4
 4 O  dxy             0.2       0.0       0.0       0.1       0.0       0.4
 5 H  s               2.9      16.1       5.5       0.6       6.7       3.9
 5 H  pz              0.2       3.5       0.1       0.5       0.3       0.9
 5 H  px              0.0       0.2       0.1       0.5       0.7       0.2
 5 H  py              1.3       2.4       1.5       0.0       1.1       0.3
 6 H  s               4.9       3.4       0.2      20.3       0.1       7.0
 6 H  pz              0.1       0.0       0.6       0.1       1.0       0.0
 6 H  px              1.2       0.7       0.0       6.0       0.0       2.8
 6 H  py              0.0       0.3       0.0       0.1       0.2       0.1
 7 H  s               0.1      10.7      15.4       1.2       8.5       0.8
 7 H  pz              0.1       4.3       3.7       0.4       1.5       0.5
 7 H  px              0.3       0.0       0.3       0.7       0.6       0.0
 7 H  py              0.1       0.0       1.3       0.0       0.5       0.2
 8 H  s              13.3       1.6       3.5       3.5      11.9       1.4
 8 H  pz              1.8       0.5       0.0       1.2       0.3       0.3
 8 H  px              0.1       0.1       0.2       0.1       1.4       0.8
 8 H  py              2.9       0.0       1.0       0.4       2.3       0.1
 9 H  s               8.6       4.5       9.6       0.7       8.8       5.4
 9 H  pz              3.1       1.2       2.3       0.5       1.5       1.8
 9 H  px              0.0       0.2       0.0       0.6       0.3       1.0
 9 H  py              0.1       0.0       0.8       0.1       0.5       0.0
10 H  s               2.2       2.1       0.1       0.3       0.0       2.1
10 H  pz              0.0       0.0       0.0       0.0       0.3       0.0
10 H  px              0.0       0.1       0.0       0.2       0.0       1.1
10 H  py              0.7       0.4       0.0       0.1       0.0       0.5

                     30        31        32        33        34        35   
                   0.09930   0.16343   0.16881   0.18455   0.20581   0.21655
                   0.00000   0.00000   0.00000   0.00000   0.00000   0.00000
                  --------  --------  --------  --------  --------  --------
 0 C  s               0.1       0.3       0.0       0.3       0.2       0.4
 0 C  pz              0.9       3.4      26.1       0.0      23.3       0.5
 0 C  px              2.0       0.5       0.3       0.4       3.2       2.7
 0 C  py              6.6      19.0       3.1      11.9       0.7       7.0
 0 C  dz2             3.6       0.9       2.6       1.1       0.0       1.6
 0 C  dxz             0.4       0.0       1.3       0.1       7.9       0.0
 0 C  dyz             1.9       0.3       4.8       0.3       0.0       0.1
 0 C  dx2y2           1.5       1.0       0.2       0.0       0.0       1.6
 0 C  dxy             2.3       0.2       0.8       0.3       0.1       0.0
 0 C  f+2             0.0       0.0       0.2       0.0       0.0       0.0
 0 C  f-2             0.1       0.0       0.1       0.0       0.0       0.0
 1 C  s               0.3       0.8       0.0       1.1       0.1       0.9
 1 C  pz              0.1       1.0       8.2       0.9       4.8       0.4
 1 C  px              2.9       7.8       0.0       5.2       0.7      19.8
 1 C  py             10.8      14.7       0.6       7.9       1.2       2.4
 1 C  dz2             0.3       1.9       1.5       3.0       0.1       1.3
 1 C  dxz             0.0       0.1       0.0       0.0       0.9       0.2
 1 C  dyz             0.7       2.0       4.5       1.6       0.2       0.3
 1 C  dx2y2           0.4       0.4       0.5       1.9       0.0       0.7
 1 C  dxy             0.6       0.3       0.0       0.3       0.0       0.0
 1 C  f+2             0.0       0.0       0.0       0.0       0.2       0.0
 1 C  f+3             0.0       0.2       0.0       0.0       0.0       0.0
 1 C  f-3             0.5       0.0       0.0       0.2       0.0       0.0
 2 C  s               4.9      10.9       1.0      10.9       0.3       0.4
 2 C  pz              0.3       0.1       9.1       0.3      34.9       0.5
 2 C  px              2.6       7.8       0.1      11.6       0.4      12.8
 2 C  py             16.0       5.3       0.3       4.3       2.0       0.6
 2 C  dz2             3.2       2.2       0.3       0.3       0.0       1.6
 2 C  dxz             0.0       0.1       0.1       0.0       0.3       0.1
 2 C  dyz             0.3       0.3       0.4       0.0       0.0       0.0
 2 C  dx2y2           0.2       0.8       0.0       1.6       0.1       1.6
 2 C  dxy             3.6       0.0       0.1       1.4       0.0       0.0
 2 C  f+1             0.0       0.0       0.0       0.0       0.0       0.3
 2 C  f-1             0.7       0.0       0.0       0.1       0.0       0.0
 2 C  f+3             0.5       0.0       0.0       0.0       0.0       0.3
 3 O  s               6.3       0.1       0.0       0.6       0.2       0.0
 3 O  pz              0.0       0.1       0.1       0.2       2.3       0.1
 3 O  px              2.5       2.7       0.1       1.8       0.0       3.3
 3 O  py              2.0       0.3       0.1       6.2       0.5       0.3
 3 O  dz2             0.2       0.2       0.0       0.9       0.0       0.1
 3 O  dyz             0.0       0.0       0.2       0.0       0.3       0.0
 3 O  dx2y2           0.0       0.4       0.0       1.1       0.0       0.1
 3 O  dxy             1.3       0.0       0.0       2.0       0.0       0.1
 3 O  f+3             0.1       0.0       0.0       0.1       0.0       0.0
 4 O  s               0.1       0.9       0.0       1.0       0.0       1.3
 4 O  pz              0.0       0.3       3.9       0.1       5.1       0.3
 4 O  px              2.1       1.4       0.0       3.3       0.4      14.6
 4 O  py              1.2       0.5       0.2       0.3       0.8       2.2
 4 O  dz2             0.2       0.8       0.1       0.6       0.0       0.0
 4 O  dyz             0.0       0.2       0.1       0.1       0.2       0.0
 4 O  dx2y2           0.1       0.8       0.1       1.3       0.0       0.5
 4 O  dxy             1.5       0.4       0.0       0.6       0.1       0.1
 5 H  s               0.8       0.4       8.2       1.6       0.6       0.8
 5 H  pz              0.9       0.1       0.3       0.0       0.4       0.0
 5 H  px              0.1       0.0       0.0       0.0       0.1       0.2
 5 H  py              0.0       0.5       0.1       0.2       0.8       0.0
 6 H  s               1.9       0.5       0.2       0.3       0.2       3.8
 6 H  pz              0.1       0.0       0.6       0.0       0.9       0.0
 6 H  px              0.3       0.2       0.0       0.0       0.0       0.1
 6 H  py              0.5       0.0       0.1       0.1       0.0       0.2
 7 H  s               1.4       1.3       7.9       0.7       1.2       0.5
 7 H  pz              0.7       0.1       0.1       0.0       0.4       0.0
 7 H  px              0.1       0.0       0.0       0.0       0.6       0.2
 7 H  py              0.4       0.4       0.3       0.1       0.1       0.0
 8 H  s               3.6       1.2       4.4       0.1       0.4       2.2
 8 H  pz              0.7       0.0       0.1       0.7       0.1       0.1
 8 H  px              0.1       0.0       0.0       0.0       0.1       0.2
 8 H  py              0.0       0.8       0.2       0.3       0.2       0.0
 9 H  s               0.8       0.5       5.1       0.5       0.1       1.5
 9 H  pz              0.2       0.2       0.0       0.2       0.4       0.1
 9 H  px              0.0       0.0       0.0       0.0       0.4       0.4
[...]
 4 O  s               0.0       2.1       0.0       0.2       0.0       0.0
 4 O  pz              0.0       0.0       0.1       0.0       0.0       1.1
 4 O  px              0.0       0.8       0.0       0.1       0.1       0.0
 4 O  py              0.0       0.0       0.0       0.5       0.2       0.0
 4 O  dz2             0.0       4.8       0.2       4.8       1.6       4.5
 4 O  dxz            24.2       0.1      43.6       0.8       0.4      11.4
 4 O  dyz             8.2       0.2       5.9       0.0       0.5      55.6
 4 O  dx2y2           0.6       0.1       0.9       3.8      28.5       1.0
 4 O  dxy             0.2       0.1       0.5       0.1       4.8       0.7
 4 O  f0              0.1       0.0       2.6       0.0       0.1       3.3
 4 O  f+1             0.0       0.9       0.3       0.0       0.2       0.6
 4 O  f-1             0.1       1.2       0.2       0.1       1.2       1.5
 4 O  f+2             0.4       0.1       0.6       0.0       0.1       1.9
 4 O  f-2             3.0       0.5       0.4       0.0       0.0       7.8
 4 O  f+3             0.0      10.1       0.0       1.7       0.0       0.3
 4 O  f-3             0.0       4.2       0.0       0.0       2.1       0.0
10 H  s               0.0       0.8       0.0       0.2       0.0       0.0
10 H  pz              0.2       0.0       0.2       0.0       0.0       0.0
10 H  px              0.0       0.4       0.0       0.1       0.0       0.0
10 H  py              0.0       0.0       0.0       0.0       0.1       0.0

                    180       181       182       183       184       185   
                   6.33879   6.40239   6.49305   6.62449   6.66808   6.87802
                   0.00000   0.00000   0.00000   0.00000   0.00000   0.00000
                  --------  --------  --------  --------  --------  --------
 1 C  s               0.0       0.0       0.0       0.0       0.1       0.4
 1 C  px              0.0       0.0       0.0       0.0       0.1       0.1
 1 C  dxy             0.1       0.0       0.0       0.0       0.2       0.2
 1 C  f+3             0.0       0.0       0.0       0.0       0.1       0.1
 1 C  f-3             0.1       0.0       0.0       0.0       0.1       0.1
 2 C  s               0.7       0.0       0.2       2.8       1.8       0.5
 2 C  pz              0.0       1.4       0.0       0.0       0.0       0.0
 2 C  px              0.3       0.0       0.4       1.2       0.8       0.0
 2 C  py              0.5       0.0       1.5       0.7       0.1       0.2
 2 C  dz2             0.0       0.1       0.1       0.1       0.1       0.1
 2 C  dxz             0.0       0.7       0.0       0.0       0.0       0.1
 2 C  dyz             0.0       2.8       0.0       0.1       0.1       0.0
 2 C  dx2y2           0.2       0.1       0.2       2.0       2.6       0.9
 2 C  dxy             1.1       0.0       0.1       0.1       2.2       1.4
 2 C  f0              0.0       0.1       0.1       0.0       0.0       0.0
 2 C  f+1             0.0       0.0       0.0       0.0       0.2       0.0
 2 C  f-1             0.0       0.0       0.7       0.1       0.0       0.0
 2 C  f+2             0.1       0.0       0.1       0.0       0.1       0.2
 2 C  f-2             0.1       0.4       0.0       0.1       0.0       0.1
 2 C  f+3             0.0       0.0       0.1       2.3       0.5       0.0
 2 C  f-3             3.6       0.0       0.1       0.2       3.6       5.2
 3 O  s               0.3       0.0       0.5       1.1       0.4       0.1
 3 O  pz              0.0       2.2       0.0       0.1       0.0       0.0
 3 O  px              0.2       0.0       0.3       0.3       3.2       0.1
 3 O  py              0.2       0.0       0.4       2.2       0.3       0.3
 3 O  dz2             1.5       1.0       4.4      10.2       5.3       0.3
 3 O  dxz             0.1      18.0       0.0       0.2       0.0       0.1
 3 O  dyz             0.5      44.4       0.0       1.9       0.1       0.2
 3 O  dx2y2           1.7       1.2       0.6      37.0       8.5       1.4
 3 O  dxy             2.8       0.0      16.6       7.1      24.8       2.4
 3 O  f0              0.0       8.1       0.0       0.3       0.0       0.0
 3 O  f+1             0.4       0.2       0.0       0.3       2.9       0.1
 3 O  f-1             0.3       0.9       0.3       4.0       0.4       0.0
 3 O  f+2             0.0       3.3       0.0       0.6       0.3       0.0
 3 O  f-2             0.0      11.5       0.0       0.1       0.0       0.1
 3 O  f+3             0.3       0.1       3.3       2.7       1.0       1.8
 3 O  f-3             2.6       0.4       0.1       6.2      23.4       3.2
 4 O  s               2.6       0.0       0.5       0.2       0.4       3.1
 4 O  px              4.0       0.0       0.2       0.2       0.0       0.0
 4 O  py              1.2       0.0       2.8       0.3       0.8       0.3
 4 O  dz2            45.0       0.1       1.8       1.1       0.0       3.5
 4 O  dxz             1.3       1.8       0.3       0.0       0.1       0.4
 4 O  dyz             2.0       0.1       1.9       0.7       0.1       0.3
 4 O  dx2y2           2.9       0.1      24.0      10.5       0.4      16.1
 4 O  dxy             0.8       0.2      32.1       1.9      10.1      21.4
 4 O  f0              0.1       0.1       0.2       0.1       0.0       0.1
 4 O  f+1             7.1       0.0       0.6       0.0       0.0       0.6
 4 O  f-1             0.5       0.1       3.0       0.5       0.5       1.5
 4 O  f+2             0.2       0.1       0.2       0.0       0.2       0.4
 4 O  f-2             1.2       0.4       0.1       0.0       0.1       0.0
 4 O  f+3             7.5       0.0       0.4       0.2       3.1       9.9
 4 O  f-3             2.0       0.0       0.3       0.1       0.5      16.5
10 H  s               3.0       0.0       1.1       0.1       0.0       5.5
10 H  px              0.2       0.0       0.0       0.0       0.0       0.2
10 H  py              0.2       0.0       0.1       0.0       0.0       0.3

                    186       187       188       189       190   
                  20.71537  20.85128  21.60384  41.41810  41.47742
                   0.00000   0.00000   0.00000   0.00000   0.00000
                  --------  --------  --------  --------  --------
 0 C  s              96.2       1.6       0.6       0.0       0.0
 1 C  s               1.6      96.8       0.0       0.0       0.0
 1 C  py              0.1       0.1       0.0       0.0       0.0
 2 C  s               0.6       0.1      95.1       0.0       0.0
 2 C  px              0.0       0.1       0.4       0.0       0.0
 2 C  dz2             0.0       0.0       0.2       0.0       0.0
 2 C  dx2y2           0.0       0.1       0.1       0.0       0.0
 3 O  s               0.0       0.0       1.1       0.4      99.5
 3 O  px              0.0       0.0       0.2       0.0       0.0
 3 O  py              0.0       0.0       0.5       0.0       0.0
 4 O  s               0.0       0.0       0.5      99.5       0.4
 4 O  px              0.0       0.0       0.1       0.0       0.0
 4 O  py              0.0       0.0       0.4       0.0       0.0
 4 O  dxy             0.0       0.0       0.1       0.0       0.0
 5 H  s               0.2       0.0       0.0       0.0       0.0
 6 H  s               0.2       0.0       0.0       0.0       0.0
 6 H  px              0.1       0.0       0.0       0.0       0.0
 7 H  s               0.2       0.0       0.0       0.0       0.0
 7 H  pz              0.1       0.0       0.0       0.0       0.0
 8 H  s               0.0       0.2       0.0       0.0       0.0
 9 H  s               0.0       0.2       0.0       0.0       0.0


                      *****************************
                      * MAYER POPULATION ANALYSIS *
                      *****************************

  NA   - Mulliken gross atomic population
  ZA   - Total nuclear charge
  QA   - Mulliken gross atomic charge
  VA   - Mayer's total valence
  BVA  - Mayer's bonded valence
  FA   - Mayer's free valence

  ATOM       NA         ZA         QA         VA         BVA        FA
  0 C      6.4287     6.0000    -0.4287     3.8998     3.8998    -0.0000
  1 C      6.1495     6.0000    -0.1495     3.7477     3.7477    -0.0000
  2 C      5.7432     6.0000     0.2568     4.3774     4.3774    -0.0000
  3 O      8.3254     8.0000    -0.3254     2.1811     2.1811     0.0000
  4 O      8.3324     8.0000    -0.3324     2.1059     2.1059     0.0000
  5 H      0.8793     1.0000     0.1207     0.9684     0.9684    -0.0000
  6 H      0.8663     1.0000     0.1337     0.9807     0.9807     0.0000
  7 H      0.8579     1.0000     0.1421     0.9620     0.9620    -0.0000
  8 H      0.8674     1.0000     0.1326     0.9808     0.9808     0.0000
  9 H      0.8695     1.0000     0.1305     0.9727     0.9727    -0.0000
 10 H      0.6804     1.0000     0.3196     0.9179     0.9179    -0.0000

  Mayer bond orders larger than 0.100000
B(  0-C ,  1-C ) :   0.9361 B(  0-C ,  5-H ) :   0.9722 B(  0-C ,  6-H ) :   0.9698 
B(  0-C ,  7-H ) :   0.9759 B(  1-C ,  2-C ) :   0.9828 B(  1-C ,  8-H ) :   0.9532 
B(  1-C ,  9-H ) :   0.9447 B(  2-C ,  3-O ) :   2.1245 B(  2-C ,  4-O ) :   1.2072 
B(  4-O , 10-H ) :   0.8750 

-------
TIMINGS
-------

Total SCF time: 0 days 0 hours 0 min 53 sec 

Total time                  ....      53.527 sec
Sum of individual times     ....      52.101 sec  ( 97.3%)

SCF preparation             ....       0.191 sec  (  0.4%)
Fock matrix formation       ....      51.000 sec  ( 95.3%)
  Startup                   ....       0.049 sec  (  0.1% of F)
  Split-RI-J                ....       1.988 sec  (  3.9% of F)
  Chain of spheres X        ....      41.410 sec  ( 81.2% of F)
  XC integration            ....       7.989 sec  ( 15.7% of F)
    XC Preparation          ....       0.000 sec  (  0.0% of XC)
    Basis function eval.    ....       1.823 sec  ( 22.8% of XC)
    Density eval.           ....       1.382 sec  ( 17.3% of XC)
    XC-Functional eval.     ....       1.715 sec  ( 21.5% of XC)
    XC-Potential eval.      ....       2.142 sec  ( 26.8% of XC)
Diagonalization             ....       0.000 sec  (  0.0%)
Density matrix formation    ....       0.174 sec  (  0.3%)
Total Energy calculation    ....       0.039 sec  (  0.1%)
Population analysis         ....       0.093 sec  (  0.2%)
Orbital Transformation      ....       0.055 sec  (  0.1%)
Orbital Orthonormalization  ....       0.000 sec  (  0.0%)
DIIS solution               ....       0.251 sec  (  0.5%)
  MO trafo                  ....       0.000 sec  (  0.0 % of DIIS)
  Orb grad                  ....       0.000 sec  (  0.0 % of DIIS)
  Energy W gradient         ....       0.000 sec  (  0.0 % of DIIS)
  DIIS error                ....       0.005 sec  (  2.1 % of DIIS)
  DIIS work                 ....       0.209 sec  ( 83.4 % of DIIS)
  Form Q                    ....       0.000 sec  (  0.0 % of DIIS)
  Form QpQm                 ....       0.000 sec  (  0.0 % of DIIS)
  Exp/Cayley                ....       0.000 sec  (  0.0 % of DIIS)
  Orb update                ....       0.000 sec  (  0.0 % of DIIS)
  Wake-sleep                ....       0.010 sec  (  4.2 % of DIIS)
SOSCF solution              ....       0.188 sec  (  0.4%)
  MO trafo                  ....       0.070 sec  ( 37.2 % of SOSCF)
  Orb grad                  ....       0.003 sec  (  1.6 % of SOSCF)
  Rot update                ....       0.068 sec  ( 36.0 % of SOSCF)
  Step                      ....       0.047 sec  ( 25.2 % of SOSCF)
Grid generation             ....       0.109 sec  (  0.2%)
Finished LeanSCF after  53.6 sec

Maximum memory used throughout the entire LEANSCF-calculation: 20.8 MB
------------------   -----------------
gCP correction             0.007386232
------------------   -----------------

-------------------------   --------------------
FINAL SINGLE POINT ENERGY      -268.409689513701
-------------------------   --------------------


------------------------------------------------------------------------------
                              ORCA PROPERTY CALCULATIONS
------------------------------------------------------------------------------

GBWName                                 ... sp_gas.gbw
Number of atoms                         ...     11
Number of basis functions               ...    191
Max core memory                         ...   1024 MB

Electric properties:
Dipole moment                           ... YES
Quadrupole moment                       ...  NO
Static polarizability (Dipole/Dipole)   ...  NO
Static polarizability (Dipole/Quad.)    ...  NO
Static polarizability (Quad./Quad.)     ...  NO
Static polarizability (Velocity)        ...  NO

Atomic electric properties:
Dipole moment                           ...  NO
Quadrupole moment                       ...  NO
Static polarizability                   ...  NO

Choice of electric origin               ... Center of mass
Position of electric origin             ...    -0.013618    -0.004658    -0.033225

General magnetic properties:
Magnetizability                         ...  NO

EPR properties:
g-Tensor (aka g-matrix)                 ...  NO
Zero-Field splitting spin-orbit         ...  NO
Zero-field splitting spin-spin          ...  NO
Hyperfine couplings                     ...  NO (   0 nuclei)
Quadrupole couplings                    ...  NO (   0 nuclei)
Contact density                         ...  NO (   0 nuclei)

NMR properties:
Chemical shifts                         ...  NO (   0 nuclei)
Spin-rotation constants                 ...  NO (   0 nuclei)
Spin-spin couplings                     ...  NO (   0 nuclei,    0 pairs)

Choice of magnetic origin               ... GIAO
Position of magnetic origin             ...     0.000000     0.000000     0.000000

Properties with geometric perturbations:
SCF Hessian                             ...  NO
IR spectrum                             ...  NO
VCD spectrum                            ...  NO
X-ray spectroscopy properties:
SCF XES/XAS/RIXS spectra                ...  NO


-------------
DIPOLE MOMENT
-------------

Method             : SCF
Type of density    : Electron Density
Multiplicity       :   1
Irrep              :   0
Energy             :  -268.4170757455010516 Eh
Relativity type    : 
Basis              : AO
                                X                 Y                 Z
Electronic contribution:     -5.780546860       2.696855006      -0.157625855
Nuclear contribution   :      7.292783865      -3.897003400       0.199672146
                        -----------------------------------------
Total Dipole Moment    :      1.512237005      -1.200148394       0.042046290
                        -----------------------------------------
Magnitude (a.u.)       :      1.931057953
Magnitude (Debye)      :      4.908359243



--------------------
Rotational spectrum 
--------------------
 
Rotational constants in cm-1:             0.322879             0.130499             0.096519 
Rotational constants in MHz :          9679.665049          3912.251721          2893.556220 

Dipole components along the rotational axes: 
x,y,z [a.u.] :     1.912832    -0.248503    -0.091125 
x,y,z [Debye]:     4.862033    -0.631644    -0.231622 

 

Dipole moment calculation done in   0.0 sec 

Maximum memory used throughout the entire PROP-calculation: 12.3 MB

--------------------------------
SUGGESTED CITATIONS FOR THIS RUN
--------------------------------

Below you find a list of papers that are relevant to this ORCA run
We neither can nor want to force you to cite these papers, but we appreciate if you do
You receive ORCA, which is the product of decades of hard work by many enthusiastic individuals, for free
The only thing we kindly ask in return is that you cite our papers,
We deeply appreciate it, if you show your appreciation for ORCA by not just citing the generic ORCA reference.

Please note that relegating all ORCA citations to the supporting information does *not* help us.
SI sections are not indexed - citations you put there will not count into any citation statistics
But we need these citations in order to attract the funding resources that allow us to do what we are doing

Therefore, if you are a happy ORCA user, please consider citing a few of the papers listed below in the main body of your paper

In addition to the list printed below, the program has created the file sp_gas.bibtex that contains the list in bibtex format
You can import this file easily into all common literature databanks and citation aid programs


List of essential papers. We consider these as the minimum necessary citations

  1. Neese,F.
     Software update: the ORCA program system, version 5.0
     WIRES Comput. Molec. Sci., 2022 12(1)e1606
     doi.org/10.1002/wcms.1606

List of papers to cite with high priority. The work reported in these papers was absolutely
necessary for this run to complete.
Our perspective: the developers of density functionals and basis sets usually get cited in chemistry papers
Good! But without the algorithms to do something with them, the functionals or basis sets would not do anything.
Hence, in our opinion, the algorithm design and method developments papers are equally worthy of getting cited

  1. Neese,F.
     An improvement of the resolution of the identity approximation for the formation of the Coulomb matrix
     J. Comp. Chem., 2003 24(14)1740-1747
     doi.org/10.1002/jcc.10318
  2. Neese,F.; Wennmohs,F.; Hansen,A.; Becker,U.
     Efficient, approximate and parallel Hartree-Fock and hybrid DFT calculations. A 'chain-of-spheres' algorithm for the Hartree-Fock exchange
     Chem. Phys., 2009 356(1-3)98-109
     doi.org/10.1016/j.chemphys.2008.10.036
  3. Helmich-Paris,B.; de Souza,B.; Neese,F.; Izsák,R.
     An improved chain of spheres for exchange algorithm
     J. Chem. Phys., 2021 155 104109
     doi.org/doi: 10.1063/5.0058766.
  4. Neese,F.
     The SHARK Integral Generation and Digestion System
     J. Comp. Chem., 2022  1-16
     doi.org/10.1002/jcc.26942

List of suggested additional citations. These are papers that are important in the 'surrounding' of 
of this run, or papers that preceded the highly important papers. If you like your results we are grateful for a citation.

  1. Izsak,R.; Neese,F.
     An overlap fitted chain of spheres exchange method
     J. Chem. Phys., 2011 135 144105
     doi.org/10.1063/1.3646921
  2. Izsak,R.; Hansen,A.; Neese,F.
     The resolution of identity and chain of spheres approximations for the LPNO-CCSD singles Fock term
     Molec. Phys., 2012 110 2413-2417
     doi.org/10.1080/00268976.2012.687466
  3. Neese,F.
     The ORCA program system
     WIRES Comput. Molec. Sci., 2012 2(1)73-78
     doi.org/10.1002/wcms.81
  4. Izsak,R.; Neese,F.; Klopper,W.
     Robust fitting techniques in the chain of spheres approximation to the Fock exchange: The role of the complementary space
     J. Chem. Phys., 2013 139 
     doi.org/10.1063/1.4819264
  5. Neese,F.
     Software update: the ORCA program system, version 4.0
     WIRES Comput. Molec. Sci., 2018 8(1)1-6
     doi.org/10.1002/wcms.1327
  6. Neese,F.; Wennmohs,F.; Becker,U.; Riplinger,C.
     The ORCA quantum chemistry program package
     J. Chem. Phys., 2020 152 Art. No. L224108
     doi.org/10.1063/5.0004608

List of optional additional citations

  1. Neese,F.
     Approximate second-order SCF convergence for spin unrestricted wavefunctions
     Chem. Phys. Lett., 2000 325(1-3)93-98
     doi.org/10.1016/s0009-2614(00)00662-x

Timings for individual modules:

Sum of individual times          ...       55.271 sec (=   0.921 min)
Startup calculation              ...        1.247 sec (=   0.021 min)   2.3 %
SCF iterations                   ...       53.913 sec (=   0.899 min)  97.5 %
Property calculations            ...        0.110 sec (=   0.002 min)   0.2 %
                             ****ORCA TERMINATED NORMALLY****
TOTAL RUN TIME: 0 days 0 hours 0 minutes 55 seconds 911 msec
