16
 energy: -271.709052751793 gnorm: 0.029514329110 xtb: 6.7.1 (edcfbbe)
C            1.45282435584378        0.41043160248187        1.17656335232137
C            0.68472519120342        0.44027057319510       -0.13938003476176
C            1.39715346121912       -0.40390145467898       -1.20379587243343
C           -0.76883901454069        0.00122033930054       -0.06119399832712
O           -1.44579197894067       -0.06129821582716       -1.07216705697511
C           -1.33674630309235       -0.33406097284803        1.28316302396860
H            0.98848167523802        1.04504667686309        1.92522630595312
H            1.52237352437460       -0.60249933436698        1.56387790149300
H            2.46315799989149        0.77418850514306        1.00586105204572
H            0.64857873508740        1.47372683255305       -0.50733612212481
H            1.50174902216546       -1.43070313203398       -0.86004675048111
H            2.38544597435705       -0.00099815420044       -1.40575898432293
H            0.82069975276367       -0.40542424477965       -2.12594435634206
H           -2.37216934765117       -0.64621639658636        1.17593924572109
H           -1.28284508896846        0.53747408783817        1.93017001085531
H           -0.75556788633481       -1.12959328840055        1.74105469907151
16
 energy: -271.709781856781 gnorm: 0.008003764260 xtb: 6.7.1 (edcfbbe)
C            1.45448283695457        0.41528492525230        1.17461353402404
C            0.68765191959787        0.43731148250882       -0.14507183083873
C            1.39936630482837       -0.40588703758527       -1.21373596059191
C           -0.77088996863790        0.00692597908531       -0.05332126194580
O           -1.45238535615209       -0.05432659930286       -1.07096623761165
C           -1.34972597716420       -0.33645051558375        1.28550854427927
H            0.99197254150518        1.04993404585553        1.93312689470623
H            1.52718666721578       -0.60174422736285        1.56824515914215
H            2.47047728301406        0.78061952412441        1.00698105132327
H            0.64384538526647        1.47359531249726       -0.51054201791823
H            1.50471298300509       -1.43866412993106       -0.86863432015156
H            2.39626899813872       -0.00374784982177       -1.40494887527133
H            0.83902332081277       -0.40794567219002       -2.15058999227056
H           -2.38866235161764       -0.65036885402958        1.18081539272048
H           -1.28905340009712        0.53462322285140        1.94393287003673
H           -0.76104106786655       -1.13149587732462        1.75081891428048
16
 energy: -271.709869973655 gnorm: 0.002317116652 xtb: 6.7.1 (edcfbbe)
C            1.45812030898482        0.41634806790271        1.17032627510908
C            0.68608759259324        0.43494689085163       -0.14732366305077
C            1.40136298126881       -0.40644586096077       -1.21526955821904
C           -0.77237974910456        0.00101534682885       -0.05078001172171
O           -1.45945603510675       -0.04917304615344       -1.06926674730470
C           -1.35621262219627       -0.33680645870072        1.28640570298562
H            0.99416088148899        1.05053971125602        1.93130073304738
H            1.53537268822056       -0.60104475088921        1.56893586779122
H            2.47514932023242        0.78557830421238        1.00433374714997
H            0.63509305018447        1.47235414745475       -0.51179302616012
H            1.50445300604841       -1.44352056745469       -0.87537304723348
H            2.40357689601355       -0.00607633150285       -1.39570228126278
H            0.85353208931360       -0.40300529517177       -2.16114902971875
H           -2.39689324798168       -0.64761764094719        1.18207962791648
H           -1.29073386207715        0.53266307679114        1.95124683899464
H           -0.76800314823969       -1.13209164681434        1.75825924122795
16
 energy: -271.709887008681 gnorm: 0.001614663179 xtb: 6.7.1 (edcfbbe)
C            1.45867895341473        0.41699038642479        1.16908868015797
C            0.68562696892176        0.43355731841216       -0.14781529972208
C            1.40160210810490       -0.40713635939852       -1.21533045447686
C           -0.77412431526387        0.00428171553076       -0.04889090453826
O           -1.46083565186666       -0.04824825444463       -1.06765145850408
C           -1.35680965927851       -0.33755169775920        1.28680866995245
H            0.99455771408092        1.05130334017919        1.92989393196561
H            1.53827292277585       -0.59980302177403        1.56893672274687
H            2.47492483285706        0.78778489839178        1.00169111334467
H            0.63305069247262        1.47041752384668       -0.51346743527385
H            1.49956507608515       -1.44590922918672       -0.87921030662439
H            2.40665552168975       -0.01017038349811       -1.38873734381368
H            0.86014204103619       -0.39786698414938       -2.16477833925728
H           -2.39697598454623       -0.64913598091122        1.18183613452310
H           -1.29272044973957        0.53097519057446        1.95321012606169
H           -0.76838067602795       -1.13182442496099        1.76064690590373
16
 energy: -271.709904987980 gnorm: 0.001368176050 xtb: 6.7.1 (edcfbbe)
C            1.45889084037388        0.41882907124900        1.16813114863754
C            0.68535308076470        0.43170422015590       -0.14791696934104
C            1.40084893945668       -0.40807629035575       -1.21535113702462
C           -0.77398416183302        0.00250857642438       -0.04725882812186
O           -1.46140873106837       -0.04780619475036       -1.06518336074155
C           -1.35597170963969       -0.33867496419003        1.28750787672836
H            0.99386603766617        1.05208525791893        1.92860851266041
H            1.54332658837268       -0.59702318503928        1.56798881514789
H            2.47278437299346        0.79329544383128        0.99762396378670
H            0.63044897086558        1.46763327592172       -0.51532925291380
H            1.48631487806238       -1.44998016268829       -0.88689217973890
H            2.41108712265657       -0.01903039499054       -1.37513532619810
H            0.86986318520326       -0.38588935949285       -2.17008453858758
H           -2.39579024388100       -0.64993956334874        1.18197461397413
H           -1.29358230344772        0.52980137705571        1.95352963439104
H           -0.76881691471388       -1.13177298813532        1.76401761246212
16
 energy: -271.709919272570 gnorm: 0.000898456107 xtb: 6.7.1 (edcfbbe)
C            1.45965946268167        0.42123492325179        1.16709750879613
C            0.68457114065061        0.43247062663447       -0.14788594840060
C            1.39962857866424       -0.40910655240833       -1.21403777439289
C           -0.77373096629536        0.00102707706570       -0.04720780293819
O           -1.46167766394022       -0.04909454742391       -1.06467147159795
C           -1.35445622522024       -0.34027431009811        1.28805107946430
H            0.99239633624779        1.05227459423551        1.92763372276313
H            1.54841953015390       -0.59427147437759        1.56623676890723
H            2.47164892905539        0.79996218021911        0.99583862213715
H            0.62969744288237        1.46773688141691       -0.51681693446571
H            1.46821688595763       -1.45478429697178       -0.89372320112812
H            2.41600792574499       -0.03202800969878       -1.36169292624253
H            0.87697423793849       -0.37193846827217       -2.17263742137204
H           -2.39368760425093       -0.65390320157351        1.18304744071742
H           -1.29466843987543        0.52973155963837        1.95192278237096
H           -0.76576982722352       -1.13137281375919        1.76507655244314
16
 energy: -271.709926109484 gnorm: 0.001129406618 xtb: 6.7.1 (edcfbbe)
C            1.45953223442484        0.42645299221364        1.16680506196630
C            0.68451108699512        0.43476123499287       -0.14844828253907
C            1.39621975156057       -0.41136062301494       -1.21396590965664
C           -0.77269992119893        0.00082080767467       -0.04720299496721
O           -1.46101721958070       -0.05056200261940       -1.06447183611818
C           -1.35133878652018       -0.34324419047172        1.28899466489868
H            0.98849874279641        1.05281368844638        1.92916664621770
H            1.55589941385022       -0.58929626737174        1.56406690305427
H            2.46877780580420        0.81282643140493        0.99548471508330
H            0.63081442248683        1.46913080497501       -0.51998316755148
H            1.43356235612413       -1.46288005423279       -0.90541895701567
H            2.42434240248110       -0.05741865957574       -1.34042627487150
H            0.88912979415993       -0.34997179506272       -2.18029284582070
H           -2.38883731660706       -0.66385354723913        1.18485585171381
H           -1.29718133109182        0.52923243354387        1.95048173390155
H           -0.75698410594815       -1.12978702476947        1.76658704325625
16
 energy: -271.709929112214 gnorm: 0.000508829245 xtb: 6.7.1 (edcfbbe)
C            1.45933302358386        0.42569692080155        1.16719203982386
C            0.68481525000201        0.43573993810785       -0.14843882431171
C            1.39638537482735       -0.41128418788670       -1.21377036761193
C           -0.77283961011210        0.00247208022435       -0.04785812385843
O           -1.46091561484898       -0.04918936617989       -1.06514504764252
C           -1.35134243503804       -0.34273310992082        1.28849061364739
H            0.98820345994560        1.05206088888184        1.92955365855948
H            1.55376974386468       -0.59042840127235        1.56395324509351
H            2.46926593352063        0.81090596619335        0.99747302311141
H            0.63239450244575        1.47038772010990       -0.51942313302643
H            1.43896940266225       -1.46043551377385       -0.90180347131122
H            2.42152840056029       -0.05470654875237       -1.34650710852796
H            0.88534788490242       -0.35619817620822       -2.17723060519864
H           -2.38836212947423       -0.66445463197841        1.18414227207014
H           -1.29753680826286        0.52906724933292        1.95083728291287
H           -0.75578698385723       -1.12923661550204        1.76476729748975
16
 energy: -271.709929112214 gnorm: 0.000508829245 xtb: 6.7.1 (edcfbbe)
C            1.45933302358386        0.42569692080155        1.16719203982386
C            0.68481525000201        0.43573993810785       -0.14843882431171
C            1.39638537482735       -0.41128418788670       -1.21377036761193
C           -0.77283961011210        0.00247208022435       -0.04785812385843
O           -1.46091561484898       -0.04918936617989       -1.06514504764252
C           -1.35134243503804       -0.34273310992082        1.28849061364739
H            0.98820345994560        1.05206088888184        1.92955365855948
H            1.55376974386468       -0.59042840127235        1.56395324509351
H            2.46926593352063        0.81090596619335        0.99747302311141
H            0.63239450244575        1.47038772010990       -0.51942313302643
H            1.43896940266225       -1.46043551377385       -0.90180347131122
H            2.42152840056029       -0.05470654875237       -1.34650710852796
H            0.88534788490242       -0.35619817620822       -2.17723060519864
H           -2.38836212947423       -0.66445463197841        1.18414227207014
H           -1.29753680826286        0.52906724933292        1.95083728291287
H           -0.75578698385723       -1.12923661550204        1.76476729748975
