      -----------------------------------------------------------      
     |                   =====================                   |     
     |                           x T B                           |     
     |                   =====================                   |     
     |                         S. Grimme                         |     
     |          Mulliken Center for Theoretical Chemistry        |     
     |                    University of Bonn                     |     
      -----------------------------------------------------------      

   * xtb version 6.7.1 (edcfbbe) compiled by 'albert@albert-system' on 2024-07-22

   xtb is free software: you can redistribute it and/or modify it under
   the terms of the GNU Lesser General Public License as published by
   the Free Software Foundation, either version 3 of the License, or
   (at your option) any later version.
   
   xtb is distributed in the hope that it will be useful,
   but WITHOUT ANY WARRANTY; without even the implied warranty of
   MERCHANTABILITY or FITNESS FOR A PARTICULAR PURPOSE.  See the
   GNU Lesser General Public License for more details.
   
   Cite this work as:
   * C. Bannwarth, E. Caldeweyher, S. Ehlert, A. Hansen, P. Pracht,
     J. Seibert, S. Spicher, S. Grimme, WIREs Comput. Mol. Sci., 2020, 11,
     e01493. DOI: 10.1002/wcms.1493
   
   for GFN2-xTB:
   * C. Bannwarth, S. Ehlert and S. Grimme., J. Chem. Theory Comput., 2019,
     15, 1652-1671. DOI: 10.1021/acs.jctc.8b01176
   for GFN1-xTB:
   * S. Grimme, C. Bannwarth, P. Shushkov, J. Chem. Theory Comput., 2017,
     13, 1989-2009. DOI: 10.1021/acs.jctc.7b00118
   for GFN0-xTB:
   * P. Pracht, E. Caldeweyher, S. Ehlert, S. Grimme, ChemRxiv, 2019, preprint.
     DOI: 10.26434/chemrxiv.8326202.v1
   for GFN-FF:
   * S. Spicher and S. Grimme, Angew. Chem. Int. Ed., 2020, 59, 15665-15673.
     DOI: 10.1002/anie.202004239
   
   for ALPB and GBSA implicit solvation:
   * S. Ehlert, M. Stahn, S. Spicher, S. Grimme, J. Chem. Theory Comput.,
     2021, 17, 4250-4261. DOI: 10.1021/acs.jctc.1c00471
   
   for ddCOSMO and CPCM-X implicit solvation:
   * M. Stahn, S. Ehlert, S. Grimme, J. Phys. Chem. A,
     2023, XX, XXXX-XXXX. DOI: 10.1021/acs.jpca.3c04382
   
   for DFT-D4:
   * E. Caldeweyher, C. Bannwarth and S. Grimme, J. Chem. Phys., 2017,
     147, 034112. DOI: 10.1063/1.4993215
   * E. Caldeweyher, S. Ehlert, A. Hansen, H. Neugebauer, S. Spicher,
     C. Bannwarth and S. Grimme, J. Chem. Phys., 2019, 150, 154122.
     DOI: 10.1063/1.5090222
   * E. Caldeweyher, J.-M. Mewes, S. Ehlert and S. Grimme, Phys. Chem. Chem. Phys.
     2020, 22, 8499-8512. DOI: 10.1039/D0CP00502A
   
   for sTDA-xTB:
   * S. Grimme and C. Bannwarth, J. Chem. Phys., 2016, 145, 054103.
     DOI: 10.1063/1.4959605
   
   in the mass-spec context:
   * V. Asgeirsson, C. Bauer and S. Grimme, Chem. Sci., 2017, 8, 4879.
     DOI: 10.1039/c7sc00601b
   * J. Koopman and S. Grimme, ACS Omega 2019, 4, 12, 15120-15133.
     DOI: 10.1021/acsomega.9b02011
   
   for metadynamics refer to:
   * S. Grimme, J. Chem. Theory Comput., 2019, 155, 2847-2862
     DOI: 10.1021/acs.jctc.9b00143
   
   for SPH calculations refer to:
   * S. Spicher and S. Grimme, J. Chem. Theory Comput., 2021, 17, 1701-1714
     DOI: 10.1021/acs.jctc.0c01306
   
   for ONIOM refer to:
   * C. Plett, A. Katbashev, S. Ehlert, S. Grimme, M. Bursch,
     Phys. Chem. Chem. Phys., 2023, 25, 17860-17868. DOI: 10.1039/D3CP02178E
   
   for DIPRO refer to:
   * J. Kohn, N. Gildemeister, S. Grimme, D. Fazzi, A. Hansen,
     J. Chem. Phys., 2023, just accepted.
   
   for PTB refer to:
   * S. Grimme, M. Mueller, A. Hansen, J. Chem. Phys., 2023, 158, 124111.
     DOI: 10.1063/5.0137838
   
   with help from (in alphabetical order)
   P. Atkinson, C. Bannwarth, F. Bohle, G. Brandenburg, E. Caldeweyher
   M. Checinski, S. Dohm, S. Ehlert, S. Ehrlich, I. Gerasimov, C. Hölzer
   A. Katbashev, J. Kohn, J. Koopman, C. Lavigne, S. Lehtola, F. März, M. Müller,
   F. Musil, H. Neugebauer, J. Pisarek, C. Plett, P. Pracht, F. Pultar,
   J. Seibert, P. Shushkov, S. Spicher, M. Stahn, M. Steiner, T. Strunk,
   J. Stückrath, T. Rose, and J. Unsleber
   
 * started run on 2025/04/06 at 18:00:46.087     
   ID    Z sym.   atoms
    1    6 C      1, 2, 4, 6, 8, 10
    2    1 H      3, 5, 7, 9, 11, 18-24
    3    8 O      12-17

           -------------------------------------------------
          |                Calculation Setup                |
           -------------------------------------------------

          program call               : /srv/scratch/z5358697/.xtb/bin/xtb solv.coord --gfn2 --sp --chrg 0 --norestart --parallel 1 --alpb water reference -I xtb_sp-xcontrol-inp
          hostname                   : k155
          coordinate file            : solv.coord
          omp threads                :                     1


           -------------------------------------------------
          |                 G F N 2 - x T B                 |
           -------------------------------------------------

        Reference                      10.1021/acs.jctc.8b01176
      * Hamiltonian:
        H0-scaling (s, p, d)           1.850000    2.230000    2.230000
        zeta-weighting                 0.500000
      * Dispersion:
        s8                             2.700000
        a1                             0.520000
        a2                             5.000000
        s9                             5.000000
      * Repulsion:
        kExp                           1.500000    1.000000
        rExp                           1.000000
      * Coulomb:
        alpha                          2.000000
        third order                    shell-resolved
        anisotropic                    true
        a3                             3.000000
        a5                             4.000000
        cn-shift                       1.200000
        cn-exp                         4.000000
        max-rad                        5.000000

      * Solvation model:               ALPB
        Solvent                        water
        Parameter file                 internal GFN2-xTB/ALPB
        Dielectric constant                8.0200E+01
        Reference state                gsolv=reference [X=1]
        Free energy shift                  2.8945E-03 Eh       1.8164E+00 kcal/mol
        Temperature                        2.9815E+02 K
        Density                            1.0000E+00 kg/L
        Solvent mass                       1.8000E+01 g/mol
        Interaction kernel             P16
        Born radius scaling (c1)           1.4744E+00
        Born radii integrator          GBOBC
        Born offset                        0.0000E+00 a0       0.0000E+00 AA
        H-bond correction              true
        Ion screening                  false
        Surface tension                    1.0000E-05 Eh       1.5569E+01 dyn/cm
        Grid points                               974 per atom

          ...................................................
          :                      SETUP                      :
          :.................................................:
          :  # basis functions                  60          :
          :  # atomic orbitals                  60          :
          :  # shells                           36          :
          :  # electrons                        72          :
          :  max. iterations                   250          :
          :  Hamiltonian                  GFN2-xTB          :
          :  restarted?                      false          :
          :  GBSA solvation                   true          :
          :  PC potential                    false          :
          :  electronic temp.          300.0000000     K    :
          :  accuracy                    1.0000000          :
          :  -> integral cutoff          0.2500000E+02      :
          :  -> integral neglect         0.1000000E-07      :
          :  -> SCF convergence          0.1000000E-05 Eh   :
          :  -> wf. convergence          0.1000000E-03 e    :
          :  Broyden damping             0.4000000          :
          :  net charge                          0          :
          :  unpaired electrons                  0          :
          ...................................................

 iter      E             dE          RMSdq      gap      omega  full diag
   1    -43.6508609 -0.436509E+02  0.480E+00   10.80       0.0  T
   2    -43.6844320 -0.335712E-01  0.258E+00   10.56       1.0  T
   3    -43.6866373 -0.220531E-02  0.601E-01   10.58       1.0  T
   4    -43.6869596 -0.322267E-03  0.178E-01   10.57       1.0  T
   5    -43.6870146 -0.549705E-04  0.636E-02   10.59       1.0  T
   6    -43.6870313 -0.166959E-04  0.222E-02   10.59       1.0  T
   7    -43.6870321 -0.891396E-06  0.686E-03   10.59       3.0  T
   8    -43.6870324 -0.269710E-06  0.252E-03   10.59       8.1  T
   9    -43.6870324 -0.152291E-07  0.953E-04   10.59      21.4  T
  10    -43.6870324 -0.441121E-08  0.339E-04   10.59      60.3  T

   *** convergence criteria satisfied after 10 iterations ***

         #    Occupation            Energy/Eh            Energy/eV
      -------------------------------------------------------------
         1        2.0000           -0.7242998             -19.7092
       ...           ...                  ...                  ...
        30        2.0000           -0.4483199             -12.1994
        31        2.0000           -0.4420259             -12.0281
        32        2.0000           -0.4352981             -11.8451
        33        2.0000           -0.4261850             -11.5971
        34        2.0000           -0.4192478             -11.4083
        35        2.0000           -0.4156165             -11.3095
        36        2.0000           -0.4062024             -11.0533 (HOMO)
        37                         -0.0170147              -0.4630 (LUMO)
        38                          0.0107146               0.2916
        39                          0.0153404               0.4174
        40                          0.0303674               0.8263
        41                          0.0385932               1.0502
       ...                                ...                  ...
        60                          0.3035123               8.2590
      -------------------------------------------------------------
                  HL-Gap            0.3891877 Eh           10.5903 eV
             Fermi-level           -0.2116085 Eh           -5.7582 eV

 SCC (total)                   0 d,  0 h,  0 min,  0.034 sec
 SCC setup                      ...        0 min,  0.001 sec (  4.071%)
 Dispersion                     ...        0 min,  0.000 sec (  0.390%)
 classical contributions        ...        0 min,  0.000 sec (  0.073%)
 integral evaluation            ...        0 min,  0.003 sec (  7.752%)
 iterations                     ...        0 min,  0.023 sec ( 66.409%)
 molecular gradient             ...        0 min,  0.007 sec ( 20.880%)
 printout                       ...        0 min,  0.000 sec (  0.387%)

         :::::::::::::::::::::::::::::::::::::::::::::::::::::
         ::                     SUMMARY                     ::
         :::::::::::::::::::::::::::::::::::::::::::::::::::::
         :: total energy             -43.383522698807 Eh    ::
         :: total w/o Gsasa/hb       -43.362620140036 Eh    ::
         :: gradient norm              0.000053021294 Eh/a0 ::
         :: HOMO-LUMO gap             10.590335934275 eV    ::
         ::.................................................::
         :: SCC energy               -43.686835778149 Eh    ::
         :: -> isotropic ES            0.176360418492 Eh    ::
         :: -> anisotropic ES         -0.006576417481 Eh    ::
         :: -> anisotropic XC         -0.009817695516 Eh    ::
         :: -> dispersion             -0.019980310552 Eh    ::
         :: -> Gsolv                  -0.040819575837 Eh    ::
         ::    -> Gelec               -0.019917017066 Eh    ::
         ::    -> Gsasa                0.004404608736 Eh    ::
         ::    -> Ghb                 -0.028201716667 Eh    ::
         ::    -> Gshift               0.002894549160 Eh    ::
         :: repulsion energy           0.303313079342 Eh    ::
         :: add. restraining           0.000000000000 Eh    ::
         :: total charge              -0.000000000000 e     ::
         :::::::::::::::::::::::::::::::::::::::::::::::::::::

           -------------------------------------------------
          |                Property Printout                |
           -------------------------------------------------

    * Orbital Energies and Occupations

         #    Occupation            Energy/Eh            Energy/eV
      -------------------------------------------------------------
         1        2.0000           -0.7242998             -19.7092
       ...           ...                  ...                  ...
        24        2.0000           -0.5136504             -13.9771
        25        2.0000           -0.5021571             -13.6644
        26        2.0000           -0.4978685             -13.5477
        27        2.0000           -0.4931978             -13.4206
        28        2.0000           -0.4790219             -13.0348
        29        2.0000           -0.4672242             -12.7138
        30        2.0000           -0.4483199             -12.1994
        31        2.0000           -0.4420259             -12.0281
        32        2.0000           -0.4352981             -11.8451
        33        2.0000           -0.4261850             -11.5971
        34        2.0000           -0.4192478             -11.4083
        35        2.0000           -0.4156165             -11.3095
        36        2.0000           -0.4062024             -11.0533 (HOMO)
        37                         -0.0170147              -0.4630 (LUMO)
        38                          0.0107146               0.2916
        39                          0.0153404               0.4174
        40                          0.0303674               0.8263
        41                          0.0385932               1.0502
        42                          0.0481562               1.3104
        43                          0.0798128               2.1718
        44                          0.0997556               2.7145
        45                          0.1122995               3.0558
        46                          0.1181327               3.2146
        47                          0.1199080               3.2629
       ...                                ...                  ...
        60                          0.3035123               8.2590
      -------------------------------------------------------------
                  HL-Gap            0.3891877 Eh           10.5903 eV
             Fermi-level           -0.2116085 Eh           -5.7582 eV

     #   Z          covCN         q      C6AA      α(0)
     1   6 C        3.673     0.065    19.709     6.362
     2   6 C        3.735     0.091    19.147     6.245
     3   1 H        0.924     0.081     1.969     2.194
     4   6 C        3.728     0.091    19.161     6.249
     5   1 H        0.923     0.043     2.411     2.428
     6   6 C        3.731     0.102    18.992     6.221
     7   1 H        0.924     0.052     2.301     2.372
     8   6 C        3.728     0.089    19.195     6.255
     9   1 H        0.923     0.051     2.304     2.374
    10   6 C        3.615     0.235    17.368     6.013
    11   1 H        0.923     0.034     2.528     2.487
    12   8 O        1.700    -0.367    20.199     6.068
    13   8 O        1.657    -0.504    22.985     6.472
    14   8 O        1.656    -0.502    22.941     6.466
    15   8 O        1.656    -0.493    22.741     6.438
    16   8 O        1.655    -0.505    23.010     6.475
    17   8 O        1.655    -0.515    23.215     6.504
    18   1 H        0.924     0.043     2.416     2.431
    19   1 H        0.924     0.050     2.317     2.380
    20   1 H        0.804     0.380     0.522     1.135
    21   1 H        0.805     0.373     0.537     1.151
    22   1 H        0.805     0.360     0.565     1.180
    23   1 H        0.804     0.367     0.550     1.165
    24   1 H        0.805     0.378     0.526     1.140

 Mol. C6AA /au·bohr⁶  :       4721.908662
 Mol. C8AA /au·bohr⁸  :     100717.318024
 Mol. α(0) /au        :         98.206414


Wiberg/Mayer (AO) data.
largest (>0.10) Wiberg bond orders for each atom

 ---------------------------------------------------------------------------
     #   Z sym  total        # sym  WBO       # sym  WBO       # sym  WBO
 ---------------------------------------------------------------------------
     1   6 C    3.959 --    17 O    1.000     2 C    0.983    19 H    0.969
                            18 H    0.969
     2   6 C    3.942 --     1 C    0.983     4 C    0.969    12 O    0.961
                             3 H    0.955
     3   1 H    0.993 --     2 C    0.955
     4   6 C    3.959 --    16 O    0.997     2 C    0.969     6 C    0.962
                             5 H    0.954
     5   1 H    0.998 --     4 C    0.954
     6   6 C    3.960 --    15 O    1.002     8 C    0.972     4 C    0.962
                             7 H    0.959
     7   1 H    0.997 --     6 C    0.959
     8   6 C    3.959 --    14 O    1.001     6 C    0.972    10 C    0.955
                             9 H    0.952
     9   1 H    0.997 --     8 C    0.952
    10   6 C    3.930 --    13 O    1.002    12 O    0.966     8 C    0.955
                            11 H    0.948
    11   1 H    0.999 --    10 C    0.948
    12   8 O    2.073 --    10 C    0.966     2 C    0.961
    13   8 O    1.935 --    10 C    1.002    20 H    0.839
    14   8 O    1.919 --     8 C    1.001    21 H    0.847
    15   8 O    1.936 --     6 C    1.002    22 H    0.853
    16   8 O    1.916 --     4 C    0.997    23 H    0.847
    17   8 O    1.906 --     1 C    1.000    24 H    0.843
    18   1 H    0.998 --     1 C    0.969
    19   1 H    0.997 --     1 C    0.969
    20   1 H    0.855 --    13 O    0.839
    21   1 H    0.860 --    14 O    0.847
    22   1 H    0.870 --    15 O    0.853
    23   1 H    0.865 --    16 O    0.847
    24   1 H    0.857 --    17 O    0.843
 ---------------------------------------------------------------------------

Topologies differ in total number of bonds
Writing topology from bond orders to xtbtopo.mol

molecular dipole:
                 x           y           z       tot (Debye)
 q only:       -0.466      -1.138      -1.100
   full:       -0.563      -1.484      -1.268       5.163
molecular quadrupole (traceless):
                xx          xy          yy          xz          yz          zz
 q only:       -1.328      -1.930       3.562       2.433      -1.448      -2.234
  q+dip:       -2.417      -2.300       3.434       5.724      -2.717      -1.017
   full:       -2.450      -2.259       3.867       4.659      -2.505      -1.417


           -------------------------------------------------
          | TOTAL ENERGY              -43.383522698807 Eh   |
          | GRADIENT NORM               0.000053021294 Eh/α |
          | HOMO-LUMO GAP              10.590335934275 eV   |
           -------------------------------------------------

------------------------------------------------------------------------
 * finished run on 2025/04/06 at 18:00:46.156     
------------------------------------------------------------------------
 total:
 * wall-time:     0 d,  0 h,  0 min,  0.068 sec
 *  cpu-time:     0 d,  0 h,  0 min,  0.029 sec
 * ratio c/w:     0.424 speedup
 SCF:
 * wall-time:     0 d,  0 h,  0 min,  0.035 sec
 *  cpu-time:     0 d,  0 h,  0 min,  0.020 sec
 * ratio c/w:     0.577 speedup

