      -----------------------------------------------------------      
     |                   =====================                   |     
     |                           x T B                           |     
     |                   =====================                   |     
     |                         S. Grimme                         |     
     |          Mulliken Center for Theoretical Chemistry        |     
     |                    University of Bonn                     |     
      -----------------------------------------------------------      

   * xtb version 6.7.1 (edcfbbe) compiled by 'albert@albert-system' on 2024-07-22

   xtb is free software: you can redistribute it and/or modify it under
   the terms of the GNU Lesser General Public License as published by
   the Free Software Foundation, either version 3 of the License, or
   (at your option) any later version.
   
   xtb is distributed in the hope that it will be useful,
   but WITHOUT ANY WARRANTY; without even the implied warranty of
   MERCHANTABILITY or FITNESS FOR A PARTICULAR PURPOSE.  See the
   GNU Lesser General Public License for more details.
   
   Cite this work as:
   * C. Bannwarth, E. Caldeweyher, S. Ehlert, A. Hansen, P. Pracht,
     J. Seibert, S. Spicher, S. Grimme, WIREs Comput. Mol. Sci., 2020, 11,
     e01493. DOI: 10.1002/wcms.1493
   
   for GFN2-xTB:
   * C. Bannwarth, S. Ehlert and S. Grimme., J. Chem. Theory Comput., 2019,
     15, 1652-1671. DOI: 10.1021/acs.jctc.8b01176
   for GFN1-xTB:
   * S. Grimme, C. Bannwarth, P. Shushkov, J. Chem. Theory Comput., 2017,
     13, 1989-2009. DOI: 10.1021/acs.jctc.7b00118
   for GFN0-xTB:
   * P. Pracht, E. Caldeweyher, S. Ehlert, S. Grimme, ChemRxiv, 2019, preprint.
     DOI: 10.26434/chemrxiv.8326202.v1
   for GFN-FF:
   * S. Spicher and S. Grimme, Angew. Chem. Int. Ed., 2020, 59, 15665-15673.
     DOI: 10.1002/anie.202004239
   
   for ALPB and GBSA implicit solvation:
   * S. Ehlert, M. Stahn, S. Spicher, S. Grimme, J. Chem. Theory Comput.,
     2021, 17, 4250-4261. DOI: 10.1021/acs.jctc.1c00471
   
   for ddCOSMO and CPCM-X implicit solvation:
   * M. Stahn, S. Ehlert, S. Grimme, J. Phys. Chem. A,
     2023, XX, XXXX-XXXX. DOI: 10.1021/acs.jpca.3c04382
   
   for DFT-D4:
   * E. Caldeweyher, C. Bannwarth and S. Grimme, J. Chem. Phys., 2017,
     147, 034112. DOI: 10.1063/1.4993215
   * E. Caldeweyher, S. Ehlert, A. Hansen, H. Neugebauer, S. Spicher,
     C. Bannwarth and S. Grimme, J. Chem. Phys., 2019, 150, 154122.
     DOI: 10.1063/1.5090222
   * E. Caldeweyher, J.-M. Mewes, S. Ehlert and S. Grimme, Phys. Chem. Chem. Phys.
     2020, 22, 8499-8512. DOI: 10.1039/D0CP00502A
   
   for sTDA-xTB:
   * S. Grimme and C. Bannwarth, J. Chem. Phys., 2016, 145, 054103.
     DOI: 10.1063/1.4959605
   
   in the mass-spec context:
   * V. Asgeirsson, C. Bauer and S. Grimme, Chem. Sci., 2017, 8, 4879.
     DOI: 10.1039/c7sc00601b
   * J. Koopman and S. Grimme, ACS Omega 2019, 4, 12, 15120-15133.
     DOI: 10.1021/acsomega.9b02011
   
   for metadynamics refer to:
   * S. Grimme, J. Chem. Theory Comput., 2019, 155, 2847-2862
     DOI: 10.1021/acs.jctc.9b00143
   
   for SPH calculations refer to:
   * S. Spicher and S. Grimme, J. Chem. Theory Comput., 2021, 17, 1701-1714
     DOI: 10.1021/acs.jctc.0c01306
   
   for ONIOM refer to:
   * C. Plett, A. Katbashev, S. Ehlert, S. Grimme, M. Bursch,
     Phys. Chem. Chem. Phys., 2023, 25, 17860-17868. DOI: 10.1039/D3CP02178E
   
   for DIPRO refer to:
   * J. Kohn, N. Gildemeister, S. Grimme, D. Fazzi, A. Hansen,
     J. Chem. Phys., 2023, just accepted.
   
   for PTB refer to:
   * S. Grimme, M. Mueller, A. Hansen, J. Chem. Phys., 2023, 158, 124111.
     DOI: 10.1063/5.0137838
   
   with help from (in alphabetical order)
   P. Atkinson, C. Bannwarth, F. Bohle, G. Brandenburg, E. Caldeweyher
   M. Checinski, S. Dohm, S. Ehlert, S. Ehrlich, I. Gerasimov, C. Hölzer
   A. Katbashev, J. Kohn, J. Koopman, C. Lavigne, S. Lehtola, F. März, M. Müller,
   F. Musil, H. Neugebauer, J. Pisarek, C. Plett, P. Pracht, F. Pultar,
   J. Seibert, P. Shushkov, S. Spicher, M. Stahn, M. Steiner, T. Strunk,
   J. Stückrath, T. Rose, and J. Unsleber
   
 * started run on 2025/04/06 at 18:00:48.886     
   ID    Z sym.   atoms
    1    6 C      1, 2, 4, 6, 8, 10
    2    1 H      3, 5, 7, 9, 11, 18-24
    3    8 O      12-17

           -------------------------------------------------
          |                Calculation Setup                |
           -------------------------------------------------

          program call               : /srv/scratch/z5358697/.xtb/bin/xtb gas.coord --gfn2 --sp --chrg 0 --norestart --parallel 1
          hostname                   : k155
          coordinate file            : gas.coord
          omp threads                :                     1


           -------------------------------------------------
          |                 G F N 2 - x T B                 |
           -------------------------------------------------

        Reference                      10.1021/acs.jctc.8b01176
      * Hamiltonian:
        H0-scaling (s, p, d)           1.850000    2.230000    2.230000
        zeta-weighting                 0.500000
      * Dispersion:
        s8                             2.700000
        a1                             0.520000
        a2                             5.000000
        s9                             5.000000
      * Repulsion:
        kExp                           1.500000    1.000000
        rExp                           1.000000
      * Coulomb:
        alpha                          2.000000
        third order                    shell-resolved
        anisotropic                    true
        a3                             3.000000
        a5                             4.000000
        cn-shift                       1.200000
        cn-exp                         4.000000
        max-rad                        5.000000


          ...................................................
          :                      SETUP                      :
          :.................................................:
          :  # basis functions                  60          :
          :  # atomic orbitals                  60          :
          :  # shells                           36          :
          :  # electrons                        72          :
          :  max. iterations                   250          :
          :  Hamiltonian                  GFN2-xTB          :
          :  restarted?                      false          :
          :  GBSA solvation                  false          :
          :  PC potential                    false          :
          :  electronic temp.          300.0000000     K    :
          :  accuracy                    1.0000000          :
          :  -> integral cutoff          0.2500000E+02      :
          :  -> integral neglect         0.1000000E-07      :
          :  -> SCF convergence          0.1000000E-05 Eh   :
          :  -> wf. convergence          0.1000000E-03 e    :
          :  Broyden damping             0.4000000          :
          :  net charge                          0          :
          :  unpaired electrons                  0          :
          ...................................................

 iter      E             dE          RMSdq      gap      omega  full diag
   1    -43.6215518 -0.436216E+02  0.465E+00   10.35       0.0  T
   2    -43.6518451 -0.302933E-01  0.255E+00   10.23       1.0  T
   3    -43.6532369 -0.139181E-02  0.628E-01   10.14       1.0  T
   4    -43.6537618 -0.524875E-03  0.145E-01   10.14       1.0  T
   5    -43.6538123 -0.504822E-04  0.502E-02   10.17       1.0  T
   6    -43.6538231 -0.108203E-04  0.195E-02   10.18       1.0  T
   7    -43.6538238 -0.737185E-06  0.544E-03   10.18       3.7  T
   8    -43.6538240 -0.187598E-06  0.173E-03   10.18      11.8  T
   9    -43.6538240 -0.477839E-08  0.634E-04   10.18      32.2  T
  10    -43.6538240 -0.146227E-08  0.224E-04   10.18      91.2  T

   *** convergence criteria satisfied after 10 iterations ***

         #    Occupation            Energy/Eh            Energy/eV
      -------------------------------------------------------------
         1        2.0000           -0.7262364             -19.7619
       ...           ...                  ...                  ...
        30        2.0000           -0.4629993             -12.5989
        31        2.0000           -0.4513016             -12.2805
        32        2.0000           -0.4458549             -12.1323
        33        2.0000           -0.4327395             -11.7754
        34        2.0000           -0.4225877             -11.4992
        35        2.0000           -0.4060813             -11.0500
        36        2.0000           -0.4042255             -10.9995 (HOMO)
        37                         -0.0302233              -0.8224 (LUMO)
        38                         -0.0107654              -0.2929
        39                          0.0100379               0.2731
        40                          0.0267964               0.7292
        41                          0.0404875               1.1017
       ...                                ...                  ...
        60                          0.3062728               8.3341
      -------------------------------------------------------------
                  HL-Gap            0.3740023 Eh           10.1771 eV
             Fermi-level           -0.2172244 Eh           -5.9110 eV

 SCC (total)                   0 d,  0 h,  0 min,  0.020 sec
 SCC setup                      ...        0 min,  0.000 sec (  0.932%)
 Dispersion                     ...        0 min,  0.000 sec (  0.677%)
 classical contributions        ...        0 min,  0.000 sec (  0.137%)
 integral evaluation            ...        0 min,  0.003 sec ( 13.592%)
 iterations                     ...        0 min,  0.009 sec ( 47.384%)
 molecular gradient             ...        0 min,  0.007 sec ( 36.571%)
 printout                       ...        0 min,  0.000 sec (  0.652%)

         :::::::::::::::::::::::::::::::::::::::::::::::::::::
         ::                     SUMMARY                     ::
         :::::::::::::::::::::::::::::::::::::::::::::::::::::
         :: total energy             -43.351415232465 Eh    ::
         :: gradient norm              0.014916136748 Eh/a0 ::
         :: HOMO-LUMO gap             10.177119431017 eV    ::
         ::.................................................::
         :: SCC energy               -43.653631095577 Eh    ::
         :: -> isotropic ES            0.136887010705 Eh    ::
         :: -> anisotropic ES         -0.001876110185 Eh    ::
         :: -> anisotropic XC         -0.010120407115 Eh    ::
         :: -> dispersion             -0.019388543546 Eh    ::
         :: repulsion energy           0.302215863113 Eh    ::
         :: add. restraining           0.000000000000 Eh    ::
         :: total charge               0.000000000000 e     ::
         :::::::::::::::::::::::::::::::::::::::::::::::::::::

           -------------------------------------------------
          |                Property Printout                |
           -------------------------------------------------

    * Orbital Energies and Occupations

         #    Occupation            Energy/Eh            Energy/eV
      -------------------------------------------------------------
         1        2.0000           -0.7262364             -19.7619
       ...           ...                  ...                  ...
        24        2.0000           -0.5136195             -13.9763
        25        2.0000           -0.5061354             -13.7726
        26        2.0000           -0.4965147             -13.5109
        27        2.0000           -0.4906872             -13.3523
        28        2.0000           -0.4870760             -13.2540
        29        2.0000           -0.4747122             -12.9176
        30        2.0000           -0.4629993             -12.5989
        31        2.0000           -0.4513016             -12.2805
        32        2.0000           -0.4458549             -12.1323
        33        2.0000           -0.4327395             -11.7754
        34        2.0000           -0.4225877             -11.4992
        35        2.0000           -0.4060813             -11.0500
        36        2.0000           -0.4042255             -10.9995 (HOMO)
        37                         -0.0302233              -0.8224 (LUMO)
        38                         -0.0107654              -0.2929
        39                          0.0100379               0.2731
        40                          0.0267964               0.7292
        41                          0.0404875               1.1017
        42                          0.0520641               1.4167
        43                          0.0636173               1.7311
        44                          0.0910691               2.4781
        45                          0.0980442               2.6679
        46                          0.1032995               2.8109
        47                          0.1161356               3.1602
       ...                                ...                  ...
        60                          0.3062728               8.3341
      -------------------------------------------------------------
                  HL-Gap            0.3740023 Eh           10.1771 eV
             Fermi-level           -0.2172244 Eh           -5.9110 eV

     #   Z          covCN         q      C6AA      α(0)
     1   6 C        3.677     0.072    19.594     6.342
     2   6 C        3.741     0.094    19.105     6.236
     3   1 H        0.924     0.067     2.114     2.274
     4   6 C        3.726     0.101    19.019     6.227
     5   1 H        0.923     0.042     2.425     2.436
     6   6 C        3.724     0.095    19.105     6.241
     7   1 H        0.923     0.023     2.693     2.567
     8   6 C        3.723     0.085    19.269     6.269
     9   1 H        0.923     0.025     2.654     2.548
    10   6 C        3.617     0.242    17.257     5.992
    11   1 H        0.923     0.054     2.265     2.353
    12   8 O        1.701    -0.337    19.644     5.984
    13   8 O        1.656    -0.437    21.577     6.271
    14   8 O        1.656    -0.438    21.609     6.275
    15   8 O        1.655    -0.450    21.841     6.309
    16   8 O        1.656    -0.441    21.653     6.282
    17   8 O        1.655    -0.429    21.416     6.247
    18   1 H        0.923     0.035     2.522     2.484
    19   1 H        0.924     0.068     2.107     2.270
    20   1 H        0.804     0.321     0.663     1.279
    21   1 H        0.804     0.302     0.715     1.328
    22   1 H        0.804     0.300     0.722     1.335
    23   1 H        0.804     0.302     0.716     1.329
    24   1 H        0.805     0.304     0.709     1.323

 Mol. C6AA /au·bohr⁶  :       4705.604429
 Mol. C8AA /au·bohr⁸  :      99921.192852
 Mol. α(0) /au        :         98.198734


Wiberg/Mayer (AO) data.
largest (>0.10) Wiberg bond orders for each atom

 ---------------------------------------------------------------------------
     #   Z sym  total        # sym  WBO       # sym  WBO       # sym  WBO
 ---------------------------------------------------------------------------
     1   6 C    3.963 --    17 O    1.015     2 C    0.978    19 H    0.969
                            18 H    0.967
     2   6 C    3.942 --     1 C    0.978     4 C    0.970    12 O    0.963
                             3 H    0.954
     3   1 H    0.995 --     2 C    0.954
     4   6 C    3.956 --    16 O    1.000     2 C    0.970     6 C    0.960
                             5 H    0.958
     5   1 H    0.998 --     4 C    0.958
     6   6 C    3.952 --    15 O    0.990     8 C    0.961     4 C    0.960
                             7 H    0.960
     7   1 H    0.999 --     6 C    0.960
     8   6 C    3.958 --    14 O    1.001     6 C    0.961     9 H    0.958
                            10 C    0.955
     9   1 H    0.999 --     8 C    0.958
    10   6 C    3.937 --    13 O    1.017    12 O    0.966     8 C    0.955
                            11 H    0.948
    11   1 H    0.997 --    10 C    0.948
    12   8 O    2.076 --    10 C    0.966     2 C    0.963
    13   8 O    1.983 --    10 C    1.017    20 H    0.870
    14   8 O    1.968 --     8 C    1.001    21 H    0.891
    15   8 O    1.966 --     6 C    0.990    22 H    0.894
    16   8 O    1.966 --     4 C    1.000    23 H    0.894
    17   8 O    1.967 --     1 C    1.015    24 H    0.892
    18   1 H    0.999 --     1 C    0.967
    19   1 H    0.995 --     1 C    0.969
    20   1 H    0.897 --    13 O    0.870
    21   1 H    0.909 --    14 O    0.891
    22   1 H    0.910 --    15 O    0.894
    23   1 H    0.909 --    16 O    0.894
    24   1 H    0.908 --    17 O    0.892
 ---------------------------------------------------------------------------

Topologies differ in total number of bonds
Writing topology from bond orders to xtbtopo.mol

molecular dipole:
                 x           y           z       tot (Debye)
 q only:        0.824       1.420      -0.363
   full:        1.392       2.062      -0.540       6.472
molecular quadrupole (traceless):
                xx          xy          yy          xz          yz          zz
 q only:       -1.659       4.158       3.532       4.436      -0.863      -1.873
  q+dip:       -3.365       6.764       5.990       8.779      -1.713      -2.625
   full:       -3.414       6.589       6.011       7.759      -1.581      -2.597


           -------------------------------------------------
          | TOTAL ENERGY              -43.351415232465 Eh   |
          | GRADIENT NORM               0.014916136748 Eh/α |
          | HOMO-LUMO GAP              10.177119431017 eV   |
           -------------------------------------------------

------------------------------------------------------------------------
 * finished run on 2025/04/06 at 18:00:48.940     
------------------------------------------------------------------------
 total:
 * wall-time:     0 d,  0 h,  0 min,  0.054 sec
 *  cpu-time:     0 d,  0 h,  0 min,  0.027 sec
 * ratio c/w:     0.498 speedup
 SCF:
 * wall-time:     0 d,  0 h,  0 min,  0.020 sec
 *  cpu-time:     0 d,  0 h,  0 min,  0.019 sec
 * ratio c/w:     0.939 speedup

