
                                 *****************
                                 * O   R   C   A *
                                 *****************

                                            #,                                       
                                            ###                                      
                                            ####                                     
                                            #####                                    
                                            ######                                   
                                           ########,                                 
                                     ,,################,,,,,                         
                               ,,#################################,,                 
                          ,,##########################################,,             
                       ,#########################################, ''#####,          
                    ,#############################################,,   '####,        
                  ,##################################################,,,,####,       
                ,###########''''           ''''###############################       
              ,#####''   ,,,,##########,,,,          '''####'''          '####       
            ,##' ,,,,###########################,,,                        '##       
           ' ,,###''''                  '''############,,,                           
         ,,##''                                '''############,,,,        ,,,,,,###''
      ,#''                                            '''#######################'''  
     '                                                          ''''####''''         
             ,#######,   #######,   ,#######,      ##                                
            ,#'     '#,  ##    ##  ,#'     '#,    #''#        ,####,   ,####,        
            ##       ##  ##   ,#'  ##            #'  '#       #'       #'  '#        
            ##       ##  #######   ##           ,######,      #####,   #    #        
            '#,     ,#'  ##    ##  '#,     ,#' ,#      #,     #,   #   #,  ,#        
             '#######'   ##     ##  '#######'  #'      '#     '####' # '####'        



                #########################################################
                #                        -***-                          #
                #          Department of theory and spectroscopy        #
                #                                                       #
                #                      Frank Neese                      #
                #                                                       #
                #     Directorship, Architecture, Infrastructure        #
                #                    SHARK, DRIVERS                     #
                #        Core code/Algorithms in most modules           #
                #                                                       #
                #        Max Planck Institute fuer Kohlenforschung      #
                #                Kaiser Wilhelm Platz 1                 #
                #                 D-45470 Muelheim/Ruhr                 #
                #                      Germany                          #
                #                                                       #
                #                  All rights reserved                  #
                #                        -***-                          #
                #########################################################


                         Program Version 6.0.0  -   RELEASE  -


 With contributions from (in alphabetic order):
   Daniel Aravena         : Magnetic Suceptibility
   Michael Atanasov       : Ab Initio Ligand Field Theory (pilot matlab implementation)
   Alexander A. Auer      : GIAO ZORA, VPT2 properties, NMR spectrum
   Ute Becker             : All parallelization in ORCA, NUMFREQ, NUMCALC
   Giovanni Bistoni       : ED, misc. LED, open-shell LED, HFLD
   Martin Brehm           : Molecular dynamics
   Dmytro Bykov           : pre 5.0 version of the SCF Hessian
   Marcos Casanova-Páez   : Triplet and SCS-CIS(D). UHF-(DLPNO)-IP/EA/STEOM-CCSD. UHF-CVS-IP/STEOM-CCSD
   Vijay G. Chilkuri      : MRCI spin determinant printing, contributions to CSF-ICE
   Pauline Colinet        : FMM embedding
   Dipayan Datta          : RHF DLPNO-CCSD density
   Achintya Kumar Dutta   : EOM-CC, STEOM-CC
   Nicolas Foglia         : Exact transition moments, OPA infrastructure, MCD improvements
   Dmitry Ganyushin       : Spin-Orbit,Spin-Spin,Magnetic field MRCI
   Miquel Garcia          : C-PCM and meta-GGA Hessian, CCSD/C-PCM, Gaussian charge scheme
   Tiago L. C. Gouveia    : GS-ROHF, GS-ROCIS
   Yang Guo               : DLPNO-NEVPT2, F12-NEVPT2, CIM, IAO-localization
   Andreas Hansen         : Spin unrestricted coupled pair/coupled cluster methods
   Ingolf Harden          : AUTO-CI MPn and infrastructure 
   Benjamin Helmich-Paris : MC-RPA, TRAH-(SCF,CASSCF), AVAS, COSX integrals, SCF dyn. polar.
   Lee Huntington         : MR-EOM, pCC
   Robert Izsak           : Overlap fitted RIJCOSX, COSX-SCS-MP3, EOM
   Riya Kayal             : Wick's Theorem for AUTO-CI, AUTO-CI UHF-CCSDT
   Emily Kempfer          : AUTO-CI, RHF CISDT and CCSDT
   Christian Kollmar      : KDIIS, OOCD, Brueckner-CCSD(T), CCSD density, CASPT2, CASPT2-K, improved NEVPT2
   Axel Koslowski         : Symmetry handling
   Simone Kossmann        : Meta GGA functionals, TD-DFT gradient, OOMP2, (MP2 Hessian; deprecated post 5.0)
   Lucas Lang             : DCDCAS
   Marvin Lechner         : AUTO-CI (C++ implementation), FIC-MRCC
   Spencer Leger          : CASSCF response
   Dagmar Lenk            : GEPOL surface, SMD, ORCA-2-JSON
   Dimitrios Liakos       : Extrapolation schemes; Compound Job, initial MDCI parallelization
   Dimitrios Manganas     : Further ROCIS development; embedding schemes. LFT, Crystal Embedding
   Dimitrios Pantazis     : SARC Basis sets
   Anastasios Papadopoulos: AUTO-CI, single reference methods and gradients
   Taras Petrenko         : pre 6.0 DFT Hessian and TD-DFT gradient, (ASA, deprecated), ECA, 1-Electron XAS/XES, NRVS
   Peter Pinski           : DLPNO-MP2, DLPNO-MP2 Gradient
   Christoph Reimann      : Effective Core Potentials
   Marius Retegan         : Local ZFS, SOC
   Christoph Riplinger    : Optimizer, TS searches, QM/MM, DLPNO-CCSD(T), (RO)-DLPNO pert. Triples
   Michael Roemelt        : Original ROCIS implementation
   Masaaki Saitow         : Open-shell DLPNO-CCSD energy and density
   Barbara Sandhoefer     : DKH picture change effects
   Kantharuban Sivalingam : CASSCF convergence/infrastructure, NEVPT2 and variants, FIC-MRCI
   Bernardo de Souza      : ESD, SOC TD-DFT
   Georgi Stoychev        : AutoAux, RI-MP2 NMR, DLPNO-MP2 response, X2C
   Van Anh Tran           : RI-MP2 g-tensors
   Willem Van den Heuvel  : Paramagnetic NMR
   Zikuan Wang            : NOTCH, Electric field optimization 
   Frank Wennmohs         : Technical directorship and infrastructure
   Hang Xu                : AUTO-CI-Response properties 


 We gratefully acknowledge several colleagues who have allowed us to
 interface, adapt or use parts of their codes:
   Stefan Grimme, W. Hujo, H. Kruse, P. Pracht,  : VdW corrections, initial TS optimization,
                  C. Bannwarth, S. Ehlert,         DFT functionals, gCP, sTDA/sTD-DF
                  L. Wittmann, M. Mueller
   Ed Valeev, F. Pavosevic, A. Kumar             : LibInt (2-el integral package), F12 methods
   Garnet Chan, S. Sharma, J. Yang, R. Olivares  : DMRG
   Ulf Ekstrom                                   : XCFun DFT Library
   Mihaly Kallay                                 : mrcc  (arbitrary order and MRCC methods)
   Frank Weinhold                                : gennbo (NPA and NBO analysis)
   Simon Mueller                                 : openCOSMO-RS
   Christopher J. Cramer and Donald G. Truhlar   : smd solvation model
   Lars Goerigk                                  : TD-DFT with DH, B97 family of functionals
   V. Asgeirsson, H. Jonsson                     : NEB implementation
   FAccTs GmbH                                   : IRC, NEB, NEB-TS, DLPNO-Multilevel, CI-OPT
                                                   MM, QMMM, 2- and 3-layer-ONIOM, Crystal-QMMM,
                                                   LR-CPCM, SF, NACMEs, symmetry and pop. for TD-DFT,
                                                   nearIR, NL-DFT gradient (VV10), updates on ESD,
                                                   ML-optimized integration grids, MBIS, APM,
                                                   GOAT, DOCKER, SOLVATOR, interface openCOSMO-RS
   S Lehtola, MJT Oliveira, MAL Marques          : LibXC Library
   Liviu Ungur et al                             : ANISO software


 Your calculation uses the libint2 library for the computation of 2-el integrals
 For citations please refer to: http://libint.valeyev.net

 Your ORCA version has been built with support for libXC version: 6.2.2
 For citations please refer to: https://libxc.gitlab.io

 This ORCA versions uses:
   CBLAS   interface :  Fast vector & matrix operations
   LAPACKE interface :  Fast linear algebra routines
   SCALAPACK package :  Parallel linear algebra routines
   Shared memory     :  Shared parallel matrices
   BLAS/LAPACK       :  OpenBLAS 0.3.27  USE64BITINT DYNAMIC_ARCH NO_AFFINITY SkylakeX SINGLE_THREADED
        Core in use  :  SkylakeX
   Copyright (c) 2011-2014, The OpenBLAS Project


Your calculation utilizes the geometrical counterpoise correction gCP
Please cite in your paper:
H.Kruse, S. Grimme J.Chem.Phys., 136, (2012), 154101 
   

Your calculation utilizes the atom-pairwise dispersion correction
based on EEQ partial charges (D4)


================================================================================

----- Orbital basis set information -----
Your calculation utilizes the basis: def2-mTZVPP
   Stefan Grimme, Andreas Hansen, Sebastian Ehlert, and Jan-Michael Mewes 
   J. Chem. Phys. 154, 064103 (2021). DOI: 10.1063/5.0040021

----- AuxJ basis set information -----
Your calculation utilizes the auxiliary basis: def2/J
   F. Weigend, Phys. Chem. Chem. Phys. 8, 1057 (2006).

================================================================================
                                        WARNINGS
                       Please study these warnings very carefully!
================================================================================

Using LibXC functional ID 497 : Re-regularized SCAN exchange by Furness et al
[ 1]  J. W. Furness, A. D. Kaplan, J. Ning, J. P. Perdew, and J. Sun.,  J. Phys. Chem. Lett. 11, 8208-8215 (2020)
[ 2]  J. W. Furness, A. D. Kaplan, J. Ning, J. P. Perdew, and J. Sun.,  J. Phys. Chem. Lett. 11, 9248-9248 (2020)
Using LibXC functional ID 498 : Re-regularized SCAN correlation by Furness et al
[ 1]  J. W. Furness, A. D. Kaplan, J. Ning, J. P. Perdew, and J. Sun.,  J. Phys. Chem. Lett. 11, 8208-8215 (2020)
[ 2]  J. W. Furness, A. D. Kaplan, J. Ning, J. P. Perdew, and J. Sun.,  J. Phys. Chem. Lett. 11, 9248-9248 (2020)
Using LibXC functional ID 497 : Re-regularized SCAN exchange by Furness et al
[ 1]  J. W. Furness, A. D. Kaplan, J. Ning, J. P. Perdew, and J. Sun.,  J. Phys. Chem. Lett. 11, 8208-8215 (2020)
[ 2]  J. W. Furness, A. D. Kaplan, J. Ning, J. P. Perdew, and J. Sun.,  J. Phys. Chem. Lett. 11, 9248-9248 (2020)
Using LibXC functional ID 498 : Re-regularized SCAN correlation by Furness et al
[ 1]  J. W. Furness, A. D. Kaplan, J. Ning, J. P. Perdew, and J. Sun.,  J. Phys. Chem. Lett. 11, 8208-8215 (2020)
[ 2]  J. W. Furness, A. D. Kaplan, J. Ning, J. P. Perdew, and J. Sun.,  J. Phys. Chem. Lett. 11, 9248-9248 (2020)

================================================================================
                                       INPUT FILE
================================================================================
NAME = sp_gas.inp
|  1> ! r2scan-3c def2/J RI DEFGRID2 scfconv6 printgap
|  2> %output
|  3>     printlevel normal
|  4> end
|  5> * xyz 0 1
|  6> C -2.5617619164 -0.6473225604 -0.337244087
|  7> C -1.1829754418 -0.2879994512 0.2243894251
|  8> H -1.240663308 -0.2437453573 1.3223711006
|  9> C -0.7056810807 1.0743135839 -0.2948978559
| 10> H -0.708387473 1.0598452371 -1.396438334
| 11> C 0.7334265074 1.3342124347 0.1726600533
| 12> H 0.7404597989 1.4329957933 1.2698551027
| 13> C 1.6314180148 0.1548913659 -0.211101419
| 14> H 1.6901887191 0.0972479553 -1.3098034231
| 15> C 1.0141728159 -1.1528454267 0.3245917336
| 16> H 1.0134579346 -1.1149551941 1.4277917243
| 17> O -0.291002908 -1.3176309054 -0.1678043451
| 18> O 1.7649340823 -2.2566916631 -0.0367060297
| 19> O 2.9058445673 0.3761946153 0.3390166902
| 20> O 1.1615522062 2.5339255175 -0.423243367
| 21> O -1.5826922881 2.0575995894 0.1828166169
| 22> O -3.0983789021 -1.7962167874 0.2616682928
| 23> H -2.4737305296 -0.778173909 -1.4229428904
| 24> H -3.2486005372 0.1721646902 -0.1227246888
| 25> H 1.5192028813 -2.5302076836 -0.9350462319
| 26> H 3.4282488888 -0.4373244131 0.2683268258
| 27> H 2.093093013 2.6759563479 -0.1994618943
| 28> H -1.2219998647 2.9263136485 -0.0545953903
| 29> H -2.4792478423 -2.5292456555 0.1294427212
| 30> *
| 31> 
| 32>                          ****END OF INPUT****
================================================================================

                       ****************************
                       * Single Point Calculation *
                       ****************************

---------------------------------
CARTESIAN COORDINATES (ANGSTROEM)
---------------------------------
  C     -2.561762   -0.647323   -0.337244
  C     -1.182975   -0.287999    0.224389
  H     -1.240663   -0.243745    1.322371
  C     -0.705681    1.074314   -0.294898
  H     -0.708387    1.059845   -1.396438
  C      0.733427    1.334212    0.172660
  H      0.740460    1.432996    1.269855
  C      1.631418    0.154891   -0.211101
  H      1.690189    0.097248   -1.309803
  C      1.014173   -1.152845    0.324592
  H      1.013458   -1.114955    1.427792
  O     -0.291003   -1.317631   -0.167804
  O      1.764934   -2.256692   -0.036706
  O      2.905845    0.376195    0.339017
  O      1.161552    2.533926   -0.423243
  O     -1.582692    2.057600    0.182817
  O     -3.098379   -1.796217    0.261668
  H     -2.473731   -0.778174   -1.422943
  H     -3.248601    0.172165   -0.122725
  H      1.519203   -2.530208   -0.935046
  H      3.428249   -0.437324    0.268327
  H      2.093093    2.675956   -0.199462
  H     -1.222000    2.926314   -0.054595
  H     -2.479248   -2.529246    0.129443

----------------------------
CARTESIAN COORDINATES (A.U.)
----------------------------
  NO LB      ZA    FRAG     MASS         X           Y           Z
   0 C     6.0000    0    12.011   -4.841028   -1.223262   -0.637299
   1 C     6.0000    0    12.011   -2.235500   -0.544240    0.424035
   2 H     1.0000    0     1.008   -2.344514   -0.460612    2.498919
   3 C     6.0000    0    12.011   -1.333544    2.030158   -0.557276
   4 H     1.0000    0     1.008   -1.338658    2.002817   -2.638886
   5 C     6.0000    0    12.011    1.385975    2.521296    0.326280
   6 H     1.0000    0     1.008    1.399266    2.707970    2.399678
   7 C     6.0000    0    12.011    3.082933    0.292702   -0.398924
   8 H     1.0000    0     1.008    3.193994    0.183772   -2.475170
   9 C     6.0000    0    12.011    1.916509   -2.178562    0.613389
  10 H     1.0000    0     1.008    1.915158   -2.106960    2.698135
  11 O     8.0000    0    15.999   -0.549916   -2.489962   -0.317104
  12 O     8.0000    0    15.999    3.335242   -4.264529   -0.069364
  13 O     8.0000    0    15.999    5.491250    0.710905    0.640649
  14 O     8.0000    0    15.999    2.195016    4.788425   -0.799814
  15 O     8.0000    0    15.999   -2.990855    3.888300    0.345473
  16 O     8.0000    0    15.999   -5.855088   -3.394358    0.494481
  17 H     1.0000    0     1.008   -4.674673   -1.470536   -2.688972
  18 H     1.0000    0     1.008   -6.138965    0.325344   -0.231916
  19 H     1.0000    0     1.008    2.870877   -4.781400   -1.766981
  20 H     1.0000    0     1.008    6.478452   -0.826423    0.507064
  21 H     1.0000    0     1.008    3.955373    5.056825   -0.376928
  22 H     1.0000    0     1.008   -2.309245    5.529931   -0.103170
  23 H     1.0000    0     1.008   -4.685099   -4.779582    0.244611

--------------------------------
INTERNAL COORDINATES (ANGSTROEM)
--------------------------------
 C      0   0   0     0.000000000000     0.00000000     0.00000000
 C      1   0   0     1.531534342174     0.00000000     0.00000000
 H      2   1   0     1.100386329644   109.15656677     0.00000000
 C      2   1   3     1.534068444676   111.36538463   240.14602684
 H      4   2   1     1.101638816723   109.02894178   303.87848644
 C      4   2   1     1.535313798945   109.80835676   185.73491186
 H      6   4   2     1.101655388746   108.93322893   294.24718729
 C      6   4   2     1.531162890845   110.06083982    52.91435724
 H      8   6   4     1.101781671786   108.75446490    65.21824684
 C      8   6   4     1.542120069264   109.35038379   306.45387067
 H     10   8   6     1.103850714663   108.56138411   295.33793366
 O     10   8   6     1.404667869130   110.46410655    56.91298814
 O     10   8   6     1.382987731871   111.64278041   177.88402060
 O      8   6   4     1.405620183400   108.20293794   185.27909324
 O      6   4   2     1.406308636587   107.50117447   174.97059801
 O      4   2   1     1.401503173040   108.23813197    63.99757935
 O      1   2   3     1.402359359385   112.33904267   308.00471036
 H      1   2   3     1.097093201235   108.58126936   185.06393246
 H      1   2   3     1.090561881382   108.57558689    66.01052570
 H     13  10   8     0.970674999938   109.22356987   276.71612564
 H     14   8   6     0.969389777963   109.14355519   168.13678314
 H     15   6   4     0.968513902348   108.66342353   184.70886214
 H     16   4   2     0.970117313493   108.19070000   173.24418230
 H     17   1   2     0.968575341655   108.48900902   302.27208080

---------------------------
INTERNAL COORDINATES (A.U.)
---------------------------
 C      0   0   0     0.000000000000     0.00000000     0.00000000
 C      1   0   0     2.894180471404     0.00000000     0.00000000
 H      2   1   0     2.079428804538   109.15656677     0.00000000
 C      2   1   3     2.898969231128   111.36538463   240.14602684
 H      4   2   1     2.081795662104   109.02894178   303.87848644
 C      4   2   1     2.901322609635   109.80835676   185.73491186
 H      6   4   2     2.081826978689   108.93322893   294.24718729
 C      6   4   2     2.893478530120   110.06083982    52.91435724
 H      8   6   4     2.082065619049   108.75446490    65.21824684
 C      8   6   4     2.914184596533   109.35038379   306.45387067
 H     10   8   6     2.085975543447   108.56138411   295.33793366
 O     10   8   6     2.654437581775   110.46410655    56.91298814
 O     10   8   6     2.613468059810   111.64278041   177.88402060
 O      8   6   4     2.656237194938   108.20293794   185.27909324
 O      6   4   2     2.657538182918   107.50117447   174.97059801
 O      4   2   1     2.648457172866   108.23813197    63.99757935
 O      1   2   3     2.650075130578   112.33904267   308.00471036
 H      1   2   3     2.073205693722   108.58126936   185.06393246
 H      1   2   3     2.060863287905   108.57558689    66.01052570
 H     13  10   8     1.834309914926   109.22356987   276.71612564
 H     14   8   6     1.831881197373   109.14355519   168.13678314
 H     15   6   4     1.830226032333   108.66342353   184.70886214
 H     16   4   2     1.833256040277   108.19070000   173.24418230
 H     17   1   2     1.830342135797   108.48900902   302.27208080

---------------------
BASIS SET INFORMATION
---------------------
There are 3 groups of distinct atoms

 Group   1 Type C   : 11s6p1d contracted to 5s3p1d pattern {62111/411/1}
 Group   2 Type H   : 4s1p contracted to 2s1p pattern {31/1}
 Group   3 Type O   : 11s6p2d contracted to 5s3p2d pattern {62111/411/11}

Atom   0C    basis set group =>   1
Atom   1C    basis set group =>   1
Atom   2H    basis set group =>   2
Atom   3C    basis set group =>   1
Atom   4H    basis set group =>   2
Atom   5C    basis set group =>   1
Atom   6H    basis set group =>   2
Atom   7C    basis set group =>   1
Atom   8H    basis set group =>   2
Atom   9C    basis set group =>   1
Atom  10H    basis set group =>   2
Atom  11O    basis set group =>   3
Atom  12O    basis set group =>   3
Atom  13O    basis set group =>   3
Atom  14O    basis set group =>   3
Atom  15O    basis set group =>   3
Atom  16O    basis set group =>   3
Atom  17H    basis set group =>   2
Atom  18H    basis set group =>   2
Atom  19H    basis set group =>   2
Atom  20H    basis set group =>   2
Atom  21H    basis set group =>   2
Atom  22H    basis set group =>   2
Atom  23H    basis set group =>   2
---------------------------------
AUXILIARY/J BASIS SET INFORMATION
---------------------------------
There are 3 groups of distinct atoms

 Group   1 Type C   : 12s5p4d2f1g contracted to 6s4p3d1f1g pattern {711111/2111/211/2/1}
 Group   2 Type H   : 5s2p1d contracted to 3s1p1d pattern {311/2/1}
 Group   3 Type O   : 12s5p4d2f1g contracted to 6s4p3d1f1g pattern {711111/2111/211/2/1}

Atom   0C    basis set group =>   1
Atom   1C    basis set group =>   1
Atom   2H    basis set group =>   2
Atom   3C    basis set group =>   1
Atom   4H    basis set group =>   2
Atom   5C    basis set group =>   1
Atom   6H    basis set group =>   2
Atom   7C    basis set group =>   1
Atom   8H    basis set group =>   2
Atom   9C    basis set group =>   1
Atom  10H    basis set group =>   2
Atom  11O    basis set group =>   3
Atom  12O    basis set group =>   3
Atom  13O    basis set group =>   3
Atom  14O    basis set group =>   3
Atom  15O    basis set group =>   3
Atom  16O    basis set group =>   3
Atom  17H    basis set group =>   2
Atom  18H    basis set group =>   2
Atom  19H    basis set group =>   2
Atom  20H    basis set group =>   2
Atom  21H    basis set group =>   2
Atom  22H    basis set group =>   2
Atom  23H    basis set group =>   2

Checking for AutoStart:
The File: sp_gas.gbw exists
Trying to determine its content:
     ... Fine, the file contains calculation information
     ... Fine, the calculation information was read
     ... Fine, the file contains a basis set
     ... Fine, the basis set was read
     ... Fine, the file contains a geometry
     ... Fine, the geometry was read
     ... Fine, the file contains a set of orbitals
     ... Fine, the orbitals can be read
     => possible old guess file was deleted
     => GBW file was renamed to GES file
     => GES file is set as startup file
     => Guess is set to MORead
     ... now leaving AutoStart

------------------------------------------------------------------------------
                             ORCA STARTUP CALCULATIONS
                           -- RI-GTO INTEGRALS CHOSEN --
------------------------------------------------------------------------------
------------------------------------------------------------------------------
                   ___                                                        
                  /   \      - P O W E R E D   B Y -                         
                 /     \                                                     
                 |  |  |   _    _      __       _____    __    __             
                 |  |  |  | |  | |    /  \     |  _  \  |  |  /  |          
                  \  \/   | |  | |   /    \    | | | |  |  | /  /          
                 / \  \   | |__| |  /  /\  \   | |_| |  |  |/  /          
                |  |  |   |  __  | /  /__\  \  |    /   |      \           
                |  |  |   | |  | | |   __   |  |    \   |  |\   \          
                \     /   | |  | | |  |  |  |  | |\  \  |  | \   \       
                 \___/    |_|  |_| |__|  |__|  |_| \__\ |__|  \__/        
                                                                              
                      - O R C A' S   B I G   F R I E N D -                    
                                      &                                       
                       - I N T E G R A L  F E E D E R -                       
                                                                              
 v1 FN, 2020, v2 2021, v3 2022-2024                                           
------------------------------------------------------------------------------


----------------------
SHARK INTEGRAL PACKAGE
----------------------

Number of atoms                             ...     24
Number of basis functions                   ...    318
Number of shells                            ...    150
Maximum angular momentum                    ...      2
Integral batch strategy                     ... SHARK/LIBINT Hybrid
RI-J (if used) integral strategy            ... SPLIT-RIJ (Revised 2003 algorithm where possible)
Printlevel                                  ...      1
Contraction scheme used                     ... SEGMENTED contraction
Prescreening option                         ... SCHWARTZ
   Thresh                                   ... 1.000e-10
   Tcut                                     ... 1.000e-11
   Tpresel                                  ... 1.000e-11 
Coulomb Range Separation                    ... NOT USED
Exchange Range Separation                   ... NOT USED
Multipole approximations                    ... NOT USED
Finite Nucleus Model                        ... NOT USED
CABS basis                                  ... NOT available
Auxiliary Coulomb fitting basis             ... AVAILABLE
   # of basis functions in Aux-J            ...    720
   # of shells in Aux-J                     ...    240
   Maximum angular momentum in Aux-J        ...      4
Auxiliary J/K fitting basis                 ... NOT available
Auxiliary Correlation fitting basis         ... NOT available
Auxiliary 'external' fitting basis          ... NOT available

Checking pre-screening integrals            ... done (  0.0 sec) Dimension = 150
Check shell pair data                       ... done (  0.0 sec)
Shell pair information
Shell pair cut-off parameter TPreSel        ...   1.0e-11
Total number of shell pairs                 ...     11325
Shell pairs after pre-screening             ...      9629
Total number of primitive shell pairs       ...     40203
Primitive shell pairs kept                  ...     23326
          la=0 lb=0:   2906 shell pairs
          la=1 lb=0:   3450 shell pairs
          la=1 lb=1:   1038 shell pairs
          la=2 lb=0:   1306 shell pairs
          la=2 lb=1:    771 shell pairs
          la=2 lb=2:    158 shell pairs

Calculating one electron integrals          ... done (  0.0 sec)
Calculating RI/J V-Matrix + Cholesky decomp.... done (  0.1 sec)
Calculating Nuclear repulsion               ... done (  0.0 sec) ENN=    825.306992938025 Eh

Diagonalization of the overlap matrix:
Smallest eigenvalue                        ... 2.826e-05
Time for diagonalization                   ...    0.010 sec
Threshold for overlap eigenvalues          ... 1.000e-07
Number of eigenvalues below threshold      ... 0
Time for construction of square roots      ...    0.025 sec
Total time needed                          ...    0.072 sec

-------------------
DFT GRID GENERATION
-------------------

General Integration Accuracy     IntAcc      ... 4.388
Radial Grid Type                 RadialGrid  ... OptM3 with GC (2021)
Angular Grid (max. ang.)         AngularGrid ... 4 (Lebedev-302)
Angular grid pruning method      GridPruning ... 4 (adaptive)
Weight generation scheme         WeightScheme... mBecke (2022)
Basis function cutoff            BFCut       ... 1.0000e-10
Integration weight cutoff        WCut        ... 1.0000e-14
Partially contracted basis set               ... off
Rotationally invariant grid construction     ... off
Angular grids for H and He will be reduced by one unit
Diffuse basis detected: some atoms will have their outermost
                        angular grid increased by 1.

Total number of grid points                  ...   112029
Total number of batches                      ...     1763
Average number of points per batch           ...       63
Average number of grid points per atom       ...     4668
Initializing property integral containers    ... done (  0.0 sec)

SHARK setup successfully completed in   1.7 seconds

Maximum memory used throughout the entire STARTUP-calculation: 54.6 MB
-------------------------------------------------------------------------------
                                 ORCA GUESS
                   Start orbitals & Density for SCF / CASSCF
-------------------------------------------------------------------------------

------------
SCF SETTINGS
------------
Hamiltonian:
 Density Functional     Method          .... DFT(GTOs)
  Functional kind                       .... Exchange
  Functional name                       .... Re-regularized SCAN exchange by Furness et al
  Functional family                     .... MGGA
  Functional refs                              
    [ 0] J. W. Furness, A. D. Kaplan, J. Ning, J. P. Perdew, and J. Sun.,  J. Phys. Chem. Lett. 11, 8208-8215 (2020), doi: 10.1021/acs.jpclett.0c02405
    [ 1] J. W. Furness, A. D. Kaplan, J. Ning, J. P. Perdew, and J. Sun.,  J. Phys. Chem. Lett. 11, 9248-9248 (2020), doi: 10.1021/acs.jpclett.0c03077
  Functional external parameters        .... 6
    Parameter  0 _c1        =  6.670000e-01 : c1 parameter        
    Parameter  1 _c2        =  8.000000e-01 : c2 parameter        
    Parameter  2 _d         =  1.240000e+00 : d parameter         
    Parameter  3 _k1        =  6.500000e-02 : k1 parameter        
    Parameter  4 _eta       =  1.000000e-03 : eta parameter       
    Parameter  5 _dp2       =  3.610000e-01 : dp2 parameter       
  Functional kind                       .... Correlation
  Functional name                       .... Re-regularized SCAN correlation by Furness et al
  Functional family                     .... MGGA
  Functional refs                              
    [ 0] J. W. Furness, A. D. Kaplan, J. Ning, J. P. Perdew, and J. Sun.,  J. Phys. Chem. Lett. 11, 8208-8215 (2020), doi: 10.1021/acs.jpclett.0c02405
    [ 1] J. W. Furness, A. D. Kaplan, J. Ning, J. P. Perdew, and J. Sun.,  J. Phys. Chem. Lett. 11, 9248-9248 (2020), doi: 10.1021/acs.jpclett.0c03077
  Functional external parameters        .... 1
    Parameter  0 _eta       =  1.000000e-03 : Regularization parameter
 Gradients option       PostSCFGGA      .... off
 RI-approximation to the Coulomb term is turned on
   Number of AuxJ basis functions       .... 720


General Settings:
 Integral files         IntName         .... sp_gas
 Hartree-Fock type      HFTyp           .... RHF
 Total Charge           Charge          ....    0
 Multiplicity           Mult            ....    1
 Number of Electrons    NEL             ....   96
 Basis Dimension        Dim             ....  318
 Nuclear Repulsion      ENuc            ....    825.3069929380 Eh

Convergence Acceleration:
 AO-DIIS                CNVDIIS         .... on
   Start iteration      DIISMaxIt       ....    12
   Startup error        DIISStart       ....  0.200000
   # of expansion vecs  DIISMaxEq       ....     5
   Bias factor          DIISBfac        ....   1.050
   Max. coefficient     DIISMaxC        ....  10.000
 MO-DIIS                CNVKDIIS        .... off
 Trust-Rad. Augm. Hess. CNVTRAH         .... auto
   Auto Start mean grad. ratio tolernc. ....  1.125000
   Auto Start start iteration           ....     1
   Auto Start num. interpolation iter.  ....    10
   Max. Number of Micro iterations      ....    24
   Max. Number of Macro iterations      .... Maxiter - #DIIS iter
   Number of Davidson start vectors     ....     2
   Converg. threshold    (grad. norm)   ....   3.330e-04
   Grad. Scal. Fac. for Micro threshold ....   0.100
   Minimum threshold for Micro iter.    ....   1.000e-02
   NR start threshold (gradient norm)   ....   1.000e-04
   Initial trust radius                 ....   0.400
   Minimum AH scaling param. (alpha)    ....   1.000
   Maximum AH scaling param. (alpha)    .... 1000.000
   Quad. conv. algorithm                .... NR
   White noise on init. David. guess    .... on
   Maximum white noise                  ....   0.010
   Pseudo random numbers                .... off
   Inactive MOs                         .... canonical
   Orbital update algorithm             .... Taylor
   Preconditioner                       .... Diag
   Full preconditioner red. dimension   ....   250
   COSX micro iterations for RIJONX calc.... off
 SOSCF                  CNVSOSCF        .... on
   Start iteration      SOSCFMaxIt      ....   150
   Startup grad/error   SOSCFStart      ....  0.003300
   Hessian update       SOSCFHessUp     .... L-BFGS
 Level Shifting         CNVShift        .... on
   Level shift para.    LevelShift      ....    0.2500
   Turn off err/grad.   ShiftErr        ....    0.0010
 Zerner damping         CNVZerner       .... off
 Static damping         CNVDamp         .... on
   Fraction old density DampFac         ....    0.7000
   Max. Damping (<1)    DampMax         ....    0.9800
   Min. Damping (>=0)   DampMin         ....    0.0000
   Turn off err/grad.   DampErr         ....    0.1000

SCF Procedure:
 Maximum # iterations   MaxIter         ....   125
 SCF integral mode      SCFMode         .... Direct
   Integral package                     .... SHARK and LIBINT hybrid scheme
 Reset frequency        DirectResetFreq ....    20
 Integral Threshold     Thresh          ....  1.000e-10 Eh
 Primitive CutOff       TCut            ....  1.000e-11 Eh

Convergence Tolerance:
 Convergence Check Mode ConvCheckMode   .... Total+1el-Energy
 Convergence forced     ConvForced      .... 0
 Energy Change          TolE            ....  1.000e-06 Eh
 1-El. energy change                    ....  1.000e-03 Eh
 Orbital Gradient       TolG            ....  3.330e-04
 Orbital Rotation angle TolX            ....  3.330e-04
 DIIS Error             TolErr          ....  1.000e-06

---------------------
INITIAL GUESS: MOREAD
---------------------
Guess MOs are being read from file: sp_gas.ges
Input Geometry matches current geometry (good)
Atom 0: N(Shells)= 9 and 6 - projection required
Input basis set needs projection
NBasis(read)= 192
NBasis(calc)= 318
Basis set overlap was calculated
Using GuessMode=FMatrix for the initial guess
C*T matrix was formed
Effective Fockian was calculated
Effective Fockian was diagonalized
Initial density was built
                      ------------------
                      INITIAL GUESS DONE (   0.1 sec)
                      ------------------
             **** ENERGY FILE WAS UPDATED (sp_gas.en.tmp) ****
Finished Guess after   0.5 sec
Maximum memory used throughout the entire GUESS-calculation: 26.7 MB

-------------------------------------------------------------------------------------------
                                      ORCA LEAN-SCF
                              memory conserving SCF solver
-------------------------------------------------------------------------------------------

----------------------------------------D-I-I-S--------------------------------------------
Iteration    Energy (Eh)           Delta-E    RMSDP     MaxDP     DIISErr   Damp  Time(sec)
-------------------------------------------------------------------------------------------
               ***  Starting incremental Fock matrix formation  ***
    1    -686.6907514458143851     0.00e+00  9.49e-03  6.24e-01  6.27e-01  0.700   5.2
    2    -686.8094422724052492    -1.19e-01  6.81e-03  3.65e-01  4.41e-01  0.700   4.6
    3    -686.8935860963722462    -8.41e-02  4.78e-03  2.29e-01  3.09e-01  0.700   4.5
    4    -686.9527100145951408    -5.91e-02  3.36e-03  1.52e-01  2.16e-01  0.700   4.4
                               ***Turning on AO-DIIS***
    5    -686.9942074772263823    -4.15e-02  2.37e-03  1.07e-01  1.51e-01  0.700   4.3
    6    -687.0233122892504980    -2.91e-02  1.67e-03  7.48e-02  1.06e-01  0.700   4.2
    7    -687.0437257194992071    -2.04e-02  1.17e-03  5.23e-02  7.42e-02  0.700   4.1
    8    -687.0580347663071734    -1.43e-02  2.73e-03  1.23e-01  5.20e-02  0.000   4.0
                              *** Initializing SOSCF ***
---------------------------------------S-O-S-C-F--------------------------------------
Iteration    Energy (Eh)           Delta-E    RMSDP     MaxDP     MaxGrad    Time(sec)
--------------------------------------------------------------------------------------
    9    -687.0914855596611233    -3.35e-02  1.12e-05  4.72e-04  1.76e-04     4.2
               *** Restarting incremental Fock matrix formation ***
   10    -687.0914856493700427    -8.97e-08  2.16e-05  1.80e-03  2.49e-05     5.1
                  *** Gradient check signals convergence ***

               *****************************************************
               *                     SUCCESS                       *
               *           SCF CONVERGED AFTER  10 CYCLES          *
               *****************************************************

             **** ENERGY FILE WAS UPDATED (sp_gas.en.tmp) ****

----------------
TOTAL SCF ENERGY
----------------

Total Energy       :       -687.09148564937004 Eh          -18696.70985 eV

Components:
Nuclear Repulsion  :        825.30699293802491 Eh           22457.74501 eV
Electronic Energy  :      -1512.39847858739495 Eh          -41154.45485 eV
One Electron Energy:      -2580.41568356830521 Eh          -70216.68050 eV
Two Electron Energy:       1068.01720498091026 Eh           29062.22564 eV

Virial components:
Potential Energy   :      -1371.49493566530487 Eh          -37320.27453 eV
Kinetic Energy     :        684.40345001593482 Eh           18623.56468 eV
Virial Ratio       :          2.00392756002819

DFT components:
N(Alpha)           :       47.999995510768 electrons
N(Beta)            :       47.999995510768 electrons
N(Total)           :       95.999991021537 electrons
E(X)               :      -85.277316432300 Eh       
E(C)               :       -3.192497750307 Eh       
E(XC)              :      -88.469814182607 Eh       

---------------
SCF CONVERGENCE
---------------

  Last Energy change         ...    8.9709e-08  Tolerance :   1.0000e-06
  Last MAX-Density change    ...    1.7999e-03  Tolerance :   1.0000e-05
  Last RMS-Density change    ...    2.1608e-05  Tolerance :   1.0000e-06
  Last DIIS Error            ...    1.7637e-04  Tolerance :   1.0000e-06
  Last Orbital Gradient      ...    2.4944e-05  Tolerance :   3.3300e-04
  Last Orbital Rotation      ...    4.2927e-05  Tolerance :   3.3300e-04


----------------
ORBITAL ENERGIES
----------------

  NO   OCC          E(Eh)            E(eV) 
   0   2.0000     -18.984392      -516.5916 
   1   2.0000     -18.982348      -516.5360 
   2   2.0000     -18.971224      -516.2332 
   3   2.0000     -18.967058      -516.1199 
   4   2.0000     -18.962372      -515.9924 
   5   2.0000     -18.950397      -515.6665 
   6   2.0000     -10.149841      -276.1912 
   7   2.0000     -10.097837      -274.7761 
   8   2.0000     -10.097053      -274.7548 
   9   2.0000     -10.096915      -274.7510 
  10   2.0000     -10.096625      -274.7431 
  11   2.0000     -10.079900      -274.2880 
  12   2.0000      -1.065756       -29.0007 
  13   2.0000      -1.020701       -27.7747 
  14   2.0000      -1.011529       -27.5251 
  15   2.0000      -0.997968       -27.1561 
  16   2.0000      -0.991714       -26.9859 
  17   2.0000      -0.985036       -26.8042 
  18   2.0000      -0.759457       -20.6659 
  19   2.0000      -0.742903       -20.2154 
  20   2.0000      -0.659951       -17.9582 
  21   2.0000      -0.626683       -17.0529 
  22   2.0000      -0.597575       -16.2608 
  23   2.0000      -0.572427       -15.5765 
  24   2.0000      -0.536533       -14.5998 
  25   2.0000      -0.521335       -14.1862 
  26   2.0000      -0.496326       -13.5057 
  27   2.0000      -0.482146       -13.1199 
  28   2.0000      -0.474650       -12.9159 
  29   2.0000      -0.467282       -12.7154 
  30   2.0000      -0.444189       -12.0870 
  31   2.0000      -0.426416       -11.6034 
  32   2.0000      -0.421588       -11.4720 
  33   2.0000      -0.396564       -10.7910 
  34   2.0000      -0.387484       -10.5440 
  35   2.0000      -0.371523       -10.1096 
  36   2.0000      -0.357939        -9.7400 
  37   2.0000      -0.355290        -9.6679 
  38   2.0000      -0.338455        -9.2098 
  39   2.0000      -0.326867        -8.8945 
  40   2.0000      -0.321057        -8.7364 
  41   2.0000      -0.294211        -8.0059 
  42   2.0000      -0.290264        -7.8985 
  43   2.0000      -0.271676        -7.3927 
  44   2.0000      -0.257540        -7.0080 
  45   2.0000      -0.247695        -6.7401 
  46   2.0000      -0.241753        -6.5784 
  47   2.0000      -0.234457        -6.3799 
  48   0.0000       0.027090         0.7372 
  49   0.0000       0.042331         1.1519 
  50   0.0000       0.067834         1.8459 
  51   0.0000       0.074566         2.0290 
  52   0.0000       0.083306         2.2669 
  53   0.0000       0.084033         2.2867 
  54   0.0000       0.095386         2.5956 
  55   0.0000       0.120680         3.2839 
  56   0.0000       0.122173         3.3245 
  57   0.0000       0.130577         3.5532 
  58   0.0000       0.140126         3.8130 
*Only the first 10 virtual orbitals were printed.

                    ********************************
                    * MULLIKEN POPULATION ANALYSIS *
                    ********************************

-----------------------
MULLIKEN ATOMIC CHARGES
-----------------------
   0 C :   -0.285429
   1 C :   -0.067927
   2 H :    0.184382
   3 C :    0.032023
   4 H :    0.166627
   5 C :   -0.038523
   6 H :    0.171719
   7 C :    0.105889
   8 H :    0.162973
   9 C :   -0.143439
  10 H :    0.159195
  11 O :   -0.211621
  12 O :   -0.385621
  13 O :   -0.442061
  14 O :   -0.444349
  15 O :   -0.442453
  16 O :   -0.410910
  17 H :    0.140916
  18 H :    0.170702
  19 H :    0.324467
  20 H :    0.311133
  21 H :    0.315721
  22 H :    0.315914
  23 H :    0.310672
Sum of atomic charges:   -0.0000000

--------------------------------
MULLIKEN REDUCED ORBITAL CHARGES
--------------------------------
  0 C s       :     3.390693  s :     3.390693
      pz      :     1.000137  p :     2.835524
      px      :     0.963291
      py      :     0.872096
      dz2     :     0.015714  d :     0.059212
      dxz     :     0.006627
      dyz     :     0.010396
      dx2y2   :     0.010956
      dxy     :     0.015519

  1 C s       :     3.241010  s :     3.241010
      pz      :     1.069844  p :     2.762308
      px      :     0.858025
      py      :     0.834439
      dz2     :     0.015208  d :     0.064609
      dxz     :     0.008906
      dyz     :     0.009422
      dx2y2   :     0.015018
      dxy     :     0.016054

  2 H s       :     0.798721  s :     0.798721
      pz      :     0.011658  p :     0.016897
      px      :     0.002717
      py      :     0.002521

  3 C s       :     3.167913  s :     3.167913
      pz      :     1.026169  p :     2.732058
      px      :     0.861711
      py      :     0.844178
      dz2     :     0.016743  d :     0.068006
      dxz     :     0.009072
      dyz     :     0.010809
      dx2y2   :     0.016384
      dxy     :     0.014998

  4 H s       :     0.816523  s :     0.816523
      pz      :     0.011483  p :     0.016850
      px      :     0.002784
      py      :     0.002584

  5 C s       :     3.190765  s :     3.190765
      pz      :     1.016744  p :     2.780253
      px      :     0.970126
      py      :     0.793383
      dz2     :     0.017288  d :     0.067504
      dxz     :     0.006971
      dyz     :     0.012392
      dx2y2   :     0.015859
      dxy     :     0.014994

  6 H s       :     0.811488  s :     0.811488
      pz      :     0.011437  p :     0.016793
      px      :     0.002968
      py      :     0.002389

  7 C s       :     3.057662  s :     3.057662
      pz      :     1.033013  p :     2.769783
      px      :     0.810206
      py      :     0.926564
      dz2     :     0.016868  d :     0.066665
      dxz     :     0.013624
      dyz     :     0.006022
      dx2y2   :     0.013629
      dxy     :     0.016521

  8 H s       :     0.820134  s :     0.820134
      pz      :     0.011480  p :     0.016893
      px      :     0.002278
      py      :     0.003135

  9 C s       :     3.415131  s :     3.415131
      pz      :     1.026762  p :     2.634088
      px      :     0.753601
      py      :     0.853726
      dz2     :     0.019940  d :     0.094219
      dxz     :     0.015102
      dyz     :     0.010433
      dx2y2   :     0.025690
      dxy     :     0.023055

 10 H s       :     0.824367  s :     0.824367
      pz      :     0.012139  p :     0.016438
      px      :     0.001905
      py      :     0.002394

 11 O s       :     3.731829  s :     3.731829
      pz      :     1.753792  p :     4.445310
      px      :     1.131284
      py      :     1.560234
      dz2     :     0.008263  d :     0.034482
      dxz     :     0.006510
      dyz     :     0.003222
      dx2y2   :     0.009967
      dxy     :     0.006520

 12 O s       :     3.729395  s :     3.729395
      pz      :     1.433152  p :     4.631265
      px      :     1.702019
      py      :     1.496093
      dz2     :     0.009505  d :     0.024961
      dxz     :     0.004652
      dyz     :    -0.000510
      dx2y2   :     0.004071
      dxy     :     0.007243

 13 O s       :     3.770845  s :     3.770845
      pz      :     1.813439  p :     4.654940
      px      :     1.279723
      py      :     1.561778
      dz2     :     0.003241  d :     0.016276
      dxz     :     0.002103
      dyz     :     0.003409
      dx2y2   :     0.003514
      dxy     :     0.004009

 14 O s       :     3.768575  s :     3.768575
      pz      :     1.778916  p :     4.656392
      px      :     1.399119
      py      :     1.478357
      dz2     :     0.002421  d :     0.019382
      dxz     :     0.004550
      dyz     :     0.004113
      dx2y2   :     0.003624
      dxy     :     0.004673

 15 O s       :     3.772610  s :     3.772610
      pz      :     1.812219  p :     4.653523
      px      :     1.635827
      py      :     1.205477
      dz2     :     0.003716  d :     0.016320
      dxz     :     0.004093
      dyz     :     0.002876
      dx2y2   :     0.001846
      dxy     :     0.003789

 16 O s       :     3.758093  s :     3.758093
      pz      :     1.792565  p :     4.635639
      px      :     1.629719
      py      :     1.213355
      dz2     :     0.003240  d :     0.017178
      dxz     :     0.004290
      dyz     :     0.002098
      dx2y2   :     0.002272
      dxy     :     0.005279

 17 H s       :     0.841961  s :     0.841961
      pz      :     0.011329  p :     0.017123
      px      :     0.003222
      py      :     0.002572

 18 H s       :     0.811780  s :     0.811780
      pz      :     0.003397  p :     0.017518
      px      :     0.006222
      py      :     0.007898

 19 H s       :     0.633022  s :     0.633022
      pz      :     0.020779  p :     0.042512
      px      :     0.011083
      py      :     0.010649

 20 H s       :     0.645725  s :     0.645725
      pz      :     0.011731  p :     0.043142
      px      :     0.012190
      py      :     0.019221

 21 H s       :     0.641171  s :     0.641171
      pz      :     0.011927  p :     0.043108
      px      :     0.021928
      py      :     0.009253

 22 H s       :     0.641101  s :     0.641101
      pz      :     0.012325  p :     0.042985
      px      :     0.011388
      py      :     0.019273

 23 H s       :     0.646437  s :     0.646437
      pz      :     0.011715  p :     0.042891
      px      :     0.015375
      py      :     0.015801


------------------------
MULLIKEN OVERLAP CHARGES
------------------------
B(  0-C ,  2-H ) :   0.0530 B(  0-C ,  3-C ) :   0.1355 B(  0-C , 15-O ) :   0.0502 
B(  0-C , 16-O ) :   0.5030 B(  0-C , 17-H ) :   0.9665 B(  0-C , 18-H ) :   0.8200 
B(  0-C , 23-H ) :  -0.0601 B(  1-C ,  2-H ) :   0.8224 B(  1-C ,  3-C ) :  -0.7907 
B(  1-C ,  5-C ) :   0.1507 B(  1-C ,  7-C ) :   0.3086 B(  1-C ,  9-C ) :  -0.6965 
B(  1-C , 11-O ) :   0.1642 B(  1-C , 15-O ) :  -0.0840 B(  1-C , 16-O ) :  -0.1158 
B(  1-C , 17-H ) :  -0.1814 B(  1-C , 18-H ) :  -0.0601 B(  2-H ,  3-C ) :  -0.1004 
B(  2-H , 11-O ) :  -0.0970 B(  3-C ,  4-H ) :   0.8065 B(  3-C ,  5-C ) :  -0.3386 
B(  3-C ,  6-H ) :  -0.1078 B(  3-C ,  7-C ) :  -0.2274 B(  3-C ,  8-H ) :   0.0642 
B(  3-C ,  9-C ) :   0.2680 B(  3-C , 11-O ) :  -0.0635 B(  3-C , 14-O ) :  -0.0677 
B(  3-C , 15-O ) :   0.2428 B(  3-C , 22-H ) :  -0.1484 B(  4-H ,  5-C ) :  -0.1642 
B(  4-H ,  7-C ) :   0.0905 B(  4-H , 15-O ) :  -0.0998 B(  5-C ,  6-H ) :   0.9209 
B(  5-C ,  7-C ) :  -0.4293 B(  5-C ,  8-H ) :  -0.1065 B(  5-C ,  9-C ) :   0.0813 
B(  5-C , 14-O ) :   0.3572 B(  5-C , 21-H ) :  -0.0936 B(  6-H ,  7-C ) :  -0.1658 
B(  6-H , 14-O ) :  -0.1052 B(  7-C ,  8-H ) :   0.8123 B(  7-C ,  9-C ) :  -0.7974 
B(  7-C , 10-H ) :  -0.1965 B(  7-C , 11-O ) :  -0.1900 B(  7-C , 12-O ) :  -0.1434 
B(  7-C , 13-O ) :   0.2638 B(  7-C , 14-O ) :  -0.1033 B(  7-C , 20-H ) :  -0.1022 
B(  8-H , 13-O ) :  -0.1005 B(  9-C , 10-H ) :   0.9678 B(  9-C , 11-O ) :   0.4556 
B(  9-C , 12-O ) :   0.5520 B(  9-C , 13-O ) :  -0.0750 B(  9-C , 19-H ) :  -0.0684 
B( 10-H , 11-O ) :  -0.1001 B( 10-H , 12-O ) :  -0.1149 B( 11-O , 12-O ) :  -0.1707 
B( 12-O , 19-H ) :   0.5959 B( 13-O , 20-H ) :   0.5991 B( 14-O , 21-H ) :   0.6034 
B( 15-O , 22-H ) :   0.6065 B( 16-O , 17-H ) :  -0.1076 B( 16-O , 18-H ) :  -0.0932 
B( 16-O , 23-H ) :   0.5889 B( 17-H , 18-H ) :  -0.0639 


                     *******************************
                     * LOEWDIN POPULATION ANALYSIS *
                     *******************************

----------------------
LOEWDIN ATOMIC CHARGES
----------------------
   0 C :    0.044374
   1 C :    0.120633
   2 H :    0.191168
   3 C :    0.115232
   4 H :    0.183406
   5 C :    0.107501
   6 H :    0.186543
   7 C :    0.106207
   8 H :    0.182003
   9 C :    0.293014
  10 H :    0.196639
  11 O :   -0.688443
  12 O :   -0.495756
  13 O :   -0.578001
  14 O :   -0.576633
  15 O :   -0.576462
  16 O :   -0.587905
  17 H :    0.167678
  18 H :    0.198325
  19 H :    0.284684
  20 H :    0.283425
  21 H :    0.283738
  22 H :    0.285009
  23 H :    0.273620

-------------------------------
LOEWDIN REDUCED ORBITAL CHARGES
-------------------------------
  0 C s       :     2.864586  s :     2.864586
      pz      :     1.034059  p :     2.958841
      px      :     0.997149
      py      :     0.927633
      dz2     :     0.036954  d :     0.132199
      dxz     :     0.013568
      dyz     :     0.021968
      dx2y2   :     0.022716
      dxy     :     0.036992

  1 C s       :     2.825563  s :     2.825563
      pz      :     1.057656  p :     2.914176
      px      :     0.952097
      py      :     0.904423
      dz2     :     0.034576  d :     0.139628
      dxz     :     0.018074
      dyz     :     0.019300
      dx2y2   :     0.033088
      dxy     :     0.034590

  2 H s       :     0.768033  s :     0.768033
      pz      :     0.028020  p :     0.040798
      px      :     0.006883
      py      :     0.005896

  3 C s       :     2.823001  s :     2.823001
      pz      :     1.051090  p :     2.915412
      px      :     0.951527
      py      :     0.912794
      dz2     :     0.038072  d :     0.146356
      dxz     :     0.018325
      dyz     :     0.021755
      dx2y2   :     0.035898
      dxy     :     0.032306

  4 H s       :     0.775859  s :     0.775859
      pz      :     0.027613  p :     0.040735
      px      :     0.006695
      py      :     0.006427

  5 C s       :     2.828122  s :     2.828122
      pz      :     1.039353  p :     2.919284
      px      :     0.980370
      py      :     0.899561
      dz2     :     0.039456  d :     0.145093
      dxz     :     0.012509
      dyz     :     0.026556
      dx2y2   :     0.034822
      dxy     :     0.031750

  6 H s       :     0.772842  s :     0.772842
      pz      :     0.027450  p :     0.040615
      px      :     0.006813
      py      :     0.006352

  7 C s       :     2.836391  s :     2.836391
      pz      :     1.039772  p :     2.913780
      px      :     0.878016
      py      :     0.995992
      dz2     :     0.038428  d :     0.143622
      dxz     :     0.028831
      dyz     :     0.010738
      dx2y2   :     0.028676
      dxy     :     0.036949

  8 H s       :     0.777481  s :     0.777481
      pz      :     0.027425  p :     0.040516
      px      :     0.006002
      py      :     0.007089

  9 C s       :     2.771938  s :     2.771938
      pz      :     0.996345  p :     2.729420
      px      :     0.827313
      py      :     0.905762
      dz2     :     0.047554  d :     0.205628
      dxz     :     0.031157
      dyz     :     0.019463
      dx2y2   :     0.056188
      dxy     :     0.051266

 10 H s       :     0.766006  s :     0.766006
      pz      :     0.027326  p :     0.037355
      px      :     0.004717
      py      :     0.005312

 11 O s       :     3.472356  s :     3.472356
      pz      :     1.769595  p :     4.708740
      px      :     1.329252
      py      :     1.609893
      dz2     :     0.091892  d :     0.507347
      dxz     :     0.096282
      dyz     :     0.054655
      dx2y2   :     0.125084
      dxy     :     0.139434

 12 O s       :     3.494151  s :     3.494151
      pz      :     1.493560  p :     4.737516
      px      :     1.691277
      py      :     1.552678
      dz2     :     0.065045  d :     0.264090
      dxz     :     0.028320
      dyz     :     0.052156
      dx2y2   :     0.063554
      dxy     :     0.055014

 13 O s       :     3.500544  s :     3.500544
      pz      :     1.818228  p :     4.794947
      px      :     1.401291
      py      :     1.575428
      dz2     :     0.052294  d :     0.282511
      dxz     :     0.059564
      dyz     :     0.014139
      dx2y2   :     0.065576
      dxy     :     0.090938

 14 O s       :     3.501101  s :     3.501101
      pz      :     1.791846  p :     4.793397
      px      :     1.445635
      py      :     1.555916
      dz2     :     0.053776  d :     0.282136
      dxz     :     0.021751
      dyz     :     0.055103
      dx2y2   :     0.081799
      dxy     :     0.069707

 15 O s       :     3.499785  s :     3.499785
      pz      :     1.813779  p :     4.789109
      px      :     1.653821
      py      :     1.321509
      dz2     :     0.049788  d :     0.287568
      dxz     :     0.033139
      dyz     :     0.046798
      dx2y2   :     0.083773
      dxy     :     0.074070

 16 O s       :     3.514866  s :     3.514866
      pz      :     1.804077  p :     4.802604
      px      :     1.649875
      py      :     1.348653
      dz2     :     0.053458  d :     0.270435
      dxz     :     0.020908
      dyz     :     0.050723
      dx2y2   :     0.062610
      dxy     :     0.082736

 17 H s       :     0.792028  s :     0.792028
      pz      :     0.026667  p :     0.040294
      px      :     0.007086
      py      :     0.006541

 18 H s       :     0.761069  s :     0.761069
      pz      :     0.007871  p :     0.040606
      px      :     0.015583
      py      :     0.017151

 19 H s       :     0.595447  s :     0.595447
      pz      :     0.063120  p :     0.119869
      px      :     0.029356
      py      :     0.027393

 20 H s       :     0.594156  s :     0.594156
      pz      :     0.030564  p :     0.122419
      px      :     0.033511
      py      :     0.058343

 21 H s       :     0.593906  s :     0.593906
      pz      :     0.031933  p :     0.122357
      px      :     0.066285
      py      :     0.024139

 22 H s       :     0.593151  s :     0.593151
      pz      :     0.032824  p :     0.121840
      px      :     0.032229
      py      :     0.056787

 23 H s       :     0.604372  s :     0.604372
      pz      :     0.031056  p :     0.122008
      px      :     0.045542
      py      :     0.045410


---------------------------------
LOEWDIN BOND ORDERS (THRESH 0.050000)
---------------------------------
B(  0-C ,  1-C ) :   0.9287 B(  0-C ,  3-C ) :   0.0723 B(  0-C , 11-O ) :   0.1546 
B(  0-C , 16-O ) :   1.4635 B(  0-C , 17-H ) :   0.8201 B(  0-C , 18-H ) :   0.8046 
B(  1-C ,  2-H ) :   0.7721 B(  1-C ,  3-C ) :   0.8786 B(  1-C ,  5-C ) :   0.0665 
B(  1-C ,  9-C ) :   0.0822 B(  1-C , 11-O ) :   1.3172 B(  1-C , 15-O ) :   0.1613 
B(  1-C , 16-O ) :   0.1644 B(  2-H , 11-O ) :   0.0953 B(  3-C ,  4-H ) :   0.7759 
B(  3-C ,  5-C ) :   0.8852 B(  3-C ,  7-C ) :   0.0687 B(  3-C , 11-O ) :   0.1470 
B(  3-C , 14-O ) :   0.1636 B(  3-C , 15-O ) :   1.4094 B(  4-H , 15-O ) :   0.0964 
B(  5-C ,  6-H ) :   0.7759 B(  5-C ,  7-C ) :   0.8893 B(  5-C ,  9-C ) :   0.0669 
B(  5-C , 13-O ) :   0.1628 B(  5-C , 14-O ) :   1.3997 B(  5-C , 15-O ) :   0.1563 
B(  6-H , 14-O ) :   0.0944 B(  7-C ,  8-H ) :   0.7802 B(  7-C ,  9-C ) :   0.8272 
B(  7-C , 11-O ) :   0.1472 B(  7-C , 12-O ) :   0.1565 B(  7-C , 13-O ) :   1.4046 
B(  7-C , 14-O ) :   0.1547 B(  8-H , 13-O ) :   0.0955 B(  9-C , 10-H ) :   0.7280 
B(  9-C , 11-O ) :   1.2680 B(  9-C , 12-O ) :   1.3895 B(  9-C , 13-O ) :   0.1484 
B( 10-H , 11-O ) :   0.0908 B( 10-H , 12-O ) :   0.0887 B( 11-O , 12-O ) :   0.3084 
B( 11-O , 16-O ) :   0.0540 B( 12-O , 13-O ) :   0.0555 B( 12-O , 19-H ) :   0.9396 
B( 13-O , 14-O ) :   0.0519 B( 13-O , 20-H ) :   0.9463 B( 14-O , 15-O ) :   0.0587 
B( 14-O , 21-H ) :   0.9488 B( 15-O , 22-H ) :   0.9456 B( 16-O , 17-H ) :   0.1028 
B( 16-O , 18-H ) :   0.0981 B( 16-O , 23-H ) :   0.9631 

------------------------------------------
LOEWDIN REDUCED ORBITAL POPULATIONS PER MO
-------------------------------------------
THRESHOLD FOR PRINTING IS 0.1%%
                      0         1         2         3         4         5   
                 -18.98439 -18.98235 -18.97122 -18.96706 -18.96237 -18.95040
                   2.00000   2.00000   2.00000   2.00000   2.00000   2.00000
                  --------  --------  --------  --------  --------  --------
11 O  s              99.9       0.0       0.0       0.0       0.0       0.0
12 O  s               0.0      99.9       0.0       0.0       0.0       0.0
13 O  s               0.0       0.0      99.9       0.0       0.0       0.0
14 O  s               0.0       0.0       0.0      99.9       0.0       0.0
15 O  s               0.0       0.0       0.0       0.0      99.9       0.0
16 O  s               0.0       0.0       0.0       0.0       0.0      99.9

                      6         7         8         9        10        11   
                 -10.14984 -10.09784 -10.09705 -10.09692 -10.09662 -10.07990
                   2.00000   2.00000   2.00000   2.00000   2.00000   2.00000
                  --------  --------  --------  --------  --------  --------
 0 C  s               0.0       0.0       0.0       0.0       0.0      99.4
 1 C  s               0.0      98.8       0.2       0.3       0.0       0.0
 3 C  s               0.0       0.5      28.3      70.4       0.1       0.0
 5 C  s               0.0       0.0      69.1      27.2       3.1       0.0
 7 C  s               0.0       0.0       1.7       1.5      96.1       0.0
 9 C  s              99.0       0.0       0.0       0.0       0.0       0.0
11 O  dx2y2           0.2       0.0       0.0       0.0       0.0       0.0
11 O  dxy             0.0       0.2       0.0       0.0       0.0       0.0
12 O  dxy             0.2       0.0       0.0       0.0       0.0       0.0
13 O  dxz             0.0       0.0       0.0       0.0       0.1       0.0
13 O  dx2y2           0.0       0.0       0.0       0.0       0.1       0.0
15 O  dxy             0.0       0.0       0.1       0.1       0.0       0.0
16 O  dyz             0.0       0.0       0.0       0.0       0.0       0.1

                     12        13        14        15        16        17   
                  -1.06576  -1.02070  -1.01153  -0.99797  -0.99171  -0.98504
                   2.00000   2.00000   2.00000   2.00000   2.00000   2.00000
                  --------  --------  --------  --------  --------  --------
 0 C  s               0.4       0.0       1.3       2.7       0.1       5.8
 0 C  pz              0.1       0.0       0.2       0.4       0.0       1.0
 0 C  px              0.5       0.0       0.2       0.0       0.0       1.5
 0 C  py              0.0       0.1       0.2       1.6       0.0       4.8
 0 C  dyz             0.0       0.0       0.0       0.1       0.0       0.2
 0 C  dx2y2           0.0       0.0       0.0       0.0       0.0       0.2
 0 C  dxy             0.0       0.0       0.0       0.0       0.0       0.2
 1 C  s               3.8       0.1       3.2       1.6       0.1       0.3
 1 C  pz              0.3       0.0       0.3       0.1       0.0       0.0
 1 C  px              2.0       0.0       0.3       0.1       0.1       2.8
 1 C  py              1.6       0.9       0.2       2.2       0.6       0.3
 1 C  dxy             0.2       0.0       0.1       0.1       0.0       0.1
 2 H  s               0.2       0.0       0.2       0.1       0.0       0.0
 3 C  s               0.7       3.5       3.8       0.8       2.1       0.0
 3 C  pz              0.1       0.3       0.4       0.1       0.3       0.0
 3 C  px              0.0       0.2       1.0       0.3       3.2       0.0
 3 C  py              0.5       1.9       0.6       2.2       1.3       0.1
 3 C  dxy             0.0       0.1       0.1       0.1       0.2       0.0
 4 H  s               0.0       0.2       0.2       0.0       0.1       0.0
 5 C  s               0.6       7.8       0.1       0.1       2.1       0.0
 5 C  pz              0.0       1.0       0.0       0.0       0.6       0.0
 5 C  px              0.0       0.4       1.9       0.4       1.2       0.0
 5 C  py              0.3       2.1       0.3       0.6       3.9       0.2
 5 C  dyz             0.0       0.1       0.0       0.0       0.2       0.0
 5 C  dx2y2           0.0       0.1       0.0       0.0       0.2       0.0
 5 C  dxy             0.0       0.1       0.0       0.0       0.1       0.0
 6 H  s               0.0       0.5       0.0       0.0       0.1       0.0
 7 C  s               2.3       3.9       2.8       1.1       0.6       0.1
 7 C  pz              0.2       0.4       0.5       0.2       0.2       0.0
 7 C  px              0.2       1.2       4.2       1.2       2.0       0.0
 7 C  py              1.2       1.8       0.1       0.1       0.3       0.0
 7 C  dxz             0.0       0.1       0.1       0.1       0.1       0.0
 7 C  dx2y2           0.0       0.1       0.1       0.1       0.1       0.0
 8 H  s               0.1       0.2       0.2       0.1       0.0       0.0
 9 C  s              13.9       0.1       0.2       0.2       0.0       0.0
 9 C  pz              1.6       0.0       0.0       0.0       0.0       0.0
 9 C  px              0.6       0.2       5.2       3.3       0.3       3.0
 9 C  py              1.8       1.3       0.3       3.2       0.1       0.9
 9 C  dz2             0.2       0.0       0.0       0.0       0.0       0.0
 9 C  dxz             0.0       0.0       0.1       0.1       0.0       0.1
 9 C  dx2y2           0.1       0.0       0.2       0.2       0.0       0.2
 9 C  dxy             0.1       0.0       0.1       0.2       0.0       0.1
10 H  s               0.8       0.0       0.0       0.0       0.0       0.0
11 O  s              28.5       1.0       8.5       8.2       0.5       8.9
11 O  pz              0.5       0.0       0.1       0.1       0.0       0.1
11 O  px              0.9       0.0       0.4       0.4       0.0       0.0
11 O  py              0.5       0.0       0.5       0.5       0.0       0.3
11 O  dz2             0.5       0.0       0.0       0.0       0.0       0.1
11 O  dx2y2           0.5       0.1       0.1       0.0       0.0       0.2
11 O  dxy             0.2       0.0       0.0       0.1       0.0       0.0
12 O  s              22.3       1.5       8.0      19.6       0.0       8.2
12 O  pz              0.1       0.0       0.1       0.2       0.0       0.1
12 O  px              1.1       0.1       0.1       0.2       0.0       0.1
12 O  py              1.0       0.0       0.1       0.1       0.0       0.1
12 O  dz2             0.2       0.0       0.0       0.1       0.0       0.0
12 O  dx2y2           0.0       0.0       0.1       0.0       0.0       0.0
12 O  dxy             0.5       0.0       0.1       0.0       0.0       0.0
13 O  s               1.7      14.9      21.5      10.8      10.2       0.5
13 O  pz              0.0       0.2       0.2       0.1       0.1       0.0
13 O  px              0.1       0.3       0.2       0.1       0.0       0.0
13 O  py              0.1       0.3       0.6       0.2       0.3       0.0
14 O  s               0.3      27.6       0.5       0.8      29.9       0.4
14 O  pz              0.0       0.5       0.0       0.0       0.4       0.0
14 O  px              0.0       0.1       0.0       0.0       0.3       0.0
14 O  py              0.0       0.9       0.0       0.0       0.5       0.0
14 O  dz2             0.0       0.1       0.0       0.0       0.0       0.0
14 O  dyz             0.0       0.1       0.0       0.0       0.0       0.0
15 O  s               0.3      10.8      15.4       9.3      22.9       0.0
15 O  pz              0.0       0.2       0.2       0.1       0.2       0.0
15 O  px              0.0       0.6       0.6       0.3       0.6       0.0
16 O  s               0.3       0.0       3.0      12.3       0.2      44.3
16 O  pz              0.0       0.0       0.0       0.2       0.0       0.5
16 O  px              0.0       0.0       0.1       0.4       0.0       1.3
16 O  py              0.0       0.0       0.0       0.1       0.0       0.1
17 H  s               0.0       0.0       0.1       0.2       0.0       0.4
18 H  s               0.0       0.0       0.1       0.2       0.0       0.4
19 H  s               3.7       0.3       1.3       3.3       0.0       1.4
19 H  pz              0.6       0.1       0.3       0.7       0.0       0.3
20 H  s               0.4       2.4       3.6       1.8       1.8       0.1
20 H  px              0.0       0.2       0.3       0.1       0.1       0.0
20 H  py              0.0       0.3       0.5       0.3       0.3       0.0
21 H  s               0.1       4.6       0.1       0.1       5.1       0.1
21 H  px              0.0       0.9       0.0       0.0       1.1       0.0
22 H  s               0.1       1.9       2.5       1.6       3.7       0.0
22 H  py              0.0       0.3       0.5       0.3       0.8       0.0
23 H  s               0.1       0.0       0.6       2.1       0.0       7.5
23 H  px              0.0       0.0       0.0       0.2       0.0       0.6
23 H  py              0.0       0.0       0.1       0.3       0.0       1.1

                     18        19        20        21        22        23   
                  -0.75946  -0.74290  -0.65995  -0.62668  -0.59757  -0.57243
                   2.00000   2.00000   2.00000   2.00000   2.00000   2.00000
                  --------  --------  --------  --------  --------  --------
 0 C  s               1.9       5.6      12.1       0.8       8.6       0.3
 0 C  pz              0.0       0.0       0.0       0.1       0.9       0.8
 0 C  px              0.8       2.5       0.1       0.0       3.0       1.0
 0 C  py              0.7       1.1       1.5       0.1       0.3       0.2
 1 C  s               6.5      11.5       1.0       0.1       4.5       2.4
 1 C  pz              0.1       0.3       0.0       0.2       0.8       3.8
 1 C  px              0.1       1.8       5.5       0.3       1.7       0.1
 1 C  py              3.7       0.0       0.2       5.4       0.1       2.6
 1 C  dyz             0.0       0.0       0.0       0.1       0.0       0.0
 1 C  dx2y2           0.0       0.0       0.1       0.0       0.1       0.0
 1 C  dxy             0.2       0.0       0.0       0.1       0.0       0.0
 2 H  s               1.0       1.7       0.3       0.1       1.8       2.5
 2 H  pz              0.1       0.2       0.0       0.0       0.2       0.2
 3 C  s              11.3       0.7       3.3       6.2       0.0       3.6
 3 C  pz              0.1       0.0       0.0       0.0       0.1       3.8
 3 C  px              2.1       2.2       2.9       0.4       2.5       1.4
 3 C  py              3.0       1.9       0.3       0.3       2.4       0.0
 3 C  dx2y2           0.0       0.1       0.0       0.0       0.1       0.0
 3 C  dxy             0.1       0.0       0.0       0.0       0.0       0.0
 4 H  s               1.8       0.1       0.8       1.6       0.0       3.2
 4 H  pz              0.2       0.0       0.1       0.1       0.0       0.2
 5 C  s              10.9       2.6       3.2       1.5       4.4       3.3
 5 C  pz              0.0       0.0       0.0       0.0       0.1       4.2
 5 C  px              1.3       0.6       2.7       4.5       1.0       0.0
 5 C  py              4.1       1.8       0.2       0.7       1.4       0.5
 5 C  dxy             0.0       0.1       0.0       0.1       0.0       0.0
 6 H  s               1.7       0.5       0.7       0.4       1.4       3.3
 6 H  pz              0.2       0.0       0.1       0.0       0.1       0.2
 7 C  s               5.5       8.2       2.9       5.0       2.6       1.6
 7 C  pz              0.0       0.1       0.0       0.6       0.2       4.8
 7 C  px              3.1       2.6       0.0       0.0       0.2       0.1
 7 C  py              0.6       0.2       2.7       4.0       0.6       0.3
 8 H  s               0.9       1.4       0.7       1.8       1.0       2.6
 8 H  pz              0.1       0.1       0.1       0.1       0.1       0.2
 9 C  s               0.2       7.4       5.8       6.0       0.1       0.4
 9 C  pz              0.0       0.0       0.5       2.2       0.0       8.4
 9 C  px              1.3       0.2       1.4       0.0       2.0       1.5
 9 C  py              2.3       2.2       1.0       0.8       1.8       0.4
 9 C  dx2y2           0.1       0.0       0.0       0.0       0.0       0.0
 9 C  dxy             0.0       0.1       0.0       0.0       0.0       0.1
10 H  s               0.0       1.4       2.1       3.1       0.0       2.7
10 H  pz              0.0       0.1       0.2       0.3       0.0       0.2
11 O  s               4.2       0.0       1.6       1.2       0.8       0.5
11 O  pz              0.1       0.0       0.2       0.7       0.2       2.9
11 O  px              0.7       9.8       0.4       4.9       4.4       5.6
11 O  py              1.5       0.7       0.1       0.1       3.3       0.5
11 O  dz2             0.4       0.0       0.1       0.0       0.0       0.1
11 O  dxz             0.0       0.4       0.2       0.4       0.2       0.0
11 O  dyz             0.1       0.0       0.0       0.0       0.1       0.3
11 O  dx2y2           0.2       0.2       1.0       0.0       0.2       0.1
11 O  dxy             0.1       2.5       0.0       0.0       0.0       0.2
12 O  s               0.1       2.5       1.0       0.9       0.1       0.3
12 O  pz              0.0       0.8       2.6       6.1       0.0       6.1
12 O  px              0.1       0.6       0.2       0.8       0.7       0.1
12 O  py              0.0       1.9       3.9       4.9       0.0       0.9
12 O  dz2             0.0       0.3       0.1       0.1       0.0       0.0
12 O  dxz             0.0       0.0       0.1       0.2       0.0       0.2
12 O  dyz             0.0       0.0       0.0       0.1       0.0       0.3
12 O  dx2y2           0.2       0.1       0.3       0.0       0.3       0.0
12 O  dxy             0.0       0.5       0.2       0.3       0.1       0.0
13 O  s               1.4       2.2       1.0       0.4       0.6       0.0
13 O  pz              0.1       0.1       0.1       0.7       0.4       0.9
13 O  px              1.6       2.8       2.0       5.8       3.1       0.2
13 O  py              0.2       0.1       0.0       1.9       0.1       0.0
13 O  dz2             0.1       0.1       0.0       0.0       0.0       0.1
13 O  dxz             0.1       0.2       0.1       0.3       0.2       0.3
13 O  dx2y2           0.4       0.5       0.1       0.5       0.0       0.0
13 O  dxy             0.0       0.2       0.4       0.1       0.2       0.0
14 O  s               2.7       0.8       0.6       0.7       0.5       0.2
14 O  pz              0.1       0.1       0.1       0.1       0.5       1.2
14 O  px              1.3       0.2       2.2       0.0       6.5       2.0
14 O  py              2.0       0.6       1.3       1.2       3.6       1.4
14 O  dz2             0.1       0.0       0.0       0.0       0.0       0.1
14 O  dxz             0.0       0.0       0.0       0.0       0.1       0.1
14 O  dyz             0.2       0.1       0.1       0.1       0.2       0.4
14 O  dx2y2           0.5       0.2       0.0       0.4       0.1       0.1
14 O  dxy             0.3       0.0       0.3       0.2       0.2       0.0
15 O  s               3.7       0.3       0.7       1.1       0.2       0.2
15 O  pz              0.1       0.0       0.1       0.2       0.0       0.8
15 O  px              0.6       0.0       0.9       0.5       0.3       0.0
15 O  py              3.3       0.8       0.5       6.8       0.3       5.8
15 O  dz2             0.2       0.0       0.0       0.0       0.0       0.1
15 O  dxz             0.1       0.0       0.1       0.1       0.0       0.1
15 O  dyz             0.1       0.0       0.0       0.2       0.0       0.4
15 O  dx2y2           0.0       0.2       0.3       0.0       0.4       0.0
15 O  dxy             0.8       0.0       0.4       0.5       0.0       0.1
16 O  s               0.4       1.9       2.0       0.3       0.7       0.0
16 O  pz              0.0       0.1       0.5       0.1       1.1       0.1
16 O  px              0.0       0.1       0.1       0.0       0.3       0.3
16 O  py              0.4       1.4       6.5       0.7       9.9       0.3
16 O  dyz             0.0       0.1       0.4       0.0       0.5       0.1
16 O  dx2y2           0.0       0.0       0.3       0.0       0.4       0.1
16 O  dxy             0.1       0.4       0.5       0.1       0.1       0.0
17 H  s               0.3       1.0       2.8       0.3       3.1       0.4
17 H  pz              0.0       0.1       0.2       0.0       0.2       0.0
18 H  s               0.4       1.0       3.7       0.1       3.9       0.4
18 H  px              0.0       0.1       0.1       0.0       0.1       0.0
18 H  py              0.0       0.0       0.2       0.0       0.2       0.0
19 H  s               0.0       1.0       1.7       2.9       0.0       1.4
19 H  pz              0.0       0.2       0.2       0.3       0.0       0.0
20 H  s               0.6       1.0       0.5       2.0       0.8       0.1
20 H  py              0.1       0.2       0.1       0.2       0.1       0.0
21 H  s               1.2       0.3       1.0       0.2       2.5       0.8
21 H  px              0.2       0.1       0.1       0.0       0.2       0.1
22 H  s               1.5       0.3       0.2       1.9       0.0       1.3
22 H  py              0.2       0.0       0.0       0.1       0.0       0.1
23 H  s               0.1       0.6       1.8       0.2       2.5       0.1
23 H  px              0.0       0.1       0.2       0.0       0.2       0.0
23 H  py              0.0       0.1       0.1       0.0       0.1       0.0

                     24        25        26        27        28        29   
                  -0.53653  -0.52133  -0.49633  -0.48215  -0.47465  -0.46728
                   2.00000   2.00000   2.00000   2.00000   2.00000   2.00000
                  --------  --------  --------  --------  --------  --------
 0 C  s               0.0       0.0       0.2       0.4       0.3       0.1
 0 C  pz              1.2       0.5       5.5       4.6       1.2       1.4
 0 C  px              1.3       0.5       0.3       4.8       3.7       0.4
 0 C  py              0.4       0.0       0.4       1.2       3.2       0.0
 1 C  s               0.1       0.4       1.5       0.0       1.0       0.1
 1 C  pz              5.7       1.5       8.6       2.5       0.0       0.1
 1 C  px              0.1       0.6       2.9       2.3       2.2       0.1
 1 C  py              3.3       0.2       0.1       0.1       2.2       0.9
 1 C  dyz             0.0       0.0       0.0       0.0       0.1       0.0
 1 C  dx2y2           0.0       0.1       0.0       0.0       0.1       0.0
 1 C  dxy             0.0       0.0       0.0       0.0       0.1       0.1
 2 H  s               1.7       1.0       5.3       0.8       0.6       0.2
 2 H  pz              0.1       0.0       0.3       0.0       0.0       0.0
 3 C  s               0.1       0.6       0.7       0.9       0.2       0.0
 3 C  pz              7.4       0.6       2.1       3.7       3.9       0.5
 3 C  px              1.9       2.4       0.7       1.5       0.4       1.5
 3 C  py              0.1       1.0       0.6       0.1       3.6       2.3
 3 C  dxy             0.0       0.0       0.0       0.0       0.2       0.0
 4 H  s               2.3       0.5       1.6       2.6       1.4       0.0
 4 H  pz              0.1       0.0       0.1       0.1       0.0       0.0
 5 C  s               0.2       0.0       0.2       1.1       0.0       0.7
 5 C  pz              7.2       0.0       3.5       6.0       2.0       0.2
 5 C  px              0.8       1.5       0.1       0.4       0.6       0.0
 5 C  py              0.8       0.6       4.8       0.2       0.2       3.7
 5 C  dyz             0.0       0.0       0.1       0.0       0.0       0.2
 5 C  dx2y2           0.0       0.1       0.1       0.0       0.0       0.1
 6 H  s               2.2       0.0       1.2       3.8       0.7       0.5
 6 H  pz              0.1       0.0       0.0       0.2       0.0       0.0
 7 C  s               0.2       0.1       0.5       0.0       0.2       0.1
 7 C  pz              3.2       0.7       7.9       0.0       0.0       5.3
 7 C  px              0.0       6.2       1.2       1.2       0.2       0.5
 7 C  py              2.1       5.6       0.2       1.4       2.6       3.7
 7 C  dxz             0.0       0.1       0.0       0.0       0.0       0.0
 7 C  dxy             0.0       0.0       0.0       0.0       0.0       0.1
 8 H  s               1.4       0.3       3.6       0.0       0.1       1.3
 8 H  pz              0.1       0.0       0.2       0.0       0.0       0.0
 9 C  s               0.0       0.2       0.0       0.0       0.3       1.0
 9 C  pz              0.2       1.2       2.7       4.6       0.3       4.9
 9 C  px              6.6       0.4       0.2       0.7       4.6       0.3
 9 C  py              0.0       7.9       1.0       0.2       0.8       9.2
 9 C  dz2             0.0       0.0       0.0       0.0       0.0       0.1
 9 C  dxy             0.1       0.0       0.0       0.0       0.0       0.3
10 H  s               0.0       0.0       1.0       1.4       0.4       4.4
10 H  pz              0.0       0.0       0.0       0.1       0.0       0.2
11 O  s               0.1       1.6       0.0       0.2       1.3       0.1
11 O  pz              1.8       0.2       0.5       4.9       0.7       1.5
[...]
12 O  dx2y2           1.0       0.0       0.4       0.0       0.0       0.0
12 O  dxy             2.1       0.1       3.8       0.0       0.0       0.0
13 O  s               0.0       1.2       0.3       4.2       0.4       1.1
13 O  px              0.0       3.5       0.2       6.3       0.4       0.4
13 O  py              0.0       3.0       0.5       6.2       0.5       0.6
13 O  dz2             0.0       1.3       0.3       3.4       0.3       0.5
13 O  dxz             0.0       0.5       0.0       1.0       0.1       0.1
13 O  dyz             0.0       0.1       0.0       0.2       0.0       0.0
13 O  dx2y2           0.0       3.1       0.2       6.0       0.4       0.5
13 O  dxy             0.0       5.4       0.7      11.9       0.9       1.4
14 O  s               0.2       2.1       0.0       0.0       0.1       4.3
14 O  pz              0.0       0.0       0.0       0.0       0.0       0.1
14 O  px              0.0       7.9       0.1       0.8       0.4       9.6
14 O  py              0.0       1.3       0.1       0.1       0.0       1.2
14 O  dz2             0.0       1.4       0.0       0.1       0.1       2.2
14 O  dxz             0.0       2.8       0.0       0.2       0.1       3.5
14 O  dyz             0.0       0.6       0.0       0.1       0.0       0.7
14 O  dx2y2           0.0      11.1       0.2       0.8       0.4      13.6
14 O  dxy             0.1       0.0       0.0       0.0       0.0       0.2
15 O  s               0.2       1.8       0.0       1.7       0.1       2.4
15 O  pz              0.0       0.1       0.0       0.1       0.0       0.1
15 O  px              0.0       0.1       0.0       0.1       0.0       0.3
15 O  py              0.0       5.7       0.1       6.1       0.6       8.5
15 O  dz2             0.0       0.8       0.0       0.9       0.1       1.4
15 O  dyz             0.0       2.1       0.0       2.3       0.2       3.0
15 O  dx2y2           0.0       2.2       0.0       2.3       0.1       3.2
15 O  dxy             0.0       5.7       0.1       5.7       0.5       7.5
16 O  s               0.4       0.0       0.0       0.6       5.9       0.0
16 O  px              0.1       0.0       0.0       0.4       4.1       0.0
16 O  py              0.3       0.0       0.1       1.2      14.0       0.1
16 O  dz2             0.1       0.0       0.0       0.5       5.3       0.0
16 O  dxz             0.0       0.0       0.0       0.0       0.3       0.0
16 O  dyz             0.1       0.0       0.0       0.3       3.1       0.0
16 O  dxy             0.1       0.0       0.1       2.4      27.3       0.1
18 H  s               0.0       0.0       0.0       0.0       0.2       0.0
18 H  px              0.0       0.0       0.0       0.0       0.1       0.0
19 H  s               1.2       0.4      11.3       0.0       0.0       0.0
19 H  pz              1.8       0.5      12.0       0.1       0.0       0.0
19 H  px              0.1       0.0       0.9       0.0       0.0       0.0
19 H  py              0.3       0.0       1.0       0.0       0.0       0.0
20 H  s               0.0       3.6       0.5       7.7       0.6       0.9
20 H  px              0.0       1.2       0.1       2.7       0.2       0.3
20 H  py              0.0       3.0       0.4       6.5       0.5       0.7
21 H  s               0.0       5.5       0.1       0.4       0.2       7.1
21 H  pz              0.0       0.4       0.0       0.1       0.0       0.4
21 H  px              0.0       5.9       0.1       0.5       0.2       7.8
21 H  py              0.0       0.2       0.0       0.0       0.0       0.2
22 H  s               0.0       3.7       0.1       3.8       0.3       5.2
22 H  pz              0.0       0.2       0.0       0.3       0.0       0.4
22 H  px              0.0       0.5       0.0       0.6       0.0       1.0
22 H  py              0.0       3.6       0.1       3.6       0.3       4.9
23 H  s               0.0       0.0       0.0       1.1      12.0       0.0
23 H  pz              0.0       0.0       0.0       0.0       0.3       0.0
23 H  px              0.0       0.0       0.0       0.5       5.8       0.0
23 H  py              0.0       0.0       0.0       0.8       8.4       0.0

                    306       307       308       309       310       311   
                  22.07112  22.13906  22.15300  22.16933  22.22633  22.27714
                   0.00000   0.00000   0.00000   0.00000   0.00000   0.00000
                  --------  --------  --------  --------  --------  --------
 0 C  s              79.9      11.8       0.9       0.3       1.2       5.5
 1 C  s               6.6      31.5      17.2       0.0      44.3       0.0
 3 C  s               0.0       2.2      47.7      11.3       9.5      28.8
 5 C  s               1.0      14.0       3.1      66.7       5.3       9.6
 7 C  s               1.8      38.2       0.5      20.7      38.4       0.0
 9 C  s              10.4       1.8      30.1       0.8       0.9      55.4

                    312       313       314       315       316       317   
                  43.62175  43.69325  43.71977  43.79888  43.81762  43.88475
                   0.00000   0.00000   0.00000   0.00000   0.00000   0.00000
                  --------  --------  --------  --------  --------  --------
 3 C  s               0.0       0.0       0.0       0.0       0.1       0.0
11 O  s               3.0       0.0       3.2       0.0       0.0      93.7
12 O  s               0.0      66.7      22.4       0.4       9.4       1.0
13 O  s               0.5      16.9      12.3      55.4      14.5       0.2
14 O  s               1.0       4.3      54.8       3.1      35.3       1.5
15 O  s               0.7      12.0       7.0      40.1      39.8       0.2
16 O  s              94.8       0.1       0.2       0.7       0.7       3.4



                      *****************************
                      * MAYER POPULATION ANALYSIS *
                      *****************************

  NA   - Mulliken gross atomic population
  ZA   - Total nuclear charge
  QA   - Mulliken gross atomic charge
  VA   - Mayer's total valence
  BVA  - Mayer's bonded valence
  FA   - Mayer's free valence

  ATOM       NA         ZA         QA         VA         BVA        FA
  0 C      6.2854     6.0000    -0.2854     4.0328     4.0328    -0.0000
  1 C      6.0679     6.0000    -0.0679     3.4700     3.4700    -0.0000
  2 H      0.8156     1.0000     0.1844     0.9475     0.9475    -0.0000
  3 C      5.9680     6.0000     0.0320     3.6141     3.6141    -0.0000
  4 H      0.8334     1.0000     0.1666     0.9529     0.9529    -0.0000
  5 C      6.0385     6.0000    -0.0385     3.6493     3.6493    -0.0000
  6 H      0.8283     1.0000     0.1717     0.9517     0.9517    -0.0000
  7 C      5.8941     6.0000     0.1059     3.4258     3.4258     0.0000
  8 H      0.8370     1.0000     0.1630     0.9584     0.9584     0.0000
  9 C      6.1434     6.0000    -0.1434     3.8874     3.8874    -0.0000
 10 H      0.8408     1.0000     0.1592     0.9514     0.9514    -0.0000
 11 O      8.2116     8.0000    -0.2116     1.7440     1.7440     0.0000
 12 O      8.3856     8.0000    -0.3856     1.8979     1.8979     0.0000
 13 O      8.4421     8.0000    -0.4421     1.8321     1.8321     0.0000
 14 O      8.4443     8.0000    -0.4443     1.8388     1.8388     0.0000
 15 O      8.4425     8.0000    -0.4425     1.8205     1.8205     0.0000
 16 O      8.4109     8.0000    -0.4109     1.8504     1.8504     0.0000
 17 H      0.8591     1.0000     0.1409     0.9515     0.9515    -0.0000
 18 H      0.8293     1.0000     0.1707     0.9469     0.9469     0.0000
 19 H      0.6755     1.0000     0.3245     0.8969     0.8969     0.0000
 20 H      0.6889     1.0000     0.3111     0.9118     0.9118     0.0000
 21 H      0.6843     1.0000     0.3157     0.9068     0.9068     0.0000
 22 H      0.6841     1.0000     0.3159     0.9084     0.9084    -0.0000
 23 H      0.6893     1.0000     0.3107     0.9069     0.9069     0.0000

  Mayer bond orders larger than 0.100000
B(  0-C ,  1-C ) :   0.9356 B(  0-C , 16-O ) :   1.0083 B(  0-C , 17-H ) :   0.9949 
B(  0-C , 18-H ) :   0.9627 B(  1-C ,  2-H ) :   0.9524 B(  1-C ,  3-C ) :   0.8597 
B(  1-C , 11-O ) :   0.7836 B(  3-C ,  4-H ) :   0.9633 B(  3-C ,  5-C ) :   0.8622 
B(  3-C , 15-O ) :   0.8567 B(  5-C ,  6-H ) :   0.9955 B(  5-C ,  7-C ) :   0.8602 
B(  5-C , 14-O ) :   0.9162 B(  7-C ,  8-H ) :   0.9491 B(  7-C ,  9-C ) :   0.7691 
B(  7-C , 13-O ) :   0.8910 B(  9-C , 10-H ) :   1.0065 B(  9-C , 11-O ) :   0.9676 
B(  9-C , 12-O ) :   1.0965 B( 12-O , 19-H ) :   0.8698 B( 13-O , 20-H ) :   0.8758 
B( 14-O , 21-H ) :   0.8788 B( 15-O , 22-H ) :   0.8779 B( 16-O , 23-H ) :   0.8784 


-------
TIMINGS
-------

Total SCF time: 0 days 0 hours 0 min 45 sec 

Total time                  ....      45.202 sec
Sum of individual times     ....      44.649 sec  ( 98.8%)

SCF preparation             ....       0.213 sec  (  0.5%)
Fock matrix formation       ....      43.135 sec  ( 95.4%)
  Startup                   ....       0.098 sec  (  0.2% of F)
  Split-RI-J                ....       9.588 sec  ( 22.2% of F)
  XC integration            ....      32.832 sec  ( 76.1% of F)
    Basis function eval.    ....       4.836 sec  ( 14.7% of XC)
    Density eval.           ....      12.772 sec  ( 38.9% of XC)
    XC-Functional eval.     ....       2.539 sec  (  7.7% of XC)
    XC-Potential eval.      ....      11.738 sec  ( 35.8% of XC)
Diagonalization             ....       0.000 sec  (  0.0%)
Density matrix formation    ....       0.312 sec  (  0.7%)
Total Energy calculation    ....       0.037 sec  (  0.1%)
Population analysis         ....       0.186 sec  (  0.4%)
Orbital Transformation      ....       0.083 sec  (  0.2%)
Orbital Orthonormalization  ....       0.000 sec  (  0.0%)
DIIS solution               ....       0.612 sec  (  1.4%)
  MO trafo                  ....       0.000 sec  (  0.0 % of DIIS)
  Orb grad                  ....       0.000 sec  (  0.0 % of DIIS)
  Energy W gradient         ....       0.000 sec  (  0.0 % of DIIS)
  DIIS error                ....       0.029 sec  (  4.7 % of DIIS)
  DIIS work                 ....       0.514 sec  ( 84.0 % of DIIS)
  Form Q                    ....       0.000 sec  (  0.0 % of DIIS)
  Form QpQm                 ....       0.000 sec  (  0.0 % of DIIS)
  Exp/Cayley                ....       0.000 sec  (  0.0 % of DIIS)
  Orb update                ....       0.000 sec  (  0.0 % of DIIS)
  Wake-sleep                ....       0.024 sec  (  4.0 % of DIIS)
SOSCF solution              ....       0.072 sec  (  0.2%)
  MO trafo                  ....       0.053 sec  ( 73.0 % of SOSCF)
  Orb grad                  ....       0.001 sec  (  1.1 % of SOSCF)
  Rot update                ....       0.000 sec  (  0.1 % of SOSCF)
  Step                      ....       0.019 sec  ( 25.7 % of SOSCF)
Finished LeanSCF after  45.3 sec

Maximum memory used throughout the entire LEANSCF-calculation: 37.6 MB


-------------------------------------------------------------------------------
                          DFT DISPERSION CORRECTION                            
                                                                               
                                DFTD4 V3.4.0                                   
-------------------------------------------------------------------------------
The R2SCAN3C composite method is recognized
Using three-body term ABC
Active option DFTDOPT                   ...         5   

-------------------------   ----------------
Dispersion correction           -0.007964452
-------------------------   ----------------

------------------   -----------------
gCP correction             0.019363120
------------------   -----------------

-------------------------   --------------------
FINAL SINGLE POINT ENERGY      -687.080086980976
-------------------------   --------------------


------------------------------------------------------------------------------
                              ORCA PROPERTY CALCULATIONS
------------------------------------------------------------------------------

GBWName                                 ... sp_gas.gbw
Number of atoms                         ...     24
Number of basis functions               ...    318
Max core memory                         ...   1024 MB

Electric properties:
Dipole moment                           ... YES
Quadrupole moment                       ...  NO
Static polarizability (Dipole/Dipole)   ...  NO
Static polarizability (Dipole/Quad.)    ...  NO
Static polarizability (Quad./Quad.)     ...  NO
Static polarizability (Velocity)        ...  NO

Atomic electric properties:
Dipole moment                           ...  NO
Quadrupole moment                       ...  NO
Static polarizability                   ...  NO

Choice of electric origin               ... Center of mass
Position of electric origin             ...    -0.000005     0.000002    -0.000002

General magnetic properties:
Magnetizability                         ...  NO

EPR properties:
g-Tensor (aka g-matrix)                 ...  NO
Zero-Field splitting spin-orbit         ...  NO
Zero-field splitting spin-spin          ...  NO
Hyperfine couplings                     ...  NO (   0 nuclei)
Quadrupole couplings                    ...  NO (   0 nuclei)
Contact density                         ...  NO (   0 nuclei)

NMR properties:
Chemical shifts                         ...  NO (   0 nuclei)
Spin-rotation constants                 ...  NO (   0 nuclei)
Spin-spin couplings                     ...  NO (   0 nuclei,    0 pairs)

Choice of magnetic origin               ... GIAO
Position of magnetic origin             ...     0.000000     0.000000     0.000000

Properties with geometric perturbations:
SCF Hessian                             ...  NO
IR spectrum                             ...  NO
VCD spectrum                            ...  NO
X-ray spectroscopy properties:
SCF XES/XAS/RIXS spectra                ...  NO


-------------
DIPOLE MOMENT
-------------

Method             : SCF
Type of density    : Electron Density
Multiplicity       :   1
Irrep              :   0
Energy             :  -687.0914856493700427 Eh
Relativity type    : 
Basis              : AO
                                X                 Y                 Z
Electronic contribution:      1.789988796      -0.735903944       0.395972505
Nuclear contribution   :     -0.820330458       0.679714196      -0.957652148
                        -----------------------------------------
Total Dipole Moment    :      0.969658338      -0.056189749      -0.561679643
                        -----------------------------------------
Magnitude (a.u.)       :      1.121997594
Magnitude (Debye)      :      2.851891241



--------------------
Rotational spectrum 
--------------------
 
Rotational constants in cm-1:             0.039289             0.026037             0.016376 
Rotational constants in MHz :          1177.842225           780.559455           490.935207 

Dipole components along the rotational axes: 
x,y,z [a.u.] :     0.907691    -0.326172    -0.573226 
x,y,z [Debye]:     2.307167    -0.829064    -1.457024 

 

Dipole moment calculation done in   0.0 sec 

Maximum memory used throughout the entire PROP-calculation: 24.1 MB

--------------------------------
SUGGESTED CITATIONS FOR THIS RUN
--------------------------------

Below you find a list of papers that are relevant to this ORCA run
We neither can nor want to force you to cite these papers, but we appreciate if you do
You receive ORCA, which is the product of decades of hard work by many enthusiastic individuals, for free
The only thing we kindly ask in return is that you cite our papers,
We deeply appreciate it, if you show your appreciation for ORCA by not just citing the generic ORCA reference.

Please note that relegating all ORCA citations to the supporting information does *not* help us.
SI sections are not indexed - citations you put there will not count into any citation statistics
But we need these citations in order to attract the funding resources that allow us to do what we are doing

Therefore, if you are a happy ORCA user, please consider citing a few of the papers listed below in the main body of your paper

In addition to the list printed below, the program has created the file sp_gas.bibtex that contains the list in bibtex format
You can import this file easily into all common literature databanks and citation aid programs


List of essential papers. We consider these as the minimum necessary citations

  1. Neese,F.
     Software update: the ORCA program system, version 5.0
     WIRES Comput. Molec. Sci., 2022 12(1)e1606
     doi.org/10.1002/wcms.1606
  2. Grimme,S.; Hansen,A.; Ehlert,S.; Mewes,J.
     r2SCAN-3c: A 'Swiss army knife' composite electronic-structure method
     J. Chem. Phys., 2021 154 064103
     doi.org/10.1063/5.0040021

List of papers to cite with high priority. The work reported in these papers was absolutely
necessary for this run to complete.
Our perspective: the developers of density functionals and basis sets usually get cited in chemistry papers
Good! But without the algorithms to do something with them, the functionals or basis sets would not do anything.
Hence, in our opinion, the algorithm design and method developments papers are equally worthy of getting cited

  1. Neese,F.
     An improvement of the resolution of the identity approximation for the formation of the Coulomb matrix
     J. Comp. Chem., 2003 24(14)1740-1747
     doi.org/10.1002/jcc.10318
  2. Neese,F.
     The SHARK Integral Generation and Digestion System
     J. Comp. Chem., 2022  1-16
     doi.org/10.1002/jcc.26942
  3. Lehtola,S.; Steigemann,C.; Oliveira,M.; Marques,M.
     Recent developments in Libxc - A comprehensive library of functionals for density functional theory
     Software X, 2018 7 
     doi.org/10.1016/j.softx.2017.11.002
  4. Caldeweyher,E.; Bannwarth,C.; Grimme,S.
     Extension of the D3 dispersion coefficient model
     J. Chem. Phys., 2017 147 034112-XXXX
     doi.org/10.1063/1.4993215
  5. Caldeweyher,E.; Ehlert,S.; Hansen,A.; Neugebauer,H.; Spicher,S.; Bannwarth,C.; Grimme,S.
     A generally applicable atomic-charge dependent London dispersion correction
     J. Chem. Phys., 2019 150 154122-XXXX
     doi.org/10.1063/1.5090222
  6. Caldeweyher,E.; Mewes,J.; Ehlert,S.; Grimme,S.
     Extension and evaluation of the D4 London-dispersion model for periodic systems
     Phys. Chem. Chem. Phys., 2020 22(16)8499-8512
     doi.org/10.1039/D0CP00502A

List of suggested additional citations. These are papers that are important in the 'surrounding' of 
of this run, or papers that preceded the highly important papers. If you like your results we are grateful for a citation.

  1. Neese,F.
     The ORCA program system
     WIRES Comput. Molec. Sci., 2012 2(1)73-78
     doi.org/10.1002/wcms.81
  2. Neese,F.
     Software update: the ORCA program system, version 4.0
     WIRES Comput. Molec. Sci., 2018 8(1)1-6
     doi.org/10.1002/wcms.1327
  3. Neese,F.; Wennmohs,F.; Becker,U.; Riplinger,C.
     The ORCA quantum chemistry program package
     J. Chem. Phys., 2020 152 Art. No. L224108
     doi.org/10.1063/5.0004608

List of optional additional citations

  1. Neese,F.
     Approximate second-order SCF convergence for spin unrestricted wavefunctions
     Chem. Phys. Lett., 2000 325(1-3)93-98
     doi.org/10.1016/s0009-2614(00)00662-x

Timings for individual modules:

Sum of individual times          ...       47.660 sec (=   0.794 min)
Startup calculation              ...        1.768 sec (=   0.029 min)   3.7 %
SCF iterations                   ...       45.780 sec (=   0.763 min)  96.1 %
Property calculations            ...        0.112 sec (=   0.002 min)   0.2 %
                             ****ORCA TERMINATED NORMALLY****
TOTAL RUN TIME: 0 days 0 hours 0 minutes 48 seconds 429 msec
