
                                 *****************
                                 * O   R   C   A *
                                 *****************

                                            #,                                       
                                            ###                                      
                                            ####                                     
                                            #####                                    
                                            ######                                   
                                           ########,                                 
                                     ,,################,,,,,                         
                               ,,#################################,,                 
                          ,,##########################################,,             
                       ,#########################################, ''#####,          
                    ,#############################################,,   '####,        
                  ,##################################################,,,,####,       
                ,###########''''           ''''###############################       
              ,#####''   ,,,,##########,,,,          '''####'''          '####       
            ,##' ,,,,###########################,,,                        '##       
           ' ,,###''''                  '''############,,,                           
         ,,##''                                '''############,,,,        ,,,,,,###''
      ,#''                                            '''#######################'''  
     '                                                          ''''####''''         
             ,#######,   #######,   ,#######,      ##                                
            ,#'     '#,  ##    ##  ,#'     '#,    #''#        ,####,   ,####,        
            ##       ##  ##   ,#'  ##            #'  '#       #'       #'  '#        
            ##       ##  #######   ##           ,######,      #####,   #    #        
            '#,     ,#'  ##    ##  '#,     ,#' ,#      #,     #,   #   #,  ,#        
             '#######'   ##     ##  '#######'  #'      '#     '####' # '####'        



                #########################################################
                #                        -***-                          #
                #          Department of theory and spectroscopy        #
                #                                                       #
                #                      Frank Neese                      #
                #                                                       #
                #     Directorship, Architecture, Infrastructure        #
                #                    SHARK, DRIVERS                     #
                #        Core code/Algorithms in most modules           #
                #                                                       #
                #        Max Planck Institute fuer Kohlenforschung      #
                #                Kaiser Wilhelm Platz 1                 #
                #                 D-45470 Muelheim/Ruhr                 #
                #                      Germany                          #
                #                                                       #
                #                  All rights reserved                  #
                #                        -***-                          #
                #########################################################


                         Program Version 6.0.0  -   RELEASE  -


 With contributions from (in alphabetic order):
   Daniel Aravena         : Magnetic Suceptibility
   Michael Atanasov       : Ab Initio Ligand Field Theory (pilot matlab implementation)
   Alexander A. Auer      : GIAO ZORA, VPT2 properties, NMR spectrum
   Ute Becker             : All parallelization in ORCA, NUMFREQ, NUMCALC
   Giovanni Bistoni       : ED, misc. LED, open-shell LED, HFLD
   Martin Brehm           : Molecular dynamics
   Dmytro Bykov           : pre 5.0 version of the SCF Hessian
   Marcos Casanova-Páez   : Triplet and SCS-CIS(D). UHF-(DLPNO)-IP/EA/STEOM-CCSD. UHF-CVS-IP/STEOM-CCSD
   Vijay G. Chilkuri      : MRCI spin determinant printing, contributions to CSF-ICE
   Pauline Colinet        : FMM embedding
   Dipayan Datta          : RHF DLPNO-CCSD density
   Achintya Kumar Dutta   : EOM-CC, STEOM-CC
   Nicolas Foglia         : Exact transition moments, OPA infrastructure, MCD improvements
   Dmitry Ganyushin       : Spin-Orbit,Spin-Spin,Magnetic field MRCI
   Miquel Garcia          : C-PCM and meta-GGA Hessian, CCSD/C-PCM, Gaussian charge scheme
   Tiago L. C. Gouveia    : GS-ROHF, GS-ROCIS
   Yang Guo               : DLPNO-NEVPT2, F12-NEVPT2, CIM, IAO-localization
   Andreas Hansen         : Spin unrestricted coupled pair/coupled cluster methods
   Ingolf Harden          : AUTO-CI MPn and infrastructure 
   Benjamin Helmich-Paris : MC-RPA, TRAH-(SCF,CASSCF), AVAS, COSX integrals, SCF dyn. polar.
   Lee Huntington         : MR-EOM, pCC
   Robert Izsak           : Overlap fitted RIJCOSX, COSX-SCS-MP3, EOM
   Riya Kayal             : Wick's Theorem for AUTO-CI, AUTO-CI UHF-CCSDT
   Emily Kempfer          : AUTO-CI, RHF CISDT and CCSDT
   Christian Kollmar      : KDIIS, OOCD, Brueckner-CCSD(T), CCSD density, CASPT2, CASPT2-K, improved NEVPT2
   Axel Koslowski         : Symmetry handling
   Simone Kossmann        : Meta GGA functionals, TD-DFT gradient, OOMP2, (MP2 Hessian; deprecated post 5.0)
   Lucas Lang             : DCDCAS
   Marvin Lechner         : AUTO-CI (C++ implementation), FIC-MRCC
   Spencer Leger          : CASSCF response
   Dagmar Lenk            : GEPOL surface, SMD, ORCA-2-JSON
   Dimitrios Liakos       : Extrapolation schemes; Compound Job, initial MDCI parallelization
   Dimitrios Manganas     : Further ROCIS development; embedding schemes. LFT, Crystal Embedding
   Dimitrios Pantazis     : SARC Basis sets
   Anastasios Papadopoulos: AUTO-CI, single reference methods and gradients
   Taras Petrenko         : pre 6.0 DFT Hessian and TD-DFT gradient, (ASA, deprecated), ECA, 1-Electron XAS/XES, NRVS
   Peter Pinski           : DLPNO-MP2, DLPNO-MP2 Gradient
   Christoph Reimann      : Effective Core Potentials
   Marius Retegan         : Local ZFS, SOC
   Christoph Riplinger    : Optimizer, TS searches, QM/MM, DLPNO-CCSD(T), (RO)-DLPNO pert. Triples
   Michael Roemelt        : Original ROCIS implementation
   Masaaki Saitow         : Open-shell DLPNO-CCSD energy and density
   Barbara Sandhoefer     : DKH picture change effects
   Kantharuban Sivalingam : CASSCF convergence/infrastructure, NEVPT2 and variants, FIC-MRCI
   Bernardo de Souza      : ESD, SOC TD-DFT
   Georgi Stoychev        : AutoAux, RI-MP2 NMR, DLPNO-MP2 response, X2C
   Van Anh Tran           : RI-MP2 g-tensors
   Willem Van den Heuvel  : Paramagnetic NMR
   Zikuan Wang            : NOTCH, Electric field optimization 
   Frank Wennmohs         : Technical directorship and infrastructure
   Hang Xu                : AUTO-CI-Response properties 


 We gratefully acknowledge several colleagues who have allowed us to
 interface, adapt or use parts of their codes:
   Stefan Grimme, W. Hujo, H. Kruse, P. Pracht,  : VdW corrections, initial TS optimization,
                  C. Bannwarth, S. Ehlert,         DFT functionals, gCP, sTDA/sTD-DF
                  L. Wittmann, M. Mueller
   Ed Valeev, F. Pavosevic, A. Kumar             : LibInt (2-el integral package), F12 methods
   Garnet Chan, S. Sharma, J. Yang, R. Olivares  : DMRG
   Ulf Ekstrom                                   : XCFun DFT Library
   Mihaly Kallay                                 : mrcc  (arbitrary order and MRCC methods)
   Frank Weinhold                                : gennbo (NPA and NBO analysis)
   Simon Mueller                                 : openCOSMO-RS
   Christopher J. Cramer and Donald G. Truhlar   : smd solvation model
   Lars Goerigk                                  : TD-DFT with DH, B97 family of functionals
   V. Asgeirsson, H. Jonsson                     : NEB implementation
   FAccTs GmbH                                   : IRC, NEB, NEB-TS, DLPNO-Multilevel, CI-OPT
                                                   MM, QMMM, 2- and 3-layer-ONIOM, Crystal-QMMM,
                                                   LR-CPCM, SF, NACMEs, symmetry and pop. for TD-DFT,
                                                   nearIR, NL-DFT gradient (VV10), updates on ESD,
                                                   ML-optimized integration grids, MBIS, APM,
                                                   GOAT, DOCKER, SOLVATOR, interface openCOSMO-RS
   S Lehtola, MJT Oliveira, MAL Marques          : LibXC Library
   Liviu Ungur et al                             : ANISO software


 Your calculation uses the libint2 library for the computation of 2-el integrals
 For citations please refer to: http://libint.valeyev.net

 Your ORCA version has been built with support for libXC version: 6.2.2
 For citations please refer to: https://libxc.gitlab.io

 This ORCA versions uses:
   CBLAS   interface :  Fast vector & matrix operations
   LAPACKE interface :  Fast linear algebra routines
   SCALAPACK package :  Parallel linear algebra routines
   Shared memory     :  Shared parallel matrices
   BLAS/LAPACK       :  OpenBLAS 0.3.27  USE64BITINT DYNAMIC_ARCH NO_AFFINITY SkylakeX SINGLE_THREADED
        Core in use  :  SkylakeX
   Copyright (c) 2011-2014, The OpenBLAS Project


Your calculation utilizes the geometrical counterpoise correction gCP
Please cite in your paper:
H.Kruse, S. Grimme J.Chem.Phys., 136, (2012), 154101 
   

Your calculation utilizes the atom-pairwise dispersion correction
based on EEQ partial charges (D4)


================================================================================

----- Orbital basis set information -----
Your calculation utilizes the basis: def2-SV(P)
   F. Weigend and R. Ahlrichs, Phys. Chem. Chem. Phys. 7, 3297 (2005).

----- AuxJ basis set information -----
Your calculation utilizes the auxiliary basis: def2/J
   F. Weigend, Phys. Chem. Chem. Phys. 8, 1057 (2006).

================================================================================
                                        WARNINGS
                       Please study these warnings very carefully!
================================================================================


================================================================================
                                       INPUT FILE
================================================================================
NAME = sp.inp
|  1> ! pbe def2-sv(p) def2/J RI DEFGRID1 loosescf d4 GCP(DFT/SV(P)) printgap
|  2> %output
|  3>     printlevel normal
|  4> end
|  5> * xyz 0 1
|  6> C -2.0731726708 -1.2429150725 -0.1890269755
|  7> C -1.2445387231 -0.364254546 0.7631697955
|  8> H -1.8337953456 -0.2116574821 1.673944746
|  9> C -0.9353650908 1.0283025061 0.1510735198
| 10> H -1.2194093503 1.0279612804 -0.9115958059
| 11> C 0.5705169244 1.2929635594 0.2369942347
| 12> H 0.8549346062 1.390849995 1.2900761971
| 13> C 1.3216469787 0.107846926 -0.3884840591
| 14> H 0.9834003027 -0.0176633344 -1.4319065831
| 15> C 1.0078883118 -1.1863553584 0.3896426696
| 16> H 1.8550554469 -1.4134101839 1.0468917479
| 17> O -0.0850922941 -1.0207608663 1.263760308
| 18> O 0.8624798525 -2.2876174587 -0.4396512124
| 19> O 2.709003352 0.3244041096 -0.369750802
| 20> O 0.9609922164 2.4944945821 -0.374471403
| 21> O -1.5963678676 2.0637674202 0.8365877712
| 22> O -1.4796383183 -1.2836610262 -1.4758383055
| 23> H -3.0800526245 -0.818990571 -0.2542531702
| 24> H -2.1285540062 -2.2484033913 0.2426420476
| 25> H 0.1227159304 -2.1120541759 -1.0602459364
| 26> H 2.8645522748 1.2747159767 -0.508691421
| 27> H 0.5445772806 2.5728836681 -1.2461451868
| 28> H -2.5427953399 2.049687785 0.6363072536
| 29> H -2.0660639639 -1.7646819825 -2.0780206156
| 30> *
| 31> 
| 32>                          ****END OF INPUT****
================================================================================

                       ****************************
                       * Single Point Calculation *
                       ****************************

---------------------------------
CARTESIAN COORDINATES (ANGSTROEM)
---------------------------------
  C     -2.073173   -1.242915   -0.189027
  C     -1.244539   -0.364255    0.763170
  H     -1.833795   -0.211657    1.673945
  C     -0.935365    1.028303    0.151074
  H     -1.219409    1.027961   -0.911596
  C      0.570517    1.292964    0.236994
  H      0.854935    1.390850    1.290076
  C      1.321647    0.107847   -0.388484
  H      0.983400   -0.017663   -1.431907
  C      1.007888   -1.186355    0.389643
  H      1.855055   -1.413410    1.046892
  O     -0.085092   -1.020761    1.263760
  O      0.862480   -2.287617   -0.439651
  O      2.709003    0.324404   -0.369751
  O      0.960992    2.494495   -0.374471
  O     -1.596368    2.063767    0.836588
  O     -1.479638   -1.283661   -1.475838
  H     -3.080053   -0.818991   -0.254253
  H     -2.128554   -2.248403    0.242642
  H      0.122716   -2.112054   -1.060246
  H      2.864552    1.274716   -0.508691
  H      0.544577    2.572884   -1.246145
  H     -2.542795    2.049688    0.636307
  H     -2.066064   -1.764682   -2.078021

----------------------------
CARTESIAN COORDINATES (A.U.)
----------------------------
  NO LB      ZA    FRAG     MASS         X           Y           Z
   0 C     6.0000    0    12.011   -3.917729   -2.348769   -0.357209
   1 C     6.0000    0    12.011   -2.351837   -0.688341    1.442182
   2 H     1.0000    0     1.008   -3.465371   -0.399975    3.163297
   3 C     6.0000    0    12.011   -1.767584    1.943210    0.285488
   4 H     1.0000    0     1.008   -2.304350    1.942565   -1.722666
   5 C     6.0000    0    12.011    1.078121    2.443347    0.447854
   6 H     1.0000    0     1.008    1.615592    2.628326    2.437891
   7 C     6.0000    0    12.011    2.497551    0.203801   -0.734128
   8 H     1.0000    0     1.008    1.858357   -0.033379   -2.705911
   9 C     6.0000    0    12.011    1.904633   -2.241887    0.736318
  10 H     1.0000    0     1.008    3.505547   -2.670958    1.978339
  11 O     8.0000    0    15.999   -0.160801   -1.928958    2.388161
  12 O     8.0000    0    15.999    1.629851   -4.322970   -0.830820
  13 O     8.0000    0    15.999    5.119274    0.613035   -0.698728
  14 O     8.0000    0    15.999    1.816012    4.713912   -0.707648
  15 O     8.0000    0    15.999   -3.016698    3.899955    1.580922
  16 O     8.0000    0    15.999   -2.796111   -2.425768   -2.788930
  17 H     1.0000    0     1.008   -5.820456   -1.547668   -0.480469
  18 H     1.0000    0     1.008   -4.022384   -4.248867    0.458527
  19 H     1.0000    0     1.008    0.231900   -3.991204   -2.003574
  20 H     1.0000    0     1.008    5.413219    2.408864   -0.961287
  21 H     1.0000    0     1.008    1.029102    4.862046   -2.354873
  22 H     1.0000    0     1.008   -4.805187    3.873349    1.202446
  23 H     1.0000    0     1.008   -3.904295   -3.334766   -3.926890

--------------------------------
INTERNAL COORDINATES (ANGSTROEM)
--------------------------------
 C      0   0   0     0.000000000000     0.00000000     0.00000000
 C      1   0   0     1.537971791293     0.00000000     0.00000000
 H      2   1   0     1.095454353923   107.72898044     0.00000000
 C      2   1   3     1.552245254136   112.06832013   241.26102888
 H      4   2   1     1.099976069546   109.22288922   349.76210940
 C      4   2   1     1.531374704664   109.19500082   231.92312294
 H      6   4   2     1.095197147333   108.95154746   293.35097756
 C      6   4   2     1.536203401002   108.94378905    52.73339194
 H      8   6   4     1.104035417403   108.82659462    57.67432117
 C      8   6   4     1.542363530403   110.02647240   298.78667436
 H     10   8   6     1.096002919477   108.61044139   258.05375535
 O     10   8   6     1.409294073801   111.84464331    12.97093059
 O     10   8   6     1.386235974254   112.71410163   140.93644289
 O      8   6   4     1.404281188091   111.01789293   178.18461000
 O      6   4   2     1.403580413892   113.39529327   175.97909941
 O      4   2   1     1.406784293395   111.99886379   112.46311722
 O      1   2   3     1.417683554026   110.65998254   169.53606523
 H      1   2   3     1.094428472131   108.13677390    48.98111823
 H      1   2   3     1.095633148941   107.91528492   290.71549678
 H     13  10   8     0.981433104274   108.37524973   299.98502696
 H     14   8   6     0.972929908957   107.85878178   324.93143413
 H     15   6   4     0.969206599712   109.96931949   313.57365489
 H     16   4   2     0.967489267218   110.36827337   287.17303437
 H     17   1   2     0.968452235691   108.97525228   185.83393580

---------------------------
INTERNAL COORDINATES (A.U.)
---------------------------
 C      0   0   0     0.000000000000     0.00000000     0.00000000
 C      1   0   0     2.906345487240     0.00000000     0.00000000
 H      2   1   0     2.070108721126   107.72898044     0.00000000
 C      2   1   3     2.933318422997   112.06832013   241.26102888
 H      4   2   1     2.078653525309   109.22288922   349.76210940
 C      4   2   1     2.893878800230   109.19500082   231.92312294
 H      6   4   2     2.069622671112   108.95154746   293.35097756
 C      6   4   2     2.903003713892   108.94378905    52.73339194
 H      8   6   4     2.086324581042   108.82659462    57.67432117
 C      8   6   4     2.914644671410   110.02647240   298.78667436
 H     10   8   6     2.071145359790   108.61044139   258.05375535
 O     10   8   6     2.663179841641   111.84464331    12.97093059
 O     10   8   6     2.619606348329   112.71410163   140.93644289
 O      8   6   4     2.653706860510   111.01789293   178.18461000
 O      6   4   2     2.652382589191   113.39529327   175.97909941
 O      4   2   1     2.658437044018   111.99886379   112.46311722
 O      1   2   3     2.679033661674   110.65998254   169.53606523
 H      1   2   3     2.068170085493   108.13677390    48.98111823
 H      1   2   3     2.070446594744   107.91528492   290.71549678
 H     13  10   8     1.854639785842   108.37524973   299.98502696
 H     14   8   6     1.838571075430   107.85878178   324.93143413
 H     15   6   4     1.831535040645   109.96931949   313.57365489
 H     16   4   2     1.828289752550   110.36827337   287.17303437
 H     17   1   2     1.830109499239   108.97525228   185.83393580

---------------------
BASIS SET INFORMATION
---------------------
There are 3 groups of distinct atoms

 Group   1 Type C   : 7s4p1d contracted to 3s2p1d pattern {511/31/1}
 Group   2 Type H   : 4s contracted to 2s pattern {31}
 Group   3 Type O   : 7s4p1d contracted to 3s2p1d pattern {511/31/1}

Atom   0C    basis set group =>   1
Atom   1C    basis set group =>   1
Atom   2H    basis set group =>   2
Atom   3C    basis set group =>   1
Atom   4H    basis set group =>   2
Atom   5C    basis set group =>   1
Atom   6H    basis set group =>   2
Atom   7C    basis set group =>   1
Atom   8H    basis set group =>   2
Atom   9C    basis set group =>   1
Atom  10H    basis set group =>   2
Atom  11O    basis set group =>   3
Atom  12O    basis set group =>   3
Atom  13O    basis set group =>   3
Atom  14O    basis set group =>   3
Atom  15O    basis set group =>   3
Atom  16O    basis set group =>   3
Atom  17H    basis set group =>   2
Atom  18H    basis set group =>   2
Atom  19H    basis set group =>   2
Atom  20H    basis set group =>   2
Atom  21H    basis set group =>   2
Atom  22H    basis set group =>   2
Atom  23H    basis set group =>   2
---------------------------------
AUXILIARY/J BASIS SET INFORMATION
---------------------------------
There are 3 groups of distinct atoms

 Group   1 Type C   : 12s5p4d2f1g contracted to 6s4p3d1f1g pattern {711111/2111/211/2/1}
 Group   2 Type H   : 5s2p1d contracted to 3s1p1d pattern {311/2/1}
 Group   3 Type O   : 12s5p4d2f1g contracted to 6s4p3d1f1g pattern {711111/2111/211/2/1}

Atom   0C    basis set group =>   1
Atom   1C    basis set group =>   1
Atom   2H    basis set group =>   2
Atom   3C    basis set group =>   1
Atom   4H    basis set group =>   2
Atom   5C    basis set group =>   1
Atom   6H    basis set group =>   2
Atom   7C    basis set group =>   1
Atom   8H    basis set group =>   2
Atom   9C    basis set group =>   1
Atom  10H    basis set group =>   2
Atom  11O    basis set group =>   3
Atom  12O    basis set group =>   3
Atom  13O    basis set group =>   3
Atom  14O    basis set group =>   3
Atom  15O    basis set group =>   3
Atom  16O    basis set group =>   3
Atom  17H    basis set group =>   2
Atom  18H    basis set group =>   2
Atom  19H    basis set group =>   2
Atom  20H    basis set group =>   2
Atom  21H    basis set group =>   2
Atom  22H    basis set group =>   2
Atom  23H    basis set group =>   2
------------------------------------------------------------------------------
                             ORCA STARTUP CALCULATIONS
                           -- RI-GTO INTEGRALS CHOSEN --
------------------------------------------------------------------------------
------------------------------------------------------------------------------
                   ___                                                        
                  /   \      - P O W E R E D   B Y -                         
                 /     \                                                     
                 |  |  |   _    _      __       _____    __    __             
                 |  |  |  | |  | |    /  \     |  _  \  |  |  /  |          
                  \  \/   | |  | |   /    \    | | | |  |  | /  /          
                 / \  \   | |__| |  /  /\  \   | |_| |  |  |/  /          
                |  |  |   |  __  | /  /__\  \  |    /   |      \           
                |  |  |   | |  | | |   __   |  |    \   |  |\   \          
                \     /   | |  | | |  |  |  |  | |\  \  |  | \   \       
                 \___/    |_|  |_| |__|  |__|  |_| \__\ |__|  \__/        
                                                                              
                      - O R C A' S   B I G   F R I E N D -                    
                                      &                                       
                       - I N T E G R A L  F E E D E R -                       
                                                                              
 v1 FN, 2020, v2 2021, v3 2022-2024                                           
------------------------------------------------------------------------------


----------------------
SHARK INTEGRAL PACKAGE
----------------------

Number of atoms                             ...     24
Number of basis functions                   ...    192
Number of shells                            ...     96
Maximum angular momentum                    ...      2
Integral batch strategy                     ... SHARK/LIBINT Hybrid
RI-J (if used) integral strategy            ... SPLIT-RIJ (Revised 2003 algorithm where possible)
Printlevel                                  ...      1
Contraction scheme used                     ... SEGMENTED contraction
Prescreening option                         ... SCHWARTZ
   Thresh                                   ... 1.000e-09
   Tcut                                     ... 1.000e-10
   Tpresel                                  ... 1.000e-10 
Coulomb Range Separation                    ... NOT USED
Exchange Range Separation                   ... NOT USED
Multipole approximations                    ... NOT USED
Finite Nucleus Model                        ... NOT USED
CABS basis                                  ... NOT available
Auxiliary Coulomb fitting basis             ... AVAILABLE
   # of basis functions in Aux-J            ...    720
   # of shells in Aux-J                     ...    240
   Maximum angular momentum in Aux-J        ...      4
Auxiliary J/K fitting basis                 ... NOT available
Auxiliary Correlation fitting basis         ... NOT available
Auxiliary 'external' fitting basis          ... NOT available

Checking pre-screening integrals            ... done (  0.0 sec) Dimension = 96
Check shell pair data                       ... done (  0.0 sec)
Shell pair information
Shell pair cut-off parameter TPreSel        ...   1.0e-10
Total number of shell pairs                 ...      4656
Shell pairs after pre-screening             ...      4244
Total number of primitive shell pairs       ...     18720
Primitive shell pairs kept                  ...     11475
          la=0 lb=0:   1647 shell pairs
          la=1 lb=0:   1347 shell pairs
          la=1 lb=1:    291 shell pairs
          la=2 lb=0:    624 shell pairs
          la=2 lb=1:    268 shell pairs
          la=2 lb=2:     67 shell pairs

Calculating one electron integrals          ... done (  0.0 sec)
Calculating RI/J V-Matrix + Cholesky decomp.... done (  0.1 sec)
Calculating Nuclear repulsion               ... done (  0.0 sec) ENN=    850.415511672205 Eh

Diagonalization of the overlap matrix:
Smallest eigenvalue                        ... 8.633e-04
Time for diagonalization                   ...    0.003 sec
Threshold for overlap eigenvalues          ... 1.000e-07
Number of eigenvalues below threshold      ... 0
Time for construction of square roots      ...    0.012 sec
Total time needed                          ...    0.023 sec

-------------------
DFT GRID GENERATION
-------------------

General Integration Accuracy     IntAcc      ... 4.159
Radial Grid Type                 RadialGrid  ... OptM3 with GC (2021)
Angular Grid (max. ang.)         AngularGrid ... 3 (Lebedev-194)
Angular grid pruning method      GridPruning ... 4 (adaptive)
Weight generation scheme         WeightScheme... mBecke (2022)
Basis function cutoff            BFCut       ... 1.0000e-10
Integration weight cutoff        WCut        ... 1.0000e-14
Partially contracted basis set               ... off
Rotationally invariant grid construction     ... off
Angular grids for H and He will be reduced by one unit

Total number of grid points                  ...    55627
Total number of batches                      ...      878
Average number of points per batch           ...       63
Average number of grid points per atom       ...     2318
Initializing property integral containers    ... done (  0.0 sec)

SHARK setup successfully completed in   0.9 seconds

Maximum memory used throughout the entire STARTUP-calculation: 28.2 MB
-------------------------------------------------------------------------------
                                 ORCA GUESS
                   Start orbitals & Density for SCF / CASSCF
-------------------------------------------------------------------------------

------------
SCF SETTINGS
------------
Hamiltonian:
 Density Functional     Method          .... DFT(GTOs)
 Exchange Functional    Exchange        .... PBE
   PBE kappa parameter   XKappa         ....  0.804000
   PBE mue parameter    XMuePBE         ....  0.219520
 Correlation Functional Correlation     .... PBE
   PBE beta parameter  CBetaPBE         ....  0.066725
 LDA part of GGA corr.  LDAOpt          .... PW91-LDA
 Gradients option       PostSCFGGA      .... off
   NL short-range parameter             ....  6.400000
 RI-approximation to the Coulomb term is turned on
   Number of AuxJ basis functions       .... 720


General Settings:
 Integral files         IntName         .... sp
 Hartree-Fock type      HFTyp           .... RHF
 Total Charge           Charge          ....    0
 Multiplicity           Mult            ....    1
 Number of Electrons    NEL             ....   96
 Basis Dimension        Dim             ....  192
 Nuclear Repulsion      ENuc            ....    850.4155116722 Eh

Convergence Acceleration:
 AO-DIIS                CNVDIIS         .... on
   Start iteration      DIISMaxIt       ....    12
   Startup error        DIISStart       ....  0.200000
   # of expansion vecs  DIISMaxEq       ....     5
   Bias factor          DIISBfac        ....   1.050
   Max. coefficient     DIISMaxC        ....  10.000
 MO-DIIS                CNVKDIIS        .... off
 Trust-Rad. Augm. Hess. CNVTRAH         .... auto
   Auto Start mean grad. ratio tolernc. ....  1.125000
   Auto Start start iteration           ....    50
   Auto Start num. interpolation iter.  ....    10
   Max. Number of Micro iterations      ....    24
   Max. Number of Macro iterations      .... Maxiter - #DIIS iter
   Number of Davidson start vectors     ....     2
   Converg. threshold    (grad. norm)   ....   1.000e-04
   Grad. Scal. Fac. for Micro threshold ....   0.100
   Minimum threshold for Micro iter.    ....   1.000e-02
   NR start threshold (gradient norm)   ....   1.000e-04
   Initial trust radius                 ....   0.400
   Minimum AH scaling param. (alpha)    ....   1.000
   Maximum AH scaling param. (alpha)    .... 1000.000
   Quad. conv. algorithm                .... NR
   White noise on init. David. guess    .... on
   Maximum white noise                  ....   0.010
   Pseudo random numbers                .... off
   Inactive MOs                         .... canonical
   Orbital update algorithm             .... Taylor
   Preconditioner                       .... Diag
   Full preconditioner red. dimension   ....   250
 SOSCF                  CNVSOSCF        .... on
   Start iteration      SOSCFMaxIt      ....   150
   Startup grad/error   SOSCFStart      ....  0.003300
   Hessian update       SOSCFHessUp     .... L-BFGS
 Level Shifting         CNVShift        .... on
   Level shift para.    LevelShift      ....    0.2500
   Turn off err/grad.   ShiftErr        ....    0.0010
 Zerner damping         CNVZerner       .... off
 Static damping         CNVDamp         .... on
   Fraction old density DampFac         ....    0.7000
   Max. Damping (<1)    DampMax         ....    0.9800
   Min. Damping (>=0)   DampMin         ....    0.0000
   Turn off err/grad.   DampErr         ....    0.1000

SCF Procedure:
 Maximum # iterations   MaxIter         ....   125
 SCF integral mode      SCFMode         .... Direct
   Integral package                     .... SHARK and LIBINT hybrid scheme
 Reset frequency        DirectResetFreq ....    20
 Integral Threshold     Thresh          ....  1.000e-09 Eh
 Primitive CutOff       TCut            ....  1.000e-10 Eh

Convergence Tolerance:
 Convergence Check Mode ConvCheckMode   .... Total+1el-Energy
 Convergence forced     ConvForced      .... 0
 Energy Change          TolE            ....  1.000e-05 Eh
 1-El. energy change                    ....  1.000e-02 Eh
 Orbital Gradient       TolG            ....  1.000e-04
 Orbital Rotation angle TolX            ....  1.000e-04
 DIIS Error             TolErr          ....  5.000e-04

------------------------------
INITIAL GUESS: MODEL POTENTIAL
------------------------------
Loading Hartree-Fock densities                     ... done
Calculating cut-offs                               ... done
Initializing the effective Hamiltonian             ... done
Setting up the integral package (SHARK)            ... done
Starting the Coulomb interaction                   ... done (   0.2 sec)
Making the grid                                    ... done (   0.3 sec)
Mapping shells                                     ... done
Starting the XC term evaluation                    ... done (   0.3 sec)
  promolecular density results
     # of electrons  =     95.989233282
     EX              =    -83.235395200
     EC              =     -3.273057853
     EX+EC           =    -86.508453054
Transforming the Hamiltonian                       ... done (   0.0 sec)
Diagonalizing the Hamiltonian                      ... done (   0.0 sec)
Back transforming the eigenvectors                 ... done (   0.0 sec)
Now organizing SCF variables                       ... done
                      ------------------
                      INITIAL GUESS DONE (   0.8 sec)
                      ------------------
             **** ENERGY FILE WAS UPDATED (sp.en.tmp) ****
Finished Guess after   1.0 sec
Maximum memory used throughout the entire GUESS-calculation: 22.0 MB

-------------------------------------------------------------------------------------------
                                      ORCA LEAN-SCF
                              memory conserving SCF solver
-------------------------------------------------------------------------------------------

----------------------------------------D-I-I-S--------------------------------------------
Iteration    Energy (Eh)           Delta-E    RMSDP     MaxDP     DIISErr   Damp  Time(sec)
-------------------------------------------------------------------------------------------
               ***  Starting incremental Fock matrix formation  ***
    1    -685.5147769433000349     0.00e+00  5.22e-03  1.63e-01  2.43e-01  0.700   1.2
    2    -685.6671261228958656    -1.52e-01  3.40e-03  1.06e-01  9.63e-02  0.700   1.2
                               ***Turning on AO-DIIS***
    3    -685.7152485967732218    -4.81e-02  1.17e-03  2.51e-02  2.08e-02  0.700   1.1
    4    -685.7473301327064519    -3.21e-02  1.47e-03  2.29e-02  1.09e-02  0.000   1.0
    5    -685.8214172786030076    -7.41e-02  4.82e-04  1.37e-02  5.43e-03  0.000   1.1
                              *** Initializing SOSCF ***
---------------------------------------S-O-S-C-F--------------------------------------
Iteration    Energy (Eh)           Delta-E    RMSDP     MaxDP     MaxGrad    Time(sec)
--------------------------------------------------------------------------------------
    6    -685.8217647384566362    -3.47e-04  1.47e-04  3.31e-03  1.39e-03     1.1
               *** Restarting incremental Fock matrix formation ***
    7    -685.8217935298547445    -2.88e-05  1.07e-04  2.41e-03  1.90e-04     1.2
    8    -685.8217914628945664     2.07e-06  4.34e-05  9.62e-04  2.99e-04     1.0
                 **** Energy Check signals convergence ****

               *****************************************************
               *                     SUCCESS                       *
               *           SCF CONVERGED AFTER   8 CYCLES          *
               *****************************************************

             **** ENERGY FILE WAS UPDATED (sp.en.tmp) ****

----------------
TOTAL SCF ENERGY
----------------

Total Energy       :       -685.82179146289457 Eh          -18662.15971 eV

Components:
Nuclear Repulsion  :        850.41551167220462 Eh           23140.98254 eV
Electronic Energy  :      -1536.23730313509918 Eh          -41803.14225 eV
One Electron Energy:      -2630.07029517205956 Eh          -71567.85117 eV
Two Electron Energy:       1093.83299203696038 Eh           29764.70892 eV

Virial components:
Potential Energy   :      -1366.91979597094223 Eh          -37195.77865 eV
Kinetic Energy     :        681.09800450804755 Eh           18533.61893 eV
Virial Ratio       :          2.00693554660795

DFT components:
N(Alpha)           :       48.000100635522 electrons
N(Beta)            :       48.000100635522 electrons
N(Total)           :       96.000201271045 electrons
E(X)               :      -84.596871787748 Eh       
E(C)               :       -3.284723757487 Eh       
E(XC)              :      -87.881595545236 Eh       

---------------
SCF CONVERGENCE
---------------

  Last Energy change         ...   -2.0670e-06  Tolerance :   1.0000e-05
  Last MAX-Density change    ...    9.6197e-04  Tolerance :   1.0000e-03
  Last RMS-Density change    ...    4.3371e-05  Tolerance :   1.0000e-04
  Last DIIS Error            ...    1.3908e-03  Tolerance :   5.0000e-04
  Last Orbital Gradient      ...    2.9863e-04  Tolerance :   1.0000e-04
  Last Orbital Rotation      ...    2.1917e-04  Tolerance :   1.0000e-04


----------------
ORBITAL ENERGIES
----------------

  NO   OCC          E(Eh)            E(eV) 
   0   2.0000     -18.800520      -511.5881 
   1   2.0000     -18.758787      -510.4525 
   2   2.0000     -18.758599      -510.4474 
   3   2.0000     -18.758466      -510.4438 
   4   2.0000     -18.735477      -509.8182 
   5   2.0000     -18.729001      -509.6420 
   6   2.0000      -9.967045      -271.2171 
   7   2.0000      -9.958758      -270.9916 
   8   2.0000      -9.953883      -270.8589 
   9   2.0000      -9.950400      -270.7641 
  10   2.0000      -9.939416      -270.4653 
  11   2.0000      -9.928913      -270.1794 
  12   2.0000      -0.975958       -26.5572 
  13   2.0000      -0.958498       -26.0821 
  14   2.0000      -0.945466       -25.7274 
  15   2.0000      -0.931052       -25.3352 
  16   2.0000      -0.906913       -24.6784 
  17   2.0000      -0.891701       -24.2644 
  18   2.0000      -0.710964       -19.3463 
  19   2.0000      -0.688661       -18.7394 
  20   2.0000      -0.629370       -17.1260 
  21   2.0000      -0.577753       -15.7215 
  22   2.0000      -0.572207       -15.5705 
  23   2.0000      -0.532669       -14.4947 
  24   2.0000      -0.502701       -13.6792 
  25   2.0000      -0.492162       -13.3924 
  26   2.0000      -0.467576       -12.7234 
  27   2.0000      -0.462607       -12.5882 
  28   2.0000      -0.442987       -12.0543 
  29   2.0000      -0.435471       -11.8498 
  30   2.0000      -0.420036       -11.4297 
  31   2.0000      -0.401667       -10.9299 
  32   2.0000      -0.399668       -10.8755 
  33   2.0000      -0.389106       -10.5881 
  34   2.0000      -0.360344        -9.8055 
  35   2.0000      -0.350762        -9.5447 
  36   2.0000      -0.332084        -9.0365 
  37   2.0000      -0.311249        -8.4695 
  38   2.0000      -0.292295        -7.9537 
  39   2.0000      -0.288676        -7.8553 
  40   2.0000      -0.279943        -7.6176 
  41   2.0000      -0.271278        -7.3818 
  42   2.0000      -0.265813        -7.2331 
  43   2.0000      -0.249404        -6.7866 
  44   2.0000      -0.235411        -6.4059 
  45   2.0000      -0.212542        -5.7836 
  46   2.0000      -0.208464        -5.6726 
  47   2.0000      -0.199978        -5.4417 
  48   0.0000      -0.008945        -0.2434 
  49   0.0000       0.009250         0.2517 
  50   0.0000       0.024612         0.6697 
  51   0.0000       0.050342         1.3699 
  52   0.0000       0.059950         1.6313 
  53   0.0000       0.078847         2.1455 
  54   0.0000       0.081017         2.2046 
  55   0.0000       0.091557         2.4914 
  56   0.0000       0.102233         2.7819 
  57   0.0000       0.113366         3.0849 
  58   0.0000       0.115652         3.1471 
*Only the first 10 virtual orbitals were printed.

                    ********************************
                    * MULLIKEN POPULATION ANALYSIS *
                    ********************************

-----------------------
MULLIKEN ATOMIC CHARGES
-----------------------
   0 C :   -0.006713
   1 C :    0.052182
   2 H :    0.077780
   3 C :    0.014836
   4 H :    0.047965
   5 C :    0.062122
   6 H :    0.078216
   7 C :    0.013591
   8 H :    0.032992
   9 C :    0.233738
  10 H :    0.074364
  11 O :   -0.304342
  12 O :   -0.414135
  13 O :   -0.413920
  14 O :   -0.411988
  15 O :   -0.393778
  16 O :   -0.435952
  17 H :    0.079303
  18 H :    0.106414
  19 H :    0.290999
  20 H :    0.298177
  21 H :    0.296755
  22 H :    0.298523
  23 H :    0.322871
Sum of atomic charges:    0.0000000

--------------------------------
MULLIKEN REDUCED ORBITAL CHARGES
--------------------------------
  0 C s       :     3.029878  s :     3.029878
      pz      :     0.807285  p :     2.916086
      px      :     1.016550
      py      :     1.092252
      dz2     :     0.018182  d :     0.060749
      dxz     :     0.012495
      dyz     :     0.014324
      dx2y2   :     0.009246
      dxy     :     0.006502

  1 C s       :     3.041696  s :     3.041696
      pz      :     1.014244  p :     2.840435
      px      :     0.872985
      py      :     0.953206
      dz2     :     0.007866  d :     0.065687
      dxz     :     0.017573
      dyz     :     0.009968
      dx2y2   :     0.014760
      dxy     :     0.015519

  2 H s       :     0.922220  s :     0.922220

  3 C s       :     3.054485  s :     3.054485
      pz      :     0.964979  p :     2.863416
      px      :     1.007537
      py      :     0.890900
      dz2     :     0.016582  d :     0.067263
      dxz     :     0.009229
      dyz     :     0.012589
      dx2y2   :     0.016374
      dxy     :     0.012489

  4 H s       :     0.952035  s :     0.952035

  5 C s       :     3.034812  s :     3.034812
      pz      :     1.030769  p :     2.834737
      px      :     0.979169
      py      :     0.824800
      dz2     :     0.015255  d :     0.068329
      dxz     :     0.007483
      dyz     :     0.013540
      dx2y2   :     0.017643
      dxy     :     0.014408

  6 H s       :     0.921784  s :     0.921784

  7 C s       :     3.075632  s :     3.075632
      pz      :     1.062304  p :     2.843811
      px      :     0.779095
      py      :     1.002411
      dz2     :     0.012029  d :     0.066966
      dxz     :     0.017245
      dyz     :     0.006929
      dx2y2   :     0.017018
      dxy     :     0.013746

  8 H s       :     0.967008  s :     0.967008

  9 C s       :     2.983035  s :     2.983035
      pz      :     0.901961  p :     2.682543
      px      :     0.902412
      py      :     0.878171
      dz2     :     0.014523  d :     0.100683
      dxz     :     0.024950
      dyz     :     0.024443
      dx2y2   :     0.022443
      dxy     :     0.014325

 10 H s       :     0.925636  s :     0.925636

 11 O s       :     3.753356  s :     3.753356
      pz      :     1.583495  p :     4.535808
      px      :     1.248411
      py      :     1.703902
      dz2     :     0.002612  d :     0.015178
      dxz     :     0.005443
      dyz     :     0.002225
      dx2y2   :     0.002323
      dxy     :     0.002575

 12 O s       :     3.768742  s :     3.768742
      pz      :     1.479766  p :     4.630108
      px      :     1.594508
      py      :     1.555834
      dz2     :     0.001103  d :     0.015285
      dxz     :     0.004224
      dyz     :     0.003421
      dx2y2   :     0.004125
      dxy     :     0.002413

 13 O s       :     3.772953  s :     3.772953
      pz      :     1.886709  p :     4.625540
      px      :     1.360747
      py      :     1.378084
      dz2     :     0.002521  d :     0.015427
      dxz     :     0.002001
      dyz     :     0.001056
      dx2y2   :     0.008080
      dxy     :     0.001770

 14 O s       :     3.788533  s :     3.788533
      pz      :     1.347049  p :     4.607966
      px      :     1.739358
      py      :     1.521558
      dz2     :     0.004569  d :     0.015489
      dxz     :     0.003877
      dyz     :     0.001527
      dx2y2   :     0.002783
      dxy     :     0.002733

 15 O s       :     3.779454  s :     3.779454
      pz      :     1.741477  p :     4.598780
      px      :     1.238969
      py      :     1.618334
      dz2     :     0.002573  d :     0.015544
      dxz     :     0.002214
      dyz     :     0.003149
      dx2y2   :     0.006129
      dxy     :     0.001479

 16 O s       :     3.793258  s :     3.793258
      pz      :     1.272039  p :     4.627754
      px      :     1.587626
      py      :     1.768088
      dz2     :     0.001721  d :     0.014940
      dxz     :     0.005763
      dyz     :     0.002850
      dx2y2   :     0.001367
      dxy     :     0.003240

 17 H s       :     0.920697  s :     0.920697

 18 H s       :     0.893586  s :     0.893586

 19 H s       :     0.709001  s :     0.709001

 20 H s       :     0.701823  s :     0.701823

 21 H s       :     0.703245  s :     0.703245

 22 H s       :     0.701477  s :     0.701477

 23 H s       :     0.677129  s :     0.677129


------------------------
MULLIKEN OVERLAP CHARGES
------------------------
B(  0-C ,  1-C ) :   0.4305 B(  0-C ,  3-C ) :  -0.1044 B(  0-C , 11-O ) :  -0.1475 
B(  0-C , 16-O ) :   0.5496 B(  0-C , 17-H ) :   0.6416 B(  0-C , 18-H ) :   0.6842 
B(  1-C ,  2-H ) :   0.5744 B(  1-C ,  3-C ) :   0.3096 B(  1-C ,  4-H ) :  -0.1413 
B(  1-C ,  9-C ) :  -0.2062 B(  1-C , 11-O ) :   0.7130 B(  1-C , 15-O ) :  -0.0964 
B(  1-C , 16-O ) :  -0.1289 B(  3-C ,  4-H ) :   0.6645 B(  3-C ,  5-C ) :   0.0652 
B(  3-C , 11-O ) :  -0.1535 B(  3-C , 14-O ) :  -0.0817 B(  3-C , 15-O ) :   0.6174 
B(  3-C , 22-H ) :  -0.0744 B(  4-H ,  5-C ) :  -0.0708 B(  4-H , 15-O ) :  -0.0672 
B(  5-C ,  6-H ) :   0.5555 B(  5-C ,  7-C ) :   0.2502 B(  5-C ,  8-H ) :  -0.0641 
B(  5-C , 11-O ) :   0.0617 B(  5-C , 14-O ) :   0.6249 B(  5-C , 15-O ) :  -0.1078 
B(  5-C , 21-H ) :  -0.1215 B(  6-H , 14-O ) :  -0.0772 B(  7-C ,  8-H ) :   0.5598 
B(  7-C ,  9-C ) :   0.2028 B(  7-C , 11-O ) :  -0.1382 B(  7-C , 12-O ) :  -0.0874 
B(  7-C , 13-O ) :   0.6211 B(  7-C , 14-O ) :  -0.1025 B(  7-C , 20-H ) :  -0.0943 
B(  8-H ,  9-C ) :  -0.0728 B(  8-H , 13-O ) :  -0.0707 B(  9-C , 10-H ) :   0.5886 
B(  9-C , 11-O ) :   0.5802 B(  9-C , 12-O ) :   0.6806 B(  9-C , 13-O ) :  -0.0943 
B(  9-C , 19-H ) :  -0.1118 B( 10-H , 12-O ) :  -0.0595 B( 11-O , 12-O ) :  -0.1312 
B( 12-O , 19-H ) :   0.5245 B( 13-O , 20-H ) :   0.5186 B( 14-O , 20-H ) :   0.0737 
B( 14-O , 21-H ) :   0.5303 B( 15-O , 22-H ) :   0.5119 B( 16-O , 17-H ) :  -0.0522 
B( 16-O , 18-H ) :  -0.0637 B( 16-O , 19-H ) :   0.1247 B( 16-O , 23-H ) :   0.5062 
B( 17-H , 18-H ) :  -0.0785 


                     *******************************
                     * LOEWDIN POPULATION ANALYSIS *
                     *******************************

----------------------
LOEWDIN ATOMIC CHARGES
----------------------
   0 C :   -0.141910
   1 C :   -0.067320
   2 H :    0.127545
   3 C :   -0.081226
   4 H :    0.095877
   5 C :   -0.077920
   6 H :    0.126837
   7 C :   -0.092165
   8 H :    0.092269
   9 C :    0.000271
  10 H :    0.117282
  11 O :   -0.144308
  12 O :   -0.319109
  13 O :   -0.320268
  14 O :   -0.303507
  15 O :   -0.313377
  16 O :   -0.324719
  17 H :    0.105383
  18 H :    0.114810
  19 H :    0.260412
  20 H :    0.277478
  21 H :    0.284130
  22 H :    0.284315
  23 H :    0.299221

-------------------------------
LOEWDIN REDUCED ORBITAL CHARGES
-------------------------------
  0 C s       :     2.930876  s :     2.930876
      pz      :     0.890996  p :     3.072721
      px      :     1.060866
      py      :     1.120859
      dz2     :     0.038253  d :     0.138313
      dxz     :     0.030029
      dyz     :     0.033211
      dx2y2   :     0.021400
      dxy     :     0.015421

  1 C s       :     2.903398  s :     2.903398
      pz      :     1.071231  p :     3.012109
      px      :     0.925009
      py      :     1.015868
      dz2     :     0.015828  d :     0.151813
      dxz     :     0.042043
      dyz     :     0.025497
      dx2y2   :     0.033151
      dxy     :     0.035295

  2 H s       :     0.872455  s :     0.872455

  3 C s       :     2.894678  s :     2.894678
      pz      :     1.039114  p :     3.028760
      px      :     1.032002
      py      :     0.957643
      dz2     :     0.039722  d :     0.157788
      dxz     :     0.018925
      dyz     :     0.029340
      dx2y2   :     0.043169
      dxy     :     0.026633

  4 H s       :     0.904123  s :     0.904123

  5 C s       :     2.891527  s :     2.891527
      pz      :     1.065606  p :     3.026509
      px      :     1.041255
      py      :     0.919648
      dz2     :     0.035334  d :     0.159884
      dxz     :     0.015233
      dyz     :     0.030331
      dx2y2   :     0.044079
      dxy     :     0.034908

  6 H s       :     0.873163  s :     0.873163

  7 C s       :     2.902836  s :     2.902836
      pz      :     1.087278  p :     3.032461
      px      :     0.880428
      py      :     1.064756
      dz2     :     0.028390  d :     0.156868
      dxz     :     0.037672
      dyz     :     0.019376
      dx2y2   :     0.040177
      dxy     :     0.031254

  8 H s       :     0.907731  s :     0.907731

  9 C s       :     2.883299  s :     2.883299
      pz      :     0.969270  p :     2.892031
      px      :     0.960763
      py      :     0.961997
      dz2     :     0.026579  d :     0.224399
      dxz     :     0.058639
      dyz     :     0.060092
      dx2y2   :     0.051556
      dxy     :     0.027532

 10 H s       :     0.882718  s :     0.882718

 11 O s       :     3.474843  s :     3.474843
      pz      :     1.618633  p :     4.639897
      px      :     1.309237
      py      :     1.712027
      dz2     :     0.004157  d :     0.029568
      dxz     :     0.011469
      dyz     :     0.003097
      dx2y2   :     0.005150
      dxy     :     0.005695

 12 O s       :     3.528014  s :     3.528014
      pz      :     1.532770  p :     4.764043
      px      :     1.623619
      py      :     1.607654
      dz2     :     0.002102  d :     0.027052
      dxz     :     0.007298
      dyz     :     0.007142
      dx2y2   :     0.007237
      dxy     :     0.003272

 13 O s       :     3.533627  s :     3.533627
      pz      :     1.892369  p :     4.759668
      px      :     1.427623
      py      :     1.439676
      dz2     :     0.003979  d :     0.026973
      dxz     :     0.003008
      dyz     :     0.001432
      dx2y2   :     0.015088
      dxy     :     0.003466

 14 O s       :     3.534612  s :     3.534612
      pz      :     1.416267  p :     4.741700
      px      :     1.756154
      py      :     1.569278
      dz2     :     0.008159  d :     0.027195
      dxz     :     0.006574
      dyz     :     0.003429
      dx2y2   :     0.004835
      dxy     :     0.004197

 15 O s       :     3.539203  s :     3.539203
      pz      :     1.779554  p :     4.746732
      px      :     1.318618
      py      :     1.648559
      dz2     :     0.003986  d :     0.027443
      dxz     :     0.003980
      dyz     :     0.005058
      dx2y2   :     0.011075
      dxy     :     0.003345

 16 O s       :     3.539940  s :     3.539940
      pz      :     1.336648  p :     4.758757
      px      :     1.636842
      py      :     1.785267
      dz2     :     0.004291  d :     0.026022
      dxz     :     0.010456
      dyz     :     0.005074
      dx2y2   :     0.001623
      dxy     :     0.004578

 17 H s       :     0.894617  s :     0.894617

 18 H s       :     0.885190  s :     0.885190

 19 H s       :     0.739588  s :     0.739588

 20 H s       :     0.722522  s :     0.722522

 21 H s       :     0.715870  s :     0.715870

 22 H s       :     0.715685  s :     0.715685

 23 H s       :     0.700779  s :     0.700779


---------------------------------
LOEWDIN BOND ORDERS (THRESH 0.050000)
---------------------------------
B(  0-C ,  1-C ) :   1.0745 B(  0-C ,  3-C ) :   0.0574 B(  0-C , 11-O ) :   0.0676 
B(  0-C , 16-O ) :   1.1866 B(  0-C , 17-H ) :   0.9071 B(  0-C , 18-H ) :   0.9052 
B(  1-C ,  2-H ) :   0.8705 B(  1-C ,  3-C ) :   0.9988 B(  1-C ,  5-C ) :   0.0548 
B(  1-C ,  9-C ) :   0.0623 B(  1-C , 11-O ) :   1.1540 B(  1-C , 15-O ) :   0.0813 
B(  1-C , 16-O ) :   0.0528 B(  3-C ,  4-H ) :   0.8626 B(  3-C ,  5-C ) :   1.0245 
B(  3-C ,  7-C ) :   0.0618 B(  3-C , 11-O ) :   0.0567 B(  3-C , 14-O ) :   0.0703 
B(  3-C , 15-O ) :   1.2235 B(  5-C ,  6-H ) :   0.8640 B(  5-C ,  7-C ) :   1.0196 
B(  5-C ,  9-C ) :   0.0540 B(  5-C , 13-O ) :   0.0764 B(  5-C , 14-O ) :   1.2196 
B(  5-C , 15-O ) :   0.0638 B(  7-C ,  8-H ) :   0.8618 B(  7-C ,  9-C ) :   1.0074 
B(  7-C , 11-O ) :   0.0585 B(  7-C , 12-O ) :   0.0758 B(  7-C , 13-O ) :   1.2318 
B(  7-C , 14-O ) :   0.0816 B(  9-C , 10-H ) :   0.8814 B(  9-C , 11-O ) :   1.1711 
B(  9-C , 12-O ) :   1.3054 B(  9-C , 13-O ) :   0.0642 B( 11-O , 12-O ) :   0.0932 
B( 12-O , 19-H ) :   0.8313 B( 13-O , 20-H ) :   0.8638 B( 14-O , 21-H ) :   0.8801 
B( 15-O , 22-H ) :   0.8850 B( 16-O , 19-H ) :   0.1057 B( 16-O , 23-H ) :   0.8781 


------------------------------------------
LOEWDIN REDUCED ORBITAL POPULATIONS PER MO
-------------------------------------------
THRESHOLD FOR PRINTING IS 0.1%%
                      0         1         2         3         4         5   
                 -18.80052 -18.75879 -18.75860 -18.75847 -18.73548 -18.72900
                   2.00000   2.00000   2.00000   2.00000   2.00000   2.00000
                  --------  --------  --------  --------  --------  --------
11 O  s               0.0       0.2       4.1      95.6       0.0       0.0
12 O  s               0.0       0.0       0.0       0.0       0.0      99.9
13 O  s               0.0       0.0       0.0       0.0      99.9       0.0
14 O  s               0.0      97.8       1.6       0.5       0.0       0.0
15 O  s               0.0       1.9      94.2       3.8       0.0       0.0
16 O  s              99.9       0.0       0.0       0.0       0.0       0.0

                      6         7         8         9        10        11   
                  -9.96704  -9.95876  -9.95388  -9.95040  -9.93942  -9.92891
                   2.00000   2.00000   2.00000   2.00000   2.00000   2.00000
                  --------  --------  --------  --------  --------  --------
 0 C  s               0.0      99.6       0.0       0.0       0.0       0.0
 1 C  s               0.0       0.0      99.6       0.0       0.0       0.0
 3 C  s               0.0       0.0       0.0      99.6       0.0       0.0
 3 C  px              0.0       0.0       0.0       0.0       0.1       0.0
 5 C  s               0.0       0.0       0.0       0.0      99.6       0.0
 5 C  px              0.0       0.0       0.0       0.1       0.0       0.0
 7 C  s               0.0       0.0       0.0       0.0       0.0      99.6
 9 C  s              99.6       0.0       0.0       0.0       0.0       0.0
13 O  px              0.0       0.0       0.0       0.0       0.0       0.1

                     12        13        14        15        16        17   
                  -0.97596  -0.95850  -0.94547  -0.93105  -0.90691  -0.89170
                   2.00000   2.00000   2.00000   2.00000   2.00000   2.00000
                  --------  --------  --------  --------  --------  --------
 0 C  s               7.0       2.7       0.1       0.0       0.0       0.3
 0 C  pz              2.9       4.8       0.3       0.1       0.0       0.2
 0 C  px              1.5       0.1       0.0       0.0       0.0       0.1
 0 C  py              0.0       0.1       0.0       0.0       0.0       0.1
 0 C  dz2             0.3       0.2       0.0       0.0       0.0       0.0
 0 C  dxz             0.1       0.2       0.0       0.0       0.0       0.0
 1 C  s               4.5       1.7       0.2       0.6       0.3       3.4
 1 C  pz              0.2       0.7       0.3       0.0       0.1       0.3
 1 C  px              0.9       2.5       0.7       0.0       0.3       1.4
 1 C  py              0.7       0.0       1.2       0.5       0.2       0.5
 1 C  dxy             0.0       0.1       0.1       0.0       0.0       0.1
 2 H  s               0.6       0.3       0.0       0.2       0.0       0.5
 3 C  s               1.1       1.6       4.2       4.6       0.0       0.0
 3 C  pz              0.1       0.3       0.3       1.5       0.1       0.0
 3 C  px              0.0       0.1       0.1       3.3       0.4       0.0
 3 C  py              0.2       0.1       2.8       1.9       0.1       0.8
 3 C  dyz             0.0       0.0       0.1       0.2       0.0       0.0
 3 C  dxy             0.0       0.0       0.1       0.3       0.0       0.0
 4 H  s               0.3       0.1       0.7       0.5       0.0       0.0
 5 C  s               0.7       2.2       6.3       1.7       0.5       0.0
 5 C  pz              0.0       0.2       1.1       1.1       0.1       0.0
 5 C  px              0.0       0.0       0.0       2.5       0.1       0.0
 5 C  py              0.1       0.1       3.3       1.0       2.8       0.3
 5 C  dyz             0.0       0.0       0.2       0.1       0.1       0.0
 5 C  dx2y2           0.0       0.0       0.1       0.1       0.1       0.0
 6 H  s               0.1       0.4       0.7       0.1       0.0       0.0
 7 C  s               1.0       2.2       0.5       2.3       6.2       0.1
 7 C  pz              0.2       0.3       0.0       0.0       0.0       0.0
 7 C  px              0.1       0.0       0.1       1.0       7.8       0.3
 7 C  py              0.2       0.0       1.9       0.4       0.1       0.5
 7 C  dz2             0.0       0.0       0.0       0.0       0.2       0.0
 7 C  dx2y2           0.0       0.0       0.0       0.0       0.5       0.0
 7 C  dxy             0.0       0.0       0.0       0.0       0.1       0.0
 8 H  s               0.2       0.3       0.1       0.3       0.7       0.0
 9 C  s               5.6       6.8       2.6       0.1       0.1       1.5
 9 C  pz              0.0       0.0       0.0       0.2       0.8       7.0
 9 C  px              1.7       1.5       1.0       0.1       0.9       0.6
 9 C  py              0.1       0.0       0.5       0.0       0.2       6.5
 9 C  dxz             0.1       0.1       0.0       0.0       0.0       0.3
 9 C  dyz             0.1       0.1       0.1       0.0       0.0       0.4
 9 C  dx2y2           0.0       0.0       0.0       0.0       0.0       0.4
10 H  s               0.7       0.9       0.3       0.0       0.1       0.1
11 O  s              13.5      15.7       7.0       0.3       2.5      14.9
11 O  pz              0.9       1.0       0.4       0.0       0.1       0.2
11 O  px              0.0       0.0       0.0       0.0       0.0       0.5
11 O  py              0.1       0.1       0.0       0.0       0.0       0.5
12 O  s               5.4       5.3       4.1       0.3       0.3      43.3
12 O  pz              0.1       0.1       0.1       0.0       0.0       0.0
12 O  px              0.1       0.0       0.1       0.0       0.0       0.5
12 O  py              0.5       0.5       0.3       0.0       0.0       1.5
13 O  s               0.5       1.9       1.5       7.8      44.3       2.0
13 O  px              0.1       0.2       0.1       0.4       1.5       0.0
13 O  py              0.0       0.0       0.1       0.2       1.0       0.1
14 O  s               0.6       4.3      26.0      14.9      12.7       0.4
14 O  pz              0.0       0.0       0.1       0.1       0.2       0.0
14 O  px              0.0       0.1       0.5       0.2       0.3       0.0
14 O  py              0.0       0.2       1.0       0.5       0.2       0.0
15 O  s               1.0       2.8      16.2      35.6       2.2       0.6
15 O  pz              0.0       0.1       0.4       0.7       0.0       0.0
15 O  px              0.0       0.0       0.1       0.4       0.0       0.0
15 O  py              0.1       0.1       0.5       1.0       0.0       0.0
16 O  s              32.7      26.7       1.1       0.1       0.0       0.0
16 O  pz              0.3       0.1       0.0       0.0       0.0       0.0
16 O  px              1.1       1.1       0.1       0.0       0.0       0.0
16 O  py              0.3       0.3       0.0       0.0       0.0       0.0
17 H  s               0.8       0.3       0.0       0.0       0.0       0.0
18 H  s               0.9       0.2       0.0       0.0       0.0       0.0
19 H  s               2.6       0.4       0.7       0.1       0.1       8.4
20 H  s               0.1       0.5       0.6       1.9       8.1       0.4
21 H  s               0.1       0.9       5.3       2.9       2.6       0.1
22 H  s               0.2       0.6       3.2       7.4       0.5       0.1
23 H  s               6.4       5.5       0.2       0.0       0.0       0.0

                     18        19        20        21        22        23   
                  -0.71096  -0.68866  -0.62937  -0.57775  -0.57221  -0.53267
                   2.00000   2.00000   2.00000   2.00000   2.00000   2.00000
                  --------  --------  --------  --------  --------  --------
 0 C  s               9.2       5.3      13.2       0.0       3.9       0.1
 0 C  pz              2.5       1.3       0.2       0.3       0.6       3.3
 0 C  px              0.2       0.0       0.6       0.1       0.6       3.5
 0 C  py              1.5       0.1       0.0       0.7       1.1       0.0
 0 C  dxz             0.0       0.0       0.0       0.0       0.0       0.2
 1 C  s              15.4       3.8       0.5       0.2       5.1       2.9
 1 C  pz              2.0       0.1       2.1       2.7       1.0       3.9
 1 C  px              1.6       1.2       3.5       0.3       0.0       3.4
 1 C  py              0.7       2.7       2.5       4.0       0.9       0.2
 1 C  dyz             0.0       0.0       0.2       0.0       0.0       0.0
 1 C  dxy             0.1       0.0       0.1       0.1       0.0       0.0
 2 H  s               3.0       1.3       0.2       0.3       2.7       4.9
 3 C  s              10.6       3.2       4.3       9.0       0.0       0.3
 3 C  pz              0.0       0.2       0.1       1.0       0.0       4.4
 3 C  px              0.5       4.5       0.6       1.0       2.0       0.1
 3 C  py              4.2       0.2       0.0       0.0       3.4       0.0
 3 C  dx2y2           0.0       0.1       0.0       0.0       0.1       0.0
 4 H  s               2.4       0.6       0.6       4.3       0.0       1.9
 5 C  s               3.9      12.0       0.4       4.2       6.0       0.6
 5 C  pz              0.0       0.0       0.3       0.1       1.9       2.6
 5 C  px              1.7       0.2       2.4       6.5       0.0       0.7
 5 C  py              1.1       4.1       0.4       0.2       2.0       2.1
 5 C  dyz             0.0       0.1       0.0       0.0       0.0       0.0
 6 H  s               0.7       2.5       0.2       1.8       3.2       1.6
 7 C  s               0.5      10.4       5.7       3.3       5.5       0.6
 7 C  pz              0.0       1.1       0.2       0.1       1.0       1.7
 7 C  px              0.6       4.1       0.2       0.5       0.0       1.1
 7 C  py              0.5       0.0       2.2       2.7       3.4       0.3
 7 C  dyz             0.0       0.0       0.1       0.1       0.0       0.0
 8 H  s               0.2       2.0       1.1       1.1       2.8       1.6
 9 C  s               1.5       3.9       7.8       4.8       0.2       2.6
 9 C  pz              2.0       0.1       0.0       2.0       3.5       0.3
 9 C  px              0.4       0.3       0.9       0.3       1.6       4.2
 9 C  py              0.0       3.4       1.5       1.0       1.9       1.9
 9 C  dxz             0.1       0.0       0.0       0.0       0.0       0.0
 9 C  dyz             0.0       0.1       0.1       0.0       0.1       0.0
10 H  s               0.4       0.8       2.4       2.7       0.0       3.1
11 O  s               4.5       0.5       0.8       0.2       0.8       0.4
11 O  pz              0.1       0.1       0.5       0.3       0.0       0.5
11 O  px              4.1       3.8       4.0       7.9       4.0       0.1
11 O  py              0.7       0.0       0.7       0.8       1.6       0.0
12 O  s               0.5       1.2       1.9       0.5       0.2       0.0
12 O  pz              0.3       0.3       1.6       3.6       0.1       5.0
12 O  px              0.0       0.2       0.8       1.1       0.3       4.1
12 O  py              0.0       0.3       1.0       0.6       0.3       0.6
13 O  s               0.1       3.1       1.3       1.1       0.4       0.0
13 O  pz              0.0       0.1       0.0       0.0       0.0       0.2
13 O  px              0.0       1.5       1.7       1.6       2.9       0.0
13 O  py              0.0       0.9       1.7       0.1       3.5       0.1
14 O  s               1.1       2.9       0.2       0.3       0.7       0.1
14 O  pz              0.4       1.6       0.2       4.0       8.2       4.6
14 O  px              0.0       0.0       0.0       0.5       0.0       0.2
14 O  py              0.3       1.4       0.1       2.9       3.4       0.7
15 O  s               3.2       0.4       0.7       1.3       0.0       0.0
15 O  pz              0.1       0.1       0.1       1.0       0.0       0.2
15 O  px              1.8       1.1       2.5       5.4       1.3       0.3
15 O  py              0.8       0.1       0.8       2.6       0.0       0.2
16 O  s               1.9       0.7       1.4       0.0       0.5       0.1
16 O  pz              3.2       1.7       7.9       0.0       5.7      11.8
16 O  px              0.1       0.0       0.2       0.1       0.1       3.3
16 O  py              0.5       0.1       0.6       0.3       0.1       1.8
17 H  s               2.1       1.2       4.3       0.0       1.4       1.0
18 H  s               1.6       1.4       3.5       0.2       1.8       0.2
19 H  s               0.2       0.4       1.5       1.8       0.0       3.1
20 H  s               0.0       1.5       1.4       0.5       1.9       0.0
21 H  s               0.4       1.5       0.1       2.2       3.7       1.4
22 H  s               1.6       0.5       1.3       2.8       0.3       0.1
23 H  s               1.7       0.7       2.4       0.0       1.5       5.0

                     24        25        26        27        28        29   
                  -0.50270  -0.49216  -0.46758  -0.46261  -0.44299  -0.43547
                   2.00000   2.00000   2.00000   2.00000   2.00000   2.00000
                  --------  --------  --------  --------  --------  --------
 0 C  s               2.2       0.6       0.0       0.1       0.0       0.1
 0 C  pz              0.6       2.8       0.0       0.2       5.4       9.2
 0 C  px              6.1       8.9       0.5       0.1       4.0       6.0
 0 C  py              6.9       0.0       0.3       3.7       0.1       6.8
 0 C  dz2             0.0       0.1       0.0       0.0       0.0       0.1
 0 C  dxz             0.0       0.2       0.0       0.0       0.0       0.0
 1 C  s               2.0       0.1       0.1       0.0       0.5       0.1
 1 C  pz              2.0       0.8       0.1       0.6       0.5       2.6
 1 C  px              0.1       1.1       0.7       3.2       3.3       0.1
 1 C  py              1.9       0.2       5.2       0.2       0.8       3.6
 1 C  dyz             0.0       0.0       0.0       0.0       0.2       0.0
 2 H  s               0.2       0.1       0.4       0.1       0.5       0.8
 3 C  s               0.3       0.2       0.2       0.4       0.5       0.4
 3 C  pz              0.6       5.4       9.1       2.6       2.8       4.1
 3 C  px              0.6       0.1       0.1       8.2       1.6       1.1
 3 C  py              9.5       1.8       1.9       0.0       0.9       0.1
 3 C  dxz             0.0       0.0       0.0       0.0       0.1       0.1
 3 C  dyz             0.2       0.1       0.0       0.0       0.1       0.0
 3 C  dx2y2           0.0       0.1       0.0       0.0       0.1       0.0
 4 H  s               0.2       2.3       3.9       2.9       1.8       1.5
 5 C  s               0.3       0.1       0.0       0.6       0.5       0.1
 5 C  pz              0.1       3.1       7.0       0.8       0.8       0.9
 5 C  px              2.2       0.0       0.6       2.5       1.3       2.0
 5 C  py              0.1       2.8       1.7       5.4       0.3       0.7
 5 C  dxz             0.0       0.0       0.0       0.0       0.1       0.1
 5 C  dxy             0.1       0.0       0.0       0.0       0.0       0.0
 6 H  s               0.3       0.5       2.2       0.5       0.6       0.2
 7 C  s               1.2       0.0       0.1       0.2       0.5       1.0
 7 C  pz              1.0       0.2       8.0       0.7       2.9       4.4
 7 C  px              0.5       3.6       0.0       5.4       4.9       1.0
 7 C  py              0.2       2.7       0.1       0.0       0.1       3.1
 7 C  dx2y2           0.1       0.0       0.0       0.1       0.2       0.0
 7 C  dxy             0.0       0.0       0.0       0.0       0.1       0.0
 8 H  s               0.9       0.2       2.3       0.1       3.4       3.1
 9 C  s               0.9       0.2       0.0       0.3       0.8       0.4
 9 C  pz              0.2       0.6       2.6       2.8       0.8       0.0
 9 C  px              0.0       2.7       0.2       0.3       4.2       0.5
 9 C  py              0.7       0.0       7.8       0.3       0.4       1.2
 9 C  dxz             0.0       0.0       0.0       0.1       0.0       0.0
 9 C  dx2y2           0.0       0.0       0.0       0.2       0.0       0.0
10 H  s               0.6       0.5       0.0       0.0       0.6       0.6
11 O  s               1.0       0.0       0.5       1.1       1.1       1.1
11 O  pz              0.6       0.2       0.1       0.4       4.1       2.2
11 O  px              0.5       2.9       8.2       3.3       1.4       0.2
11 O  py              0.0       0.4       1.5       1.9       1.7       0.0
12 O  s               0.1       0.1       0.0       0.0       2.1       0.6
12 O  pz              2.0       0.2       9.5       3.6       0.1       0.6
12 O  px              0.6       0.6       5.6       2.9       1.3       0.7
12 O  py              0.4       0.3       2.0       1.6       2.2       0.0
13 O  s               0.0       0.1       0.0       0.0       0.4       1.1
13 O  pz              0.0       0.2       0.9       0.0       1.0       1.1
13 O  px              2.0       1.5       0.1       7.3       2.5       0.2
13 O  py              2.4       4.6       0.0       6.3       7.0       3.1
13 O  dx2y2           0.1       0.0       0.0       0.1       0.1       0.0
14 O  s               0.1       0.3       0.5       0.3       0.1       0.0
14 O  pz              2.6       1.8       1.7       8.4       0.8       0.6
14 O  px              0.9       0.0       0.3       0.4       1.0       1.1
14 O  py              0.9       0.1       3.9       2.7       0.4       0.2
15 O  s               0.2       0.3       0.0       0.6       0.4       0.1
15 O  pz              0.4       0.1       1.4       1.6       0.1       0.4
15 O  px             15.5       8.8       0.1       0.0       7.2       2.2
15 O  py              1.1       0.8       0.6       1.3       1.7       2.0
16 O  s               1.2       1.1       0.0       0.1       0.5       0.0
16 O  pz              1.1      13.4       0.0       1.2       1.5       2.5
16 O  px              2.0       2.9       0.2       0.4       5.8       5.2
16 O  py              3.4       1.6       0.1       0.4       0.6       5.2
17 H  s               2.5       4.6       0.4       0.3       1.9       4.1
18 H  s               5.8       0.8       0.1       0.9       0.3       5.7
19 H  s               0.6       0.1       5.0       2.2       0.2       0.9
20 H  s               1.3       1.7       0.0       3.6       3.1       0.5
21 H  s               1.1       0.3       1.1       3.2       0.6       0.0
22 H  s               4.8       2.8       0.1       0.1       2.6       1.0
23 H  s               1.1       4.8       0.0       0.0       0.1       0.6

                     30        31        32        33        34        35   
                  -0.42004  -0.40167  -0.39967  -0.38911  -0.36034  -0.35076
                   2.00000   2.00000   2.00000   2.00000   2.00000   2.00000
                  --------  --------  --------  --------  --------  --------
 0 C  s               0.1       0.0       0.0       0.0       0.0       0.4
 0 C  pz              1.4       2.3       0.0       0.2       0.1       1.6
 0 C  px              4.6       0.0       1.0       0.0       0.5       0.0
 0 C  py              1.6      19.0       1.0       1.8       0.8       0.1
 0 C  dz2             0.0       0.0       0.0       0.0       0.0       0.2
 0 C  dx2y2           0.1       0.1       0.0       0.0       0.0       0.0
 1 C  s               0.1       0.0       0.1       0.2       1.0       0.0
 1 C  pz              2.6       1.7       7.7       0.7       2.2       8.8
 1 C  px              4.8       2.3       1.7       0.4       1.0       4.2
 1 C  py              0.2       5.5       0.9       6.0       0.1       0.1
 1 C  dz2             0.1       0.0       0.1       0.0       0.0       0.1
 1 C  dxz             0.1       0.0       0.0       0.2       0.0       0.3
 1 C  dx2y2           0.1       0.1       0.1       0.0       0.0       0.0
 1 C  dxy             0.0       0.0       0.0       0.1       0.0       0.1
 2 H  s               3.4       0.1       3.7       1.9       0.7       9.2
 3 C  s               0.0       1.2       0.2       0.0       0.2       0.1
 3 C  pz              0.0       0.0       3.0       3.6       1.0       0.4
 3 C  px              0.0       6.2       0.4       6.5       0.8       0.1
 3 C  py              0.3       1.5       3.4       3.2       0.1       1.9
 3 C  dxz             0.0       0.0       0.0       0.0       0.2       0.0
 3 C  dyz             0.0       0.1       0.0       0.1       0.0       0.0
 3 C  dx2y2           0.1       0.0       0.0       0.1       0.1       0.1
 3 C  dxy             0.0       0.1       0.0       0.3       0.0       0.0
 4 H  s               0.0       0.9       1.0       2.6       2.5       0.1
 5 C  s               0.7       1.0       0.0       0.1       0.4       0.4
 5 C  pz              1.4       1.2       1.1       0.5      19.3       0.7
 5 C  px              0.5       2.7       1.3      10.1       0.2       0.0
 5 C  py              4.3       0.1       0.7       2.5       0.2       0.0
 5 C  dz2             0.0       0.0       0.0       0.0       0.3       0.0
 5 C  dxz             0.0       0.0       0.0       0.0       0.2       0.0
 5 C  dyz             0.0       0.0       0.0       0.0       0.2       0.0
 5 C  dx2y2           0.1       0.1       0.0       0.0       0.0       0.0
 5 C  dxy             0.2       0.1       0.0       0.2       0.0       0.1
 6 H  s               0.0       1.1       0.5       0.6      13.0       0.1
 7 C  s               0.1       0.0       0.1       0.2       0.1       0.1
 7 C  pz              0.2       0.0       0.1      13.0       3.6       5.3
 7 C  px              0.1       0.4       3.5       0.2       0.0       0.0
 7 C  py             12.0       0.1       5.3       1.1       0.6       0.0
 7 C  dz2             0.0       0.0       0.1       0.0       0.1       0.2
 7 C  dyz             0.1       0.0       0.1       0.0       0.1       0.0
 7 C  dx2y2           0.0       0.1       0.2       0.2       0.0       0.0
 7 C  dxy             0.1       0.0       0.0       0.0       0.0       0.0
 8 H  s               0.1       0.0       0.5       3.9       3.4       4.1
 9 C  s               0.1       0.2       1.2       0.0       0.2       0.4
 9 C  pz             10.0       0.0       0.1       1.2       0.8       3.9
 9 C  px              1.9       1.0       7.4       0.5       0.9       9.0
 9 C  py              3.9       0.6       4.9       0.8       0.8       0.4
 9 C  dz2             0.0       0.0       0.1       0.1       0.1       0.0
 9 C  dxz             0.0       0.0       0.1       0.0       0.0       0.0
 9 C  dyz             0.0       0.0       0.1       0.0       0.0       0.0
 9 C  dxy             0.0       0.0       0.0       0.0       0.0       0.2
10 H  s               3.4       0.4       4.0       0.0       1.2       6.1
11 O  s               0.2       0.0       0.3       0.0       0.8       0.2
11 O  pz              5.3       0.7       7.7       0.3       4.4       1.3
11 O  px              1.1       0.0       0.1       5.3       0.1       0.2
11 O  py              3.4       2.5       1.2       0.2       1.5       1.2
11 O  dxz             0.0       0.0       0.0       0.0       0.0       0.1
12 O  s               0.5       0.0       0.1       0.2       0.4       1.1
12 O  pz              0.8       0.4       7.3       0.0       0.6       1.1
12 O  px              0.1       0.1       0.0       0.4       0.0       4.5
12 O  py              3.7       0.0       0.1       0.0       2.2       8.0
13 O  s               0.7       0.4       0.1       1.0       0.0       0.6
13 O  pz              0.1       0.0       0.0       4.0       1.7       2.2
13 O  px              2.5       0.3       9.9       0.2       0.0       0.0
13 O  py              0.5       1.5       1.7       3.6       0.0       0.7
13 O  dx2y2           0.0       0.0       0.1       0.0       0.0       0.0
14 O  s               1.5       0.9       0.1       0.1       0.6       1.1
14 O  pz              7.9       1.8       0.5       1.1       0.2       0.9
14 O  px              0.1       4.2       1.4       4.2       1.2       4.6
14 O  py              0.4       0.5       0.6       0.7      14.0       2.4
15 O  s               0.0       1.4       0.0       0.0       1.8       0.9
15 O  pz              0.0       1.3       0.6       6.3       2.2       1.6
15 O  px              0.0       1.4       0.0       2.6       2.5       0.9
15 O  py              0.1       5.5       1.1       0.9       0.7       0.7
16 O  s               0.7       1.1       0.7       0.0       0.7       0.0
16 O  pz              0.4       5.0       0.1       0.9       0.0       2.5
16 O  px              3.8       1.9       1.9       0.1       4.1       1.4
16 O  py              0.4       8.8       2.0       1.5       0.3       0.4
17 H  s               3.8       1.7       0.7       0.1       0.1       0.1
18 H  s               0.8       5.2       0.5       0.5       0.7       0.5
19 H  s               0.1       0.0       1.7       0.1       0.1       0.3
20 H  s               0.1       0.7       2.1       0.6       0.1       0.5
21 H  s               1.6       1.2       0.1       0.2       0.5       0.3
22 H  s               0.0       0.1       0.0       1.1       0.7       0.2
23 H  s               0.3       0.0       0.7       0.1       0.5       0.1

                     36        37        38        39        40        41   
                  -0.33208  -0.31125  -0.29229  -0.28868  -0.27994  -0.27128
                   2.00000   2.00000   2.00000   2.00000   2.00000   2.00000
                  --------  --------  --------  --------  --------  --------
 0 C  s               0.2       0.1       0.0       0.0       0.1       0.1
 0 C  pz              0.5       0.2       0.2       0.3       0.4       0.8
 0 C  px              9.0       0.4       0.2       0.0       0.7       1.3
 0 C  py              1.5       0.6       0.4       1.2       0.8       0.0
 0 C  dz2             0.5       0.0       0.0       0.0       0.0       0.0
 0 C  dxz             0.1       0.0       0.0       0.0       0.0       0.0
 0 C  dyz             0.3       0.0       0.1       0.1       0.0       0.1
 0 C  dx2y2           0.1       0.0       0.1       0.0       0.2       0.1
 1 C  s               0.9       0.0       0.3       0.1       0.0       0.3
 1 C  pz              0.4       2.3       0.1       2.4       0.9       1.0
 1 C  px              3.3       0.2       0.7       0.1       0.3       0.8
 1 C  py              2.4       0.6       0.0       0.0       1.2       0.1
 1 C  dxz             0.0       0.2       0.0       0.1       0.0       0.0
 1 C  dyz             0.0       0.0       0.0       0.2       0.0       0.0
 1 C  dx2y2           0.0       0.0       0.0       0.3       0.0       0.1
 2 H  s               0.6       2.9       0.1       2.5       0.2       0.6
 3 C  s               0.1       0.4       0.0       0.3       0.3       0.5
 3 C  pz              1.1       3.8       0.0       0.1       1.1       1.7
 3 C  px              0.0       2.0       0.0       0.0       3.8       1.9
 3 C  py              0.6       0.6       0.2       1.6       1.8       0.0
[...]
 3 C  dyz             0.0       2.7       0.3       0.0       2.2       0.0
 3 C  dx2y2           0.1       1.3       0.0       0.1       0.1       0.1
 3 C  dxy             0.4       3.8       0.4       0.3       1.1       0.0
 5 C  s               0.2       0.3       0.9       0.0       0.8       0.0
 5 C  pz              0.0       0.2       0.2       0.0       0.4       0.0
 5 C  px              0.0       0.5       0.1       0.0       0.1       0.0
 5 C  py              0.1       0.4       1.8       0.0       1.0       0.0
 5 C  dz2             0.0       0.0       0.3       0.0       0.2       0.0
 5 C  dxz             0.0       0.2       0.0       0.1       0.3       0.0
 5 C  dyz             0.1       0.5       2.5       0.0       2.3       0.0
 5 C  dx2y2           0.0       1.9       2.6       0.2       0.7       0.0
 5 C  dxy             0.0       0.4       2.6       0.0       0.1       0.0
 7 C  s               0.0       0.3       0.7       0.1       1.1       0.1
 7 C  px              0.0       0.7       1.7       0.1       1.3       0.2
 7 C  py              0.0       0.1       0.0       0.1       0.1       0.0
 7 C  dz2             0.2       0.5       0.5       0.1       1.6       0.2
 7 C  dyz             0.2       0.1       0.1       0.0       0.1       0.1
 7 C  dx2y2           0.0       0.7       5.3       1.1       2.9       0.4
 7 C  dxy             0.0       0.3       0.6       0.0       0.1       0.1
 9 C  s               0.7       0.0       0.4       2.3       0.5       1.2
 9 C  pz              0.2       0.0       0.0       1.1       0.1       1.2
 9 C  px              0.3       0.0       0.0       0.1       0.0       1.7
 9 C  py              0.0       0.1       0.0       2.2       0.0       0.2
 9 C  dz2             2.1       0.2       0.3       0.0       0.1       0.0
 9 C  dxz             2.5       0.0       0.6       0.3       0.1       4.4
 9 C  dyz             0.3       0.2       0.1       8.2       0.1       0.1
 9 C  dx2y2           0.1       0.0       0.0       2.9       0.2       2.9
 9 C  dxy             0.1       0.1       0.2       0.0       0.1       0.6
11 O  s               3.7       0.0       0.1       0.2       0.2       0.0
11 O  pz              0.3       0.0       0.0       0.1       0.0       0.2
11 O  px              0.0       0.0       0.1       0.1       0.1       5.6
11 O  py              0.0       0.0       0.0       0.0       0.1       0.7
11 O  dz2             3.4       0.5       0.4       0.0       0.3       3.8
11 O  dxz             0.8       0.3       1.4       0.3       0.6      50.5
11 O  dyz             0.2       0.2       0.2       0.2       0.8       4.1
11 O  dx2y2          22.8       0.2       0.5       0.4       0.0       1.1
11 O  dxy             9.2       0.1       0.1       5.3       0.8       5.1
12 O  s               0.0       0.0       0.1       3.1       0.3       0.1
12 O  pz              0.0       0.0       0.1       2.0       0.1       0.1
12 O  px              0.1       0.0       0.1       0.4       0.0       0.0
12 O  py              0.1       0.0       0.0       1.8       0.1       0.1
12 O  dz2             1.3       0.1       0.1       0.0       0.0       0.2
12 O  dxz             0.1       0.1       0.2       0.0       0.1       0.1
12 O  dyz             0.2       0.1       0.8      39.0       1.6       1.5
12 O  dx2y2           1.4       0.5       0.9      18.2       0.6       0.5
12 O  dxy             1.7       0.0       0.6       1.4       0.1       0.0
13 O  s               0.0       0.8       1.6       0.1       2.1       0.2
13 O  px              0.0       0.6       1.6       0.2       1.5       0.1
13 O  py              0.0       0.1       0.4       0.0       0.3       0.1
13 O  dz2             0.1       2.2       4.4       0.1       6.0       0.5
13 O  dxz             0.0       0.1       0.3       0.0       0.1       0.0
13 O  dx2y2           0.2       8.2      21.4       2.3      15.9       1.2
13 O  dxy             0.1       0.1       1.8       0.1       0.9       0.6
14 O  s               0.2       0.7       2.6       0.0       2.3       0.0
14 O  pz              0.1       0.2       0.9       0.0       0.5       0.0
14 O  py              0.1       0.5       1.5       0.0       0.9       0.0
14 O  dz2             0.4       0.6       1.6       0.0       2.7       0.0
14 O  dxz             0.3       0.6       1.9       0.0       1.2       0.0
14 O  dyz             0.7       3.8      14.1       0.1       5.0       0.0
14 O  dx2y2           0.7       4.6       9.2       0.0       5.4       0.0
14 O  dxy             0.6       1.5       5.9       0.0       3.3       0.0
15 O  s               0.0       3.1       0.2       0.1       2.4       0.0
15 O  pz              0.0       0.4       0.0       0.0       0.2       0.0
15 O  px              0.0       1.7       0.0       0.1       0.7       0.0
15 O  py              0.0       1.3       0.0       0.1       0.6       0.0
15 O  dz2             0.1       0.3       0.3       0.0       1.0       0.1
15 O  dxz             0.2       7.0       0.2       0.4       2.9       0.0
15 O  dyz             0.1      15.5       0.0       0.6       6.0       0.0
15 O  dx2y2           0.1       5.1       0.2       0.4       1.7       0.0
15 O  dxy             0.1      15.3       0.3       0.6       6.8       0.0
16 O  s               1.3       0.1       0.0       0.0       0.1       0.0
16 O  pz              1.6       0.1       0.0       0.0       0.1       0.0
16 O  dz2            14.0       0.4       0.0       0.0       0.2       0.0
16 O  dxz            11.2       0.4       0.1       0.1       0.3       0.0
16 O  dyz             0.0       0.0       0.0       0.0       0.0       0.1
16 O  dx2y2           0.8       0.0       0.0       0.0       0.0       0.0
19 H  s               0.1       0.0       0.1       0.7       0.1       0.0
20 H  s               0.0       0.1       0.4       0.1       0.2       0.0
21 H  s               0.1       0.1       0.2       0.0       0.2       0.0
22 H  s               0.0       0.5       0.0       0.0       0.1       0.0
23 H  s               0.3       0.0       0.0       0.0       0.0       0.0



                      *****************************
                      * MAYER POPULATION ANALYSIS *
                      *****************************

  NA   - Mulliken gross atomic population
  ZA   - Total nuclear charge
  QA   - Mulliken gross atomic charge
  VA   - Mayer's total valence
  BVA  - Mayer's bonded valence
  FA   - Mayer's free valence

  ATOM       NA         ZA         QA         VA         BVA        FA
  0 C      6.0067     6.0000    -0.0067     3.9492     3.9492     0.0000
  1 C      5.9478     6.0000     0.0522     4.0198     4.0198     0.0000
  2 H      0.9222     1.0000     0.0778     0.9848     0.9848     0.0000
  3 C      5.9852     6.0000     0.0148     4.0853     4.0853     0.0000
  4 H      0.9520     1.0000     0.0480     0.9943     0.9943     0.0000
  5 C      5.9379     6.0000     0.0621     3.9779     3.9779     0.0000
  6 H      0.9218     1.0000     0.0782     0.9854     0.9854     0.0000
  7 C      5.9864     6.0000     0.0136     4.0438     4.0438     0.0000
  8 H      0.9670     1.0000     0.0330     0.9947     0.9947     0.0000
  9 C      5.7663     6.0000     0.2337     4.0550     4.0550     0.0000
 10 H      0.9256     1.0000     0.0744     0.9881     0.9881     0.0000
 11 O      8.3043     8.0000    -0.3043     2.1929     2.1929     0.0000
 12 O      8.4141     8.0000    -0.4141     2.0345     2.0345     0.0000
 13 O      8.4139     8.0000    -0.4139     2.0198     2.0198    -0.0000
 14 O      8.4120     8.0000    -0.4120     2.0346     2.0346    -0.0000
 15 O      8.3938     8.0000    -0.3938     2.0107     2.0107     0.0000
 16 O      8.4360     8.0000    -0.4360     2.0519     2.0519     0.0000
 17 H      0.9207     1.0000     0.0793     0.9501     0.9501     0.0000
 18 H      0.8936     1.0000     0.1064     0.9654     0.9654     0.0000
 19 H      0.7090     1.0000     0.2910     0.9533     0.9533    -0.0000
 20 H      0.7018     1.0000     0.2982     0.9119     0.9119    -0.0000
 21 H      0.7032     1.0000     0.2968     0.8912     0.8912    -0.0000
 22 H      0.7015     1.0000     0.2985     0.8798     0.8798     0.0000
 23 H      0.6771     1.0000     0.3229     0.8662     0.8662    -0.0000

  Mayer bond orders larger than 0.100000
B(  0-C ,  1-C ) :   1.0488 B(  0-C , 16-O ) :   1.0110 B(  0-C , 17-H ) :   0.9144 
B(  0-C , 18-H ) :   0.9092 B(  1-C ,  2-H ) :   0.8886 B(  1-C ,  3-C ) :   0.9759 
B(  1-C , 11-O ) :   1.0723 B(  3-C ,  4-H ) :   0.8733 B(  3-C ,  5-C ) :   1.0239 
B(  3-C , 15-O ) :   1.1014 B(  5-C ,  6-H ) :   0.8579 B(  5-C ,  7-C ) :   1.0039 
B(  5-C , 14-O ) :   1.0316 B(  7-C ,  8-H ) :   0.8686 B(  7-C ,  9-C ) :   0.9782 
B(  7-C , 13-O ) :   1.0946 B(  9-C , 10-H ) :   0.8857 B(  9-C , 11-O ) :   1.0234 
B(  9-C , 12-O ) :   1.1383 B( 12-O , 19-H ) :   0.7926 B( 13-O , 20-H ) :   0.8255 
B( 14-O , 21-H ) :   0.8470 B( 15-O , 22-H ) :   0.8498 B( 16-O , 19-H ) :   0.1219 
B( 16-O , 23-H ) :   0.8374 

-------
TIMINGS
-------

Total SCF time: 0 days 0 hours 0 min 9 sec 

Total time                  ....       9.230 sec
Sum of individual times     ....       8.874 sec  ( 96.1%)

SCF preparation             ....       0.161 sec  (  1.7%)
Fock matrix formation       ....       8.016 sec  ( 86.8%)
  Startup                   ....       0.045 sec  (  0.6% of F)
  Split-RI-J                ....       3.575 sec  ( 44.6% of F)
  XC integration            ....       4.000 sec  ( 49.9% of F)
    XC Preparation          ....       0.000 sec  (  0.0% of XC)
    Basis function eval.    ....       1.341 sec  ( 33.5% of XC)
    Density eval.           ....       0.757 sec  ( 18.9% of XC)
    XC-Functional eval.     ....       0.274 sec  (  6.9% of XC)
    XC-Potential eval.      ....       1.004 sec  ( 25.1% of XC)
Diagonalization             ....       0.000 sec  (  0.0%)
Density matrix formation    ....       0.156 sec  (  1.7%)
Total Energy calculation    ....       0.025 sec  (  0.3%)
Population analysis         ....       0.099 sec  (  1.1%)
Orbital Transformation      ....       0.049 sec  (  0.5%)
Orbital Orthonormalization  ....       0.000 sec  (  0.0%)
DIIS solution               ....       0.286 sec  (  3.1%)
  MO trafo                  ....       0.000 sec  (  0.0 % of DIIS)
  Orb grad                  ....       0.000 sec  (  0.0 % of DIIS)
  Energy W gradient         ....       0.000 sec  (  0.0 % of DIIS)
  DIIS error                ....       0.006 sec  (  2.2 % of DIIS)
  DIIS work                 ....       0.241 sec  ( 84.4 % of DIIS)
  Form Q                    ....       0.000 sec  (  0.0 % of DIIS)
  Form QpQm                 ....       0.000 sec  (  0.0 % of DIIS)
  Exp/Cayley                ....       0.000 sec  (  0.0 % of DIIS)
  Orb update                ....       0.000 sec  (  0.0 % of DIIS)
  Wake-sleep                ....       0.012 sec  (  4.1 % of DIIS)
SOSCF solution              ....       0.084 sec  (  0.9%)
  MO trafo                  ....       0.045 sec  ( 53.3 % of SOSCF)
  Orb grad                  ....       0.001 sec  (  1.3 % of SOSCF)
  Rot update                ....       0.018 sec  ( 21.6 % of SOSCF)
  Step                      ....       0.020 sec  ( 23.6 % of SOSCF)
Finished LeanSCF after   9.3 sec

Maximum memory used throughout the entire LEANSCF-calculation: 18.4 MB


-------------------------------------------------------------------------------
                          DFT DISPERSION CORRECTION                            
                                                                               
                                DFTD4 V3.4.0                                   
-------------------------------------------------------------------------------
The PBE functional is recognized
Active option DFTDOPT                   ...         5   

-------------------------   ----------------
Dispersion correction           -0.025214618
-------------------------   ----------------

------------------   -----------------
gCP correction             0.157272919
------------------   -----------------

-------------------------   --------------------
FINAL SINGLE POINT ENERGY      -685.689733162014
-------------------------   --------------------


------------------------------------------------------------------------------
                              ORCA PROPERTY CALCULATIONS
------------------------------------------------------------------------------

GBWName                                 ... sp.gbw
Number of atoms                         ...     24
Number of basis functions               ...    192
Max core memory                         ...   1024 MB

Electric properties:
Dipole moment                           ... YES
Quadrupole moment                       ...  NO
Static polarizability (Dipole/Dipole)   ...  NO
Static polarizability (Dipole/Quad.)    ...  NO
Static polarizability (Quad./Quad.)     ...  NO
Static polarizability (Velocity)        ...  NO

Atomic electric properties:
Dipole moment                           ...  NO
Quadrupole moment                       ...  NO
Static polarizability                   ...  NO

Choice of electric origin               ... Center of mass
Position of electric origin             ...    -0.000012    -0.000002    -0.000000

General magnetic properties:
Magnetizability                         ...  NO

EPR properties:
g-Tensor (aka g-matrix)                 ...  NO
Zero-Field splitting spin-orbit         ...  NO
Zero-field splitting spin-spin          ...  NO
Hyperfine couplings                     ...  NO (   0 nuclei)
Quadrupole couplings                    ...  NO (   0 nuclei)
Contact density                         ...  NO (   0 nuclei)

NMR properties:
Chemical shifts                         ...  NO (   0 nuclei)
Spin-rotation constants                 ...  NO (   0 nuclei)
Spin-spin couplings                     ...  NO (   0 nuclei,    0 pairs)

Choice of magnetic origin               ... GIAO
Position of magnetic origin             ...     0.000000     0.000000     0.000000

Properties with geometric perturbations:
SCF Hessian                             ...  NO
IR spectrum                             ...  NO
VCD spectrum                            ...  NO
X-ray spectroscopy properties:
SCF XES/XAS/RIXS spectra                ...  NO


-------------
DIPOLE MOMENT
-------------

Method             : SCF
Type of density    : Electron Density
Multiplicity       :   1
Irrep              :   0
Energy             :  -685.8217914628945664 Eh
Relativity type    : 
Basis              : AO
                                X                 Y                 Z
Electronic contribution:      2.956551444       0.451944046       1.224269633
Nuclear contribution   :     -5.276061970      -0.249715720      -2.448464094
                        -----------------------------------------
Total Dipole Moment    :     -2.319510527       0.202228326      -1.224194461
                        -----------------------------------------
Magnitude (a.u.)       :      2.630527981
Magnitude (Debye)      :      6.686270760



--------------------
Rotational spectrum 
--------------------
 
Rotational constants in cm-1:             0.036202             0.032394             0.021446 
Rotational constants in MHz :          1085.294594           971.133167           642.933099 

Dipole components along the rotational axes: 
x,y,z [a.u.] :    -1.242457     1.800627    -1.460726 
x,y,z [Debye]:    -3.158075     4.576831    -3.712870 

 

Dipole moment calculation done in   0.0 sec 

Maximum memory used throughout the entire PROP-calculation: 12.0 MB

--------------------------------
SUGGESTED CITATIONS FOR THIS RUN
--------------------------------

Below you find a list of papers that are relevant to this ORCA run
We neither can nor want to force you to cite these papers, but we appreciate if you do
You receive ORCA, which is the product of decades of hard work by many enthusiastic individuals, for free
The only thing we kindly ask in return is that you cite our papers,
We deeply appreciate it, if you show your appreciation for ORCA by not just citing the generic ORCA reference.

Please note that relegating all ORCA citations to the supporting information does *not* help us.
SI sections are not indexed - citations you put there will not count into any citation statistics
But we need these citations in order to attract the funding resources that allow us to do what we are doing

Therefore, if you are a happy ORCA user, please consider citing a few of the papers listed below in the main body of your paper

In addition to the list printed below, the program has created the file sp.bibtex that contains the list in bibtex format
You can import this file easily into all common literature databanks and citation aid programs


List of essential papers. We consider these as the minimum necessary citations

  1. Neese,F.
     Software update: the ORCA program system, version 5.0
     WIRES Comput. Molec. Sci., 2022 12(1)e1606
     doi.org/10.1002/wcms.1606

List of papers to cite with high priority. The work reported in these papers was absolutely
necessary for this run to complete.
Our perspective: the developers of density functionals and basis sets usually get cited in chemistry papers
Good! But without the algorithms to do something with them, the functionals or basis sets would not do anything.
Hence, in our opinion, the algorithm design and method developments papers are equally worthy of getting cited

  1. Neese,F.
     An improvement of the resolution of the identity approximation for the formation of the Coulomb matrix
     J. Comp. Chem., 2003 24(14)1740-1747
     doi.org/10.1002/jcc.10318
  2. Neese,F.
     The SHARK Integral Generation and Digestion System
     J. Comp. Chem., 2022  1-16
     doi.org/10.1002/jcc.26942
  3. Caldeweyher,E.; Bannwarth,C.; Grimme,S.
     Extension of the D3 dispersion coefficient model
     J. Chem. Phys., 2017 147 034112-XXXX
     doi.org/10.1063/1.4993215
  4. Caldeweyher,E.; Ehlert,S.; Hansen,A.; Neugebauer,H.; Spicher,S.; Bannwarth,C.; Grimme,S.
     A generally applicable atomic-charge dependent London dispersion correction
     J. Chem. Phys., 2019 150 154122-XXXX
     doi.org/10.1063/1.5090222
  5. Caldeweyher,E.; Mewes,J.; Ehlert,S.; Grimme,S.
     Extension and evaluation of the D4 London-dispersion model for periodic systems
     Phys. Chem. Chem. Phys., 2020 22(16)8499-8512
     doi.org/10.1039/D0CP00502A

List of suggested additional citations. These are papers that are important in the 'surrounding' of 
of this run, or papers that preceded the highly important papers. If you like your results we are grateful for a citation.

  1. Neese,F.
     The ORCA program system
     WIRES Comput. Molec. Sci., 2012 2(1)73-78
     doi.org/10.1002/wcms.81
  2. Neese,F.
     Software update: the ORCA program system, version 4.0
     WIRES Comput. Molec. Sci., 2018 8(1)1-6
     doi.org/10.1002/wcms.1327
  3. Neese,F.; Wennmohs,F.; Becker,U.; Riplinger,C.
     The ORCA quantum chemistry program package
     J. Chem. Phys., 2020 152 Art. No. L224108
     doi.org/10.1063/5.0004608

List of optional additional citations

  1. Neese,F.
     Approximate second-order SCF convergence for spin unrestricted wavefunctions
     Chem. Phys. Lett., 2000 325(1-3)93-98
     doi.org/10.1016/s0009-2614(00)00662-x

Timings for individual modules:

Sum of individual times          ...       11.349 sec (=   0.189 min)
Startup calculation              ...        0.912 sec (=   0.015 min)   8.0 %
SCF iterations                   ...       10.344 sec (=   0.172 min)  91.1 %
Property calculations            ...        0.093 sec (=   0.002 min)   0.8 %
                             ****ORCA TERMINATED NORMALLY****
TOTAL RUN TIME: 0 days 0 hours 0 minutes 11 seconds 965 msec
