
                                 *****************
                                 * O   R   C   A *
                                 *****************

                                            #,                                       
                                            ###                                      
                                            ####                                     
                                            #####                                    
                                            ######                                   
                                           ########,                                 
                                     ,,################,,,,,                         
                               ,,#################################,,                 
                          ,,##########################################,,             
                       ,#########################################, ''#####,          
                    ,#############################################,,   '####,        
                  ,##################################################,,,,####,       
                ,###########''''           ''''###############################       
              ,#####''   ,,,,##########,,,,          '''####'''          '####       
            ,##' ,,,,###########################,,,                        '##       
           ' ,,###''''                  '''############,,,                           
         ,,##''                                '''############,,,,        ,,,,,,###''
      ,#''                                            '''#######################'''  
     '                                                          ''''####''''         
             ,#######,   #######,   ,#######,      ##                                
            ,#'     '#,  ##    ##  ,#'     '#,    #''#        ,####,   ,####,        
            ##       ##  ##   ,#'  ##            #'  '#       #'       #'  '#        
            ##       ##  #######   ##           ,######,      #####,   #    #        
            '#,     ,#'  ##    ##  '#,     ,#' ,#      #,     #,   #   #,  ,#        
             '#######'   ##     ##  '#######'  #'      '#     '####' # '####'        



                #########################################################
                #                        -***-                          #
                #          Department of theory and spectroscopy        #
                #                                                       #
                #                      Frank Neese                      #
                #                                                       #
                #     Directorship, Architecture, Infrastructure        #
                #                    SHARK, DRIVERS                     #
                #        Core code/Algorithms in most modules           #
                #                                                       #
                #        Max Planck Institute fuer Kohlenforschung      #
                #                Kaiser Wilhelm Platz 1                 #
                #                 D-45470 Muelheim/Ruhr                 #
                #                      Germany                          #
                #                                                       #
                #                  All rights reserved                  #
                #                        -***-                          #
                #########################################################


                         Program Version 6.0.0  -   RELEASE  -


 With contributions from (in alphabetic order):
   Daniel Aravena         : Magnetic Suceptibility
   Michael Atanasov       : Ab Initio Ligand Field Theory (pilot matlab implementation)
   Alexander A. Auer      : GIAO ZORA, VPT2 properties, NMR spectrum
   Ute Becker             : All parallelization in ORCA, NUMFREQ, NUMCALC
   Giovanni Bistoni       : ED, misc. LED, open-shell LED, HFLD
   Martin Brehm           : Molecular dynamics
   Dmytro Bykov           : pre 5.0 version of the SCF Hessian
   Marcos Casanova-Páez   : Triplet and SCS-CIS(D). UHF-(DLPNO)-IP/EA/STEOM-CCSD. UHF-CVS-IP/STEOM-CCSD
   Vijay G. Chilkuri      : MRCI spin determinant printing, contributions to CSF-ICE
   Pauline Colinet        : FMM embedding
   Dipayan Datta          : RHF DLPNO-CCSD density
   Achintya Kumar Dutta   : EOM-CC, STEOM-CC
   Nicolas Foglia         : Exact transition moments, OPA infrastructure, MCD improvements
   Dmitry Ganyushin       : Spin-Orbit,Spin-Spin,Magnetic field MRCI
   Miquel Garcia          : C-PCM and meta-GGA Hessian, CCSD/C-PCM, Gaussian charge scheme
   Tiago L. C. Gouveia    : GS-ROHF, GS-ROCIS
   Yang Guo               : DLPNO-NEVPT2, F12-NEVPT2, CIM, IAO-localization
   Andreas Hansen         : Spin unrestricted coupled pair/coupled cluster methods
   Ingolf Harden          : AUTO-CI MPn and infrastructure 
   Benjamin Helmich-Paris : MC-RPA, TRAH-(SCF,CASSCF), AVAS, COSX integrals, SCF dyn. polar.
   Lee Huntington         : MR-EOM, pCC
   Robert Izsak           : Overlap fitted RIJCOSX, COSX-SCS-MP3, EOM
   Riya Kayal             : Wick's Theorem for AUTO-CI, AUTO-CI UHF-CCSDT
   Emily Kempfer          : AUTO-CI, RHF CISDT and CCSDT
   Christian Kollmar      : KDIIS, OOCD, Brueckner-CCSD(T), CCSD density, CASPT2, CASPT2-K, improved NEVPT2
   Axel Koslowski         : Symmetry handling
   Simone Kossmann        : Meta GGA functionals, TD-DFT gradient, OOMP2, (MP2 Hessian; deprecated post 5.0)
   Lucas Lang             : DCDCAS
   Marvin Lechner         : AUTO-CI (C++ implementation), FIC-MRCC
   Spencer Leger          : CASSCF response
   Dagmar Lenk            : GEPOL surface, SMD, ORCA-2-JSON
   Dimitrios Liakos       : Extrapolation schemes; Compound Job, initial MDCI parallelization
   Dimitrios Manganas     : Further ROCIS development; embedding schemes. LFT, Crystal Embedding
   Dimitrios Pantazis     : SARC Basis sets
   Anastasios Papadopoulos: AUTO-CI, single reference methods and gradients
   Taras Petrenko         : pre 6.0 DFT Hessian and TD-DFT gradient, (ASA, deprecated), ECA, 1-Electron XAS/XES, NRVS
   Peter Pinski           : DLPNO-MP2, DLPNO-MP2 Gradient
   Christoph Reimann      : Effective Core Potentials
   Marius Retegan         : Local ZFS, SOC
   Christoph Riplinger    : Optimizer, TS searches, QM/MM, DLPNO-CCSD(T), (RO)-DLPNO pert. Triples
   Michael Roemelt        : Original ROCIS implementation
   Masaaki Saitow         : Open-shell DLPNO-CCSD energy and density
   Barbara Sandhoefer     : DKH picture change effects
   Kantharuban Sivalingam : CASSCF convergence/infrastructure, NEVPT2 and variants, FIC-MRCI
   Bernardo de Souza      : ESD, SOC TD-DFT
   Georgi Stoychev        : AutoAux, RI-MP2 NMR, DLPNO-MP2 response, X2C
   Van Anh Tran           : RI-MP2 g-tensors
   Willem Van den Heuvel  : Paramagnetic NMR
   Zikuan Wang            : NOTCH, Electric field optimization 
   Frank Wennmohs         : Technical directorship and infrastructure
   Hang Xu                : AUTO-CI-Response properties 


 We gratefully acknowledge several colleagues who have allowed us to
 interface, adapt or use parts of their codes:
   Stefan Grimme, W. Hujo, H. Kruse, P. Pracht,  : VdW corrections, initial TS optimization,
                  C. Bannwarth, S. Ehlert,         DFT functionals, gCP, sTDA/sTD-DF
                  L. Wittmann, M. Mueller
   Ed Valeev, F. Pavosevic, A. Kumar             : LibInt (2-el integral package), F12 methods
   Garnet Chan, S. Sharma, J. Yang, R. Olivares  : DMRG
   Ulf Ekstrom                                   : XCFun DFT Library
   Mihaly Kallay                                 : mrcc  (arbitrary order and MRCC methods)
   Frank Weinhold                                : gennbo (NPA and NBO analysis)
   Simon Mueller                                 : openCOSMO-RS
   Christopher J. Cramer and Donald G. Truhlar   : smd solvation model
   Lars Goerigk                                  : TD-DFT with DH, B97 family of functionals
   V. Asgeirsson, H. Jonsson                     : NEB implementation
   FAccTs GmbH                                   : IRC, NEB, NEB-TS, DLPNO-Multilevel, CI-OPT
                                                   MM, QMMM, 2- and 3-layer-ONIOM, Crystal-QMMM,
                                                   LR-CPCM, SF, NACMEs, symmetry and pop. for TD-DFT,
                                                   nearIR, NL-DFT gradient (VV10), updates on ESD,
                                                   ML-optimized integration grids, MBIS, APM,
                                                   GOAT, DOCKER, SOLVATOR, interface openCOSMO-RS
   S Lehtola, MJT Oliveira, MAL Marques          : LibXC Library
   Liviu Ungur et al                             : ANISO software


 Your calculation uses the libint2 library for the computation of 2-el integrals
 For citations please refer to: http://libint.valeyev.net

 Your ORCA version has been built with support for libXC version: 6.2.2
 For citations please refer to: https://libxc.gitlab.io

 This ORCA versions uses:
   CBLAS   interface :  Fast vector & matrix operations
   LAPACKE interface :  Fast linear algebra routines
   SCALAPACK package :  Parallel linear algebra routines
   Shared memory     :  Shared parallel matrices
   BLAS/LAPACK       :  OpenBLAS 0.3.27  USE64BITINT DYNAMIC_ARCH NO_AFFINITY SkylakeX SINGLE_THREADED
        Core in use  :  SkylakeX
   Copyright (c) 2011-2014, The OpenBLAS Project


Your calculation utilizes the geometrical counterpoise correction gCP
Please cite in your paper:
H.Kruse, S. Grimme J.Chem.Phys., 136, (2012), 154101 
   

Your calculation utilizes the atom-pairwise dispersion correction
based on EEQ partial charges (D4)


================================================================================

----- Orbital basis set information -----
Your calculation utilizes the basis: def2-SV(P)
   F. Weigend and R. Ahlrichs, Phys. Chem. Chem. Phys. 7, 3297 (2005).

----- AuxJ basis set information -----
Your calculation utilizes the auxiliary basis: def2/J
   F. Weigend, Phys. Chem. Chem. Phys. 8, 1057 (2006).

================================================================================
                                        WARNINGS
                       Please study these warnings very carefully!
================================================================================


================================================================================
                                       INPUT FILE
================================================================================
NAME = sp.inp
|  1> ! pbe def2-sv(p) def2/J RI DEFGRID1 loosescf d4 GCP(DFT/SV(P)) printgap
|  2> %output
|  3>     printlevel normal
|  4> end
|  5> * xyz 0 1
|  6> C -2.4892159133 -1.088206212 0.2819254372
|  7> C -1.0699948456 -0.5743769572 0.564662957
|  8> H -0.9153002769 -0.5310958456 1.654637722
|  9> C -0.8245556246 0.8251198089 -0.0263314296
| 10> H -0.9676757141 0.7694722035 -1.1131153419
| 11> C 0.6239758594 1.2505848705 0.2510543245
| 12> H 0.7529436792 1.3438207067 1.3434263929
| 13> C 1.58814841 0.1821613384 -0.2832976312
| 14> H 1.4982566417 0.1480321551 -1.3742786464
| 15> C 1.1937142473 -1.1943745597 0.3050270233
| 16> H 1.3297814414 -1.16992348 1.4010118673
| 17> O -0.1528700805 -1.4946790726 0.0030094528
| 18> O 1.985117611 -2.224553289 -0.1484546425
| 19> O 2.9338815993 0.4769461315 -0.0363533605
| 20> O 0.9171860744 2.4763527018 -0.3685097607
| 21> O -1.666468308 1.7975363897 0.5423985821
| 22> O -2.9675966747 -0.5566266331 -0.9330178208
| 23> H -3.1445497204 -0.7876900722 1.1087884513
| 24> H -2.4287678632 -2.1799284283 0.2447485167
| 25> H 1.864005456 -2.3398374229 -1.1040641831
| 26> H 3.0811797838 0.6118097694 0.9109178041
| 27> H 0.2259558025 3.1105495852 -0.1216360416
| 28> H -2.5575397204 1.6859792208 0.18130441
| 29> H -3.7402563581 -1.0616687197 -1.2210706329
| 30> *
| 31> 
| 32>                          ****END OF INPUT****
================================================================================

                       ****************************
                       * Single Point Calculation *
                       ****************************

---------------------------------
CARTESIAN COORDINATES (ANGSTROEM)
---------------------------------
  C     -2.489216   -1.088206    0.281925
  C     -1.069995   -0.574377    0.564663
  H     -0.915300   -0.531096    1.654638
  C     -0.824556    0.825120   -0.026331
  H     -0.967676    0.769472   -1.113115
  C      0.623976    1.250585    0.251054
  H      0.752944    1.343821    1.343426
  C      1.588148    0.182161   -0.283298
  H      1.498257    0.148032   -1.374279
  C      1.193714   -1.194375    0.305027
  H      1.329781   -1.169923    1.401012
  O     -0.152870   -1.494679    0.003009
  O      1.985118   -2.224553   -0.148455
  O      2.933882    0.476946   -0.036353
  O      0.917186    2.476353   -0.368510
  O     -1.666468    1.797536    0.542399
  O     -2.967597   -0.556627   -0.933018
  H     -3.144550   -0.787690    1.108788
  H     -2.428768   -2.179928    0.244749
  H      1.864005   -2.339837   -1.104064
  H      3.081180    0.611810    0.910918
  H      0.225956    3.110550   -0.121636
  H     -2.557540    1.685979    0.181304
  H     -3.740256   -1.061669   -1.221071

----------------------------
CARTESIAN COORDINATES (A.U.)
----------------------------
  NO LB      ZA    FRAG     MASS         X           Y           Z
   0 C     6.0000    0    12.011   -4.703936   -2.056412    0.532762
   1 C     6.0000    0    12.011   -2.021997   -1.085415    1.067058
   2 H     1.0000    0     1.008   -1.729667   -1.003626    3.126812
   3 C     6.0000    0    12.011   -1.558184    1.559250   -0.049759
   4 H     1.0000    0     1.008   -1.828642    1.454092   -2.103483
   5 C     6.0000    0    12.011    1.179143    2.363263    0.474424
   6 H     1.0000    0     1.008    1.422857    2.539453    2.538708
   7 C     6.0000    0    12.011    3.001166    0.344235   -0.535355
   8 H     1.0000    0     1.008    2.831295    0.279740   -2.597010
   9 C     6.0000    0    12.011    2.255793   -2.257041    0.576418
  10 H     1.0000    0     1.008    2.512923   -2.210835    2.647529
  11 O     8.0000    0    15.999   -0.288883   -2.824534    0.005687
  12 O     8.0000    0    15.999    3.751329   -4.203796   -0.280539
  13 O     8.0000    0    15.999    5.544233    0.901298   -0.068698
  14 O     8.0000    0    15.999    1.733230    4.679628   -0.696383
  15 O     8.0000    0    15.999   -3.149169    3.396851    1.024985
  16 O     8.0000    0    15.999   -5.607945   -1.051872   -1.763148
  17 H     1.0000    0     1.008   -5.942338   -1.488519    2.095307
  18 H     1.0000    0     1.008   -4.589706   -4.119468    0.462508
  19 H     1.0000    0     1.008    3.522460   -4.421652   -2.086379
  20 H     1.0000    0     1.008    5.822586    1.156153    1.721385
  21 H     1.0000    0     1.008    0.426995    5.878087   -0.229859
  22 H     1.0000    0     1.008   -4.833050    3.186039    0.342616
  23 H     1.0000    0     1.008   -7.068060   -2.006263   -2.307489

--------------------------------
INTERNAL COORDINATES (ANGSTROEM)
--------------------------------
 C      0   0   0     0.000000000000     0.00000000     0.00000000
 C      1   0   0     1.535626727820     0.00000000     0.00000000
 H      2   1   0     1.101747998656   108.96925299     0.00000000
 C      2   1   3     1.538865158005   112.39534886   239.35589050
 H      4   2   1     1.097578829989   108.26198451   300.01274132
 C      4   2   1     1.534994083167   109.46213978   182.00621964
 H      6   4   2     1.103903236482   108.20869128   295.72106575
 C      6   4   2     1.535151316267   109.68678486    54.83109229
 H      8   6   4     1.095209982920   108.47386387    65.32247933
 C      8   6   4     1.548081162780   109.05924164   306.41016819
 H     10   8   6     1.104669595348   109.02507331   295.86632399
 O     10   8   6     1.412333800925   110.53185332    56.31405699
 O     10   8   6     1.375948080269   113.19998614   178.37349067
 O      8   6   4     1.399599001092   113.32152368   181.67986749
 O      6   4   2     1.404399751531   111.05231646   175.16492502
 O      4   2   1     1.406365812757   112.21182165    62.78372003
 O      1   2   3     1.409791517119   110.24953337   150.59033061
 H      1   2   3     1.097029987327   108.76286801    29.78879321
 H      1   2   3     1.094026273790   106.80366716   271.83003044
 H     13  10   8     0.970127919248   109.98730217   295.47522432
 H     14   8   6     0.968094837951   110.38227899    56.11949863
 H     15   6   4     0.970026602155   108.03418006    51.16670918
 H     16   4   2     0.967906124092   108.69694022   285.17531246
 H     17   1   2     0.966977206633   109.32467628   164.60048382

---------------------------
INTERNAL COORDINATES (A.U.)
---------------------------
 C      0   0   0     0.000000000000     0.00000000     0.00000000
 C      1   0   0     2.901913959509     0.00000000     0.00000000
 H      2   1   0     2.082001986056   108.96925299     0.00000000
 C      2   1   3     2.908033705663   112.39534886   239.35589050
 H      4   2   1     2.074123399068   108.26198451   300.01274132
 C      4   2   1     2.900718434376   109.46213978   182.00621964
 H      6   4   2     2.086074795301   108.20869128   295.72106575
 C      6   4   2     2.901015561873   109.68678486    54.83109229
 H      8   6   4     2.069646926855   108.47386387    65.32247933
 C      8   6   4     2.925449430737   109.05924164   306.41016819
 H     10   8   6     2.087523003677   109.02507331   295.86632399
 O     10   8   6     2.668924093428   110.53185332    56.31405699
 O     10   8   6     2.600165046202   113.19998614   178.37349067
 O      8   6   4     2.644858809374   113.32152368   181.67986749
 O      6   4   2     2.653930912940   111.05231646   175.16492502
 O      4   2   1     2.657646230221   112.21182165    62.78372003
 O      1   2   3     2.664119873280   110.24953337   150.59033061
 H      1   2   3     2.073086236747   108.76286801    29.78879321
 H      1   2   3     2.067410040777   106.80366716   271.83003044
 H     13  10   8     1.833276082249   109.98730217   295.47522432
 H     14   8   6     1.829434115390   110.38227899    56.11949863
 H     15   6   4     1.833084620690   108.03418006    51.16670918
 H     16   4   2     1.829077497878   108.69694022   285.17531246
 H     17   1   2     1.827322098281   109.32467628   164.60048382

---------------------
BASIS SET INFORMATION
---------------------
There are 3 groups of distinct atoms

 Group   1 Type C   : 7s4p1d contracted to 3s2p1d pattern {511/31/1}
 Group   2 Type H   : 4s contracted to 2s pattern {31}
 Group   3 Type O   : 7s4p1d contracted to 3s2p1d pattern {511/31/1}

Atom   0C    basis set group =>   1
Atom   1C    basis set group =>   1
Atom   2H    basis set group =>   2
Atom   3C    basis set group =>   1
Atom   4H    basis set group =>   2
Atom   5C    basis set group =>   1
Atom   6H    basis set group =>   2
Atom   7C    basis set group =>   1
Atom   8H    basis set group =>   2
Atom   9C    basis set group =>   1
Atom  10H    basis set group =>   2
Atom  11O    basis set group =>   3
Atom  12O    basis set group =>   3
Atom  13O    basis set group =>   3
Atom  14O    basis set group =>   3
Atom  15O    basis set group =>   3
Atom  16O    basis set group =>   3
Atom  17H    basis set group =>   2
Atom  18H    basis set group =>   2
Atom  19H    basis set group =>   2
Atom  20H    basis set group =>   2
Atom  21H    basis set group =>   2
Atom  22H    basis set group =>   2
Atom  23H    basis set group =>   2
---------------------------------
AUXILIARY/J BASIS SET INFORMATION
---------------------------------
There are 3 groups of distinct atoms

 Group   1 Type C   : 12s5p4d2f1g contracted to 6s4p3d1f1g pattern {711111/2111/211/2/1}
 Group   2 Type H   : 5s2p1d contracted to 3s1p1d pattern {311/2/1}
 Group   3 Type O   : 12s5p4d2f1g contracted to 6s4p3d1f1g pattern {711111/2111/211/2/1}

Atom   0C    basis set group =>   1
Atom   1C    basis set group =>   1
Atom   2H    basis set group =>   2
Atom   3C    basis set group =>   1
Atom   4H    basis set group =>   2
Atom   5C    basis set group =>   1
Atom   6H    basis set group =>   2
Atom   7C    basis set group =>   1
Atom   8H    basis set group =>   2
Atom   9C    basis set group =>   1
Atom  10H    basis set group =>   2
Atom  11O    basis set group =>   3
Atom  12O    basis set group =>   3
Atom  13O    basis set group =>   3
Atom  14O    basis set group =>   3
Atom  15O    basis set group =>   3
Atom  16O    basis set group =>   3
Atom  17H    basis set group =>   2
Atom  18H    basis set group =>   2
Atom  19H    basis set group =>   2
Atom  20H    basis set group =>   2
Atom  21H    basis set group =>   2
Atom  22H    basis set group =>   2
Atom  23H    basis set group =>   2
------------------------------------------------------------------------------
                             ORCA STARTUP CALCULATIONS
                           -- RI-GTO INTEGRALS CHOSEN --
------------------------------------------------------------------------------
------------------------------------------------------------------------------
                   ___                                                        
                  /   \      - P O W E R E D   B Y -                         
                 /     \                                                     
                 |  |  |   _    _      __       _____    __    __             
                 |  |  |  | |  | |    /  \     |  _  \  |  |  /  |          
                  \  \/   | |  | |   /    \    | | | |  |  | /  /          
                 / \  \   | |__| |  /  /\  \   | |_| |  |  |/  /          
                |  |  |   |  __  | /  /__\  \  |    /   |      \           
                |  |  |   | |  | | |   __   |  |    \   |  |\   \          
                \     /   | |  | | |  |  |  |  | |\  \  |  | \   \       
                 \___/    |_|  |_| |__|  |__|  |_| \__\ |__|  \__/        
                                                                              
                      - O R C A' S   B I G   F R I E N D -                    
                                      &                                       
                       - I N T E G R A L  F E E D E R -                       
                                                                              
 v1 FN, 2020, v2 2021, v3 2022-2024                                           
------------------------------------------------------------------------------


----------------------
SHARK INTEGRAL PACKAGE
----------------------

Number of atoms                             ...     24
Number of basis functions                   ...    192
Number of shells                            ...     96
Maximum angular momentum                    ...      2
Integral batch strategy                     ... SHARK/LIBINT Hybrid
RI-J (if used) integral strategy            ... SPLIT-RIJ (Revised 2003 algorithm where possible)
Printlevel                                  ...      1
Contraction scheme used                     ... SEGMENTED contraction
Prescreening option                         ... SCHWARTZ
   Thresh                                   ... 1.000e-09
   Tcut                                     ... 1.000e-10
   Tpresel                                  ... 1.000e-10 
Coulomb Range Separation                    ... NOT USED
Exchange Range Separation                   ... NOT USED
Multipole approximations                    ... NOT USED
Finite Nucleus Model                        ... NOT USED
CABS basis                                  ... NOT available
Auxiliary Coulomb fitting basis             ... AVAILABLE
   # of basis functions in Aux-J            ...    720
   # of shells in Aux-J                     ...    240
   Maximum angular momentum in Aux-J        ...      4
Auxiliary J/K fitting basis                 ... NOT available
Auxiliary Correlation fitting basis         ... NOT available
Auxiliary 'external' fitting basis          ... NOT available

Checking pre-screening integrals            ... done (  0.0 sec) Dimension = 96
Check shell pair data                       ... done (  0.0 sec)
Shell pair information
Shell pair cut-off parameter TPreSel        ...   1.0e-10
Total number of shell pairs                 ...      4656
Shell pairs after pre-screening             ...      4152
Total number of primitive shell pairs       ...     18720
Primitive shell pairs kept                  ...     11117
          la=0 lb=0:   1612 shell pairs
          la=1 lb=0:   1324 shell pairs
          la=1 lb=1:    287 shell pairs
          la=2 lb=0:    606 shell pairs
          la=2 lb=1:    259 shell pairs
          la=2 lb=2:     64 shell pairs

Calculating one electron integrals          ... done (  0.0 sec)
Calculating RI/J V-Matrix + Cholesky decomp.... done (  0.1 sec)
Calculating Nuclear repulsion               ... done (  0.0 sec) ENN=    830.223026176120 Eh

Diagonalization of the overlap matrix:
Smallest eigenvalue                        ... 9.571e-04
Time for diagonalization                   ...    0.003 sec
Threshold for overlap eigenvalues          ... 1.000e-07
Number of eigenvalues below threshold      ... 0
Time for construction of square roots      ...    0.014 sec
Total time needed                          ...    0.025 sec

-------------------
DFT GRID GENERATION
-------------------

General Integration Accuracy     IntAcc      ... 4.159
Radial Grid Type                 RadialGrid  ... OptM3 with GC (2021)
Angular Grid (max. ang.)         AngularGrid ... 3 (Lebedev-194)
Angular grid pruning method      GridPruning ... 4 (adaptive)
Weight generation scheme         WeightScheme... mBecke (2022)
Basis function cutoff            BFCut       ... 1.0000e-10
Integration weight cutoff        WCut        ... 1.0000e-14
Partially contracted basis set               ... off
Rotationally invariant grid construction     ... off
Angular grids for H and He will be reduced by one unit

Total number of grid points                  ...    55724
Total number of batches                      ...      885
Average number of points per batch           ...       62
Average number of grid points per atom       ...     2322
Initializing property integral containers    ... done (  0.0 sec)

SHARK setup successfully completed in   0.8 seconds

Maximum memory used throughout the entire STARTUP-calculation: 27.9 MB
-------------------------------------------------------------------------------
                                 ORCA GUESS
                   Start orbitals & Density for SCF / CASSCF
-------------------------------------------------------------------------------

------------
SCF SETTINGS
------------
Hamiltonian:
 Density Functional     Method          .... DFT(GTOs)
 Exchange Functional    Exchange        .... PBE
   PBE kappa parameter   XKappa         ....  0.804000
   PBE mue parameter    XMuePBE         ....  0.219520
 Correlation Functional Correlation     .... PBE
   PBE beta parameter  CBetaPBE         ....  0.066725
 LDA part of GGA corr.  LDAOpt          .... PW91-LDA
 Gradients option       PostSCFGGA      .... off
   NL short-range parameter             ....  6.400000
 RI-approximation to the Coulomb term is turned on
   Number of AuxJ basis functions       .... 720


General Settings:
 Integral files         IntName         .... sp
 Hartree-Fock type      HFTyp           .... RHF
 Total Charge           Charge          ....    0
 Multiplicity           Mult            ....    1
 Number of Electrons    NEL             ....   96
 Basis Dimension        Dim             ....  192
 Nuclear Repulsion      ENuc            ....    830.2230261761 Eh

Convergence Acceleration:
 AO-DIIS                CNVDIIS         .... on
   Start iteration      DIISMaxIt       ....    12
   Startup error        DIISStart       ....  0.200000
   # of expansion vecs  DIISMaxEq       ....     5
   Bias factor          DIISBfac        ....   1.050
   Max. coefficient     DIISMaxC        ....  10.000
 MO-DIIS                CNVKDIIS        .... off
 Trust-Rad. Augm. Hess. CNVTRAH         .... auto
   Auto Start mean grad. ratio tolernc. ....  1.125000
   Auto Start start iteration           ....    50
   Auto Start num. interpolation iter.  ....    10
   Max. Number of Micro iterations      ....    24
   Max. Number of Macro iterations      .... Maxiter - #DIIS iter
   Number of Davidson start vectors     ....     2
   Converg. threshold    (grad. norm)   ....   1.000e-04
   Grad. Scal. Fac. for Micro threshold ....   0.100
   Minimum threshold for Micro iter.    ....   1.000e-02
   NR start threshold (gradient norm)   ....   1.000e-04
   Initial trust radius                 ....   0.400
   Minimum AH scaling param. (alpha)    ....   1.000
   Maximum AH scaling param. (alpha)    .... 1000.000
   Quad. conv. algorithm                .... NR
   White noise on init. David. guess    .... on
   Maximum white noise                  ....   0.010
   Pseudo random numbers                .... off
   Inactive MOs                         .... canonical
   Orbital update algorithm             .... Taylor
   Preconditioner                       .... Diag
   Full preconditioner red. dimension   ....   250
 SOSCF                  CNVSOSCF        .... on
   Start iteration      SOSCFMaxIt      ....   150
   Startup grad/error   SOSCFStart      ....  0.003300
   Hessian update       SOSCFHessUp     .... L-BFGS
 Level Shifting         CNVShift        .... on
   Level shift para.    LevelShift      ....    0.2500
   Turn off err/grad.   ShiftErr        ....    0.0010
 Zerner damping         CNVZerner       .... off
 Static damping         CNVDamp         .... on
   Fraction old density DampFac         ....    0.7000
   Max. Damping (<1)    DampMax         ....    0.9800
   Min. Damping (>=0)   DampMin         ....    0.0000
   Turn off err/grad.   DampErr         ....    0.1000

SCF Procedure:
 Maximum # iterations   MaxIter         ....   125
 SCF integral mode      SCFMode         .... Direct
   Integral package                     .... SHARK and LIBINT hybrid scheme
 Reset frequency        DirectResetFreq ....    20
 Integral Threshold     Thresh          ....  1.000e-09 Eh
 Primitive CutOff       TCut            ....  1.000e-10 Eh

Convergence Tolerance:
 Convergence Check Mode ConvCheckMode   .... Total+1el-Energy
 Convergence forced     ConvForced      .... 0
 Energy Change          TolE            ....  1.000e-05 Eh
 1-El. energy change                    ....  1.000e-02 Eh
 Orbital Gradient       TolG            ....  1.000e-04
 Orbital Rotation angle TolX            ....  1.000e-04
 DIIS Error             TolErr          ....  5.000e-04

------------------------------
INITIAL GUESS: MODEL POTENTIAL
------------------------------
Loading Hartree-Fock densities                     ... done
Calculating cut-offs                               ... done
Initializing the effective Hamiltonian             ... done
Setting up the integral package (SHARK)            ... done
Starting the Coulomb interaction                   ... done (   0.2 sec)
Making the grid                                    ... done (   0.3 sec)
Mapping shells                                     ... done
Starting the XC term evaluation                    ... done (   0.2 sec)
  promolecular density results
     # of electrons  =     95.993499919
     EX              =    -83.237009671
     EC              =     -3.267884694
     EX+EC           =    -86.504894366
Transforming the Hamiltonian                       ... done (   0.0 sec)
Diagonalizing the Hamiltonian                      ... done (   0.0 sec)
Back transforming the eigenvectors                 ... done (   0.0 sec)
Now organizing SCF variables                       ... done
                      ------------------
                      INITIAL GUESS DONE (   0.8 sec)
                      ------------------
             **** ENERGY FILE WAS UPDATED (sp.en.tmp) ****
Finished Guess after   1.0 sec
Maximum memory used throughout the entire GUESS-calculation: 21.7 MB

-------------------------------------------------------------------------------------------
                                      ORCA LEAN-SCF
                              memory conserving SCF solver
-------------------------------------------------------------------------------------------

----------------------------------------D-I-I-S--------------------------------------------
Iteration    Energy (Eh)           Delta-E    RMSDP     MaxDP     DIISErr   Damp  Time(sec)
-------------------------------------------------------------------------------------------
               ***  Starting incremental Fock matrix formation  ***
    1    -685.5119938616246600     0.00e+00  5.27e-03  1.84e-01  2.39e-01  0.700   1.1
    2    -685.6666246725112615    -1.55e-01  3.37e-03  1.19e-01  9.34e-02  0.700   1.1
                               ***Turning on AO-DIIS***
    3    -685.7149114123308209    -4.83e-02  1.15e-03  2.70e-02  2.05e-02  0.700   1.1
    4    -685.7472978298603721    -3.24e-02  1.45e-03  2.18e-02  9.36e-03  0.000   1.0
    5    -685.8223873369790908    -7.51e-02  4.84e-04  1.64e-02  6.70e-03  0.000   1.0
                              *** Initializing SOSCF ***
---------------------------------------S-O-S-C-F--------------------------------------
Iteration    Energy (Eh)           Delta-E    RMSDP     MaxDP     MaxGrad    Time(sec)
--------------------------------------------------------------------------------------
    6    -685.8227558784574285    -3.69e-04  1.48e-04  3.76e-03  1.51e-03     1.0
               *** Restarting incremental Fock matrix formation ***
    7    -685.8227860747108480    -3.02e-05  1.06e-04  2.13e-03  1.70e-04     1.1
    8    -685.8227841826437725     1.89e-06  4.41e-05  8.81e-04  2.78e-04     0.9
                 **** Energy Check signals convergence ****

               *****************************************************
               *                     SUCCESS                       *
               *           SCF CONVERGED AFTER   8 CYCLES          *
               *****************************************************

             **** ENERGY FILE WAS UPDATED (sp.en.tmp) ****

----------------
TOTAL SCF ENERGY
----------------

Total Energy       :       -685.82278418264377 Eh          -18662.18672 eV

Components:
Nuclear Repulsion  :        830.22302617612036 Eh           22591.51707 eV
Electronic Energy  :      -1516.04581035876413 Eh          -41253.70380 eV
One Electron Energy:      -2589.82608787192976 Eh          -70472.75062 eV
Two Electron Energy:       1073.78027751316563 Eh           29219.04682 eV

Virial components:
Potential Energy   :      -1366.93147208979212 Eh          -37196.09637 eV
Kinetic Energy     :        681.10868790714835 Eh           18533.90964 eV
Virial Ratio       :          2.00692121002006

DFT components:
N(Alpha)           :       47.999630592310 electrons
N(Beta)            :       47.999630592310 electrons
N(Total)           :       95.999261184619 electrons
E(X)               :      -84.601557092665 Eh       
E(C)               :       -3.280735236068 Eh       
E(XC)              :      -87.882292328733 Eh       

---------------
SCF CONVERGENCE
---------------

  Last Energy change         ...   -1.8921e-06  Tolerance :   1.0000e-05
  Last MAX-Density change    ...    8.8090e-04  Tolerance :   1.0000e-03
  Last RMS-Density change    ...    4.4079e-05  Tolerance :   1.0000e-04
  Last DIIS Error            ...    1.5133e-03  Tolerance :   5.0000e-04
  Last Orbital Gradient      ...    2.7765e-04  Tolerance :   1.0000e-04
  Last Orbital Rotation      ...    1.9980e-04  Tolerance :   1.0000e-04


----------------
ORBITAL ENERGIES
----------------

  NO   OCC          E(Eh)            E(eV) 
   0   2.0000     -18.770483      -510.7708 
   1   2.0000     -18.767353      -510.6856 
   2   2.0000     -18.760866      -510.5091 
   3   2.0000     -18.753959      -510.3212 
   4   2.0000     -18.742430      -510.0074 
   5   2.0000     -18.739710      -509.9334 
   6   2.0000      -9.982351      -271.6336 
   7   2.0000      -9.947304      -270.6799 
   8   2.0000      -9.945554      -270.6323 
   9   2.0000      -9.938575      -270.4424 
  10   2.0000      -9.938067      -270.4286 
  11   2.0000      -9.935264      -270.3523 
  12   2.0000      -0.979765       -26.6607 
  13   2.0000      -0.947265       -25.7764 
  14   2.0000      -0.939297       -25.5596 
  15   2.0000      -0.926272       -25.2052 
  16   2.0000      -0.912794       -24.8384 
  17   2.0000      -0.906605       -24.6700 
  18   2.0000      -0.702044       -19.1036 
  19   2.0000      -0.690376       -18.7861 
  20   2.0000      -0.620370       -16.8811 
  21   2.0000      -0.581185       -15.8148 
  22   2.0000      -0.554514       -15.0891 
  23   2.0000      -0.536512       -14.5992 
  24   2.0000      -0.502515       -13.6741 
  25   2.0000      -0.494684       -13.4610 
  26   2.0000      -0.476237       -12.9591 
  27   2.0000      -0.470129       -12.7929 
  28   2.0000      -0.431652       -11.7459 
  29   2.0000      -0.429567       -11.6891 
  30   2.0000      -0.413270       -11.2456 
  31   2.0000      -0.398254       -10.8370 
  32   2.0000      -0.393380       -10.7044 
  33   2.0000      -0.392534       -10.6814 
  34   2.0000      -0.349741        -9.5169 
  35   2.0000      -0.346793        -9.4367 
  36   2.0000      -0.320376        -8.7179 
  37   2.0000      -0.310154        -8.4397 
  38   2.0000      -0.305780        -8.3207 
  39   2.0000      -0.293947        -7.9987 
  40   2.0000      -0.290756        -7.9119 
  41   2.0000      -0.261787        -7.1236 
  42   2.0000      -0.248238        -6.7549 
  43   2.0000      -0.243264        -6.6196 
  44   2.0000      -0.237092        -6.4516 
  45   2.0000      -0.222754        -6.0614 
  46   2.0000      -0.216274        -5.8851 
  47   2.0000      -0.194200        -5.2845 
  48   0.0000       0.003392         0.0923 
  49   0.0000       0.028812         0.7840 
  50   0.0000       0.033015         0.8984 
  51   0.0000       0.041149         1.1197 
  52   0.0000       0.053613         1.4589 
  53   0.0000       0.072623         1.9762 
  54   0.0000       0.078004         2.1226 
  55   0.0000       0.088872         2.4183 
  56   0.0000       0.094711         2.5772 
  57   0.0000       0.105637         2.8745 
  58   0.0000       0.117954         3.2097 
*Only the first 10 virtual orbitals were printed.

                    ********************************
                    * MULLIKEN POPULATION ANALYSIS *
                    ********************************

-----------------------
MULLIKEN ATOMIC CHARGES
-----------------------
   0 C :    0.045704
   1 C :    0.017518
   2 H :    0.053971
   3 C :    0.021150
   4 H :    0.073752
   5 C :    0.068130
   6 H :    0.033402
   7 C :    0.064147
   8 H :    0.055361
   9 C :    0.183564
  10 H :    0.031386
  11 O :   -0.304634
  12 O :   -0.365771
  13 O :   -0.398421
  14 O :   -0.405180
  15 O :   -0.427749
  16 O :   -0.438577
  17 H :    0.075290
  18 H :    0.094699
  19 H :    0.302904
  20 H :    0.295661
  21 H :    0.302199
  22 H :    0.312516
  23 H :    0.308978
Sum of atomic charges:    0.0000000

--------------------------------
MULLIKEN REDUCED ORBITAL CHARGES
--------------------------------
  0 C s       :     3.001064  s :     3.001064
      pz      :     0.819538  p :     2.891512
      px      :     1.031134
      py      :     1.040841
      dz2     :     0.018076  d :     0.061720
      dxz     :     0.016982
      dyz     :     0.010240
      dx2y2   :     0.010640
      dxy     :     0.005781

  1 C s       :     3.060764  s :     3.060764
      pz      :     1.002140  p :     2.855139
      px      :     0.945110
      py      :     0.907889
      dz2     :     0.017046  d :     0.066579
      dxz     :     0.009103
      dyz     :     0.009384
      dx2y2   :     0.014546
      dxy     :     0.016499

  2 H s       :     0.946029  s :     0.946029

  3 C s       :     3.045663  s :     3.045663
      pz      :     1.016654  p :     2.865774
      px      :     0.955069
      py      :     0.894051
      dz2     :     0.016715  d :     0.067413
      dxz     :     0.009355
      dyz     :     0.010754
      dx2y2   :     0.015904
      dxy     :     0.014684

  4 H s       :     0.926248  s :     0.926248

  5 C s       :     3.051318  s :     3.051318
      pz      :     0.980240  p :     2.811844
      px      :     0.984444
      py      :     0.847160
      dz2     :     0.018865  d :     0.068707
      dxz     :     0.005913
      dyz     :     0.014231
      dx2y2   :     0.014002
      dxy     :     0.015696

  6 H s       :     0.966598  s :     0.966598

  7 C s       :     3.034628  s :     3.034628
      pz      :     1.095516  p :     2.832918
      px      :     0.795286
      py      :     0.942116
      dz2     :     0.015588  d :     0.068307
      dxz     :     0.010590
      dyz     :     0.005517
      dx2y2   :     0.017207
      dxy     :     0.019405

  8 H s       :     0.944639  s :     0.944639

  9 C s       :     3.029266  s :     3.029266
      pz      :     1.042703  p :     2.685388
      px      :     0.747802
      py      :     0.894883
      dz2     :     0.021394  d :     0.101782
      dxz     :     0.015568
      dyz     :     0.010783
      dx2y2   :     0.029920
      dxy     :     0.024118

 10 H s       :     0.968614  s :     0.968614

 11 O s       :     3.765329  s :     3.765329
      pz      :     1.718975  p :     4.524110
      px      :     1.201034
      py      :     1.604102
      dz2     :     0.002166  d :     0.015195
      dxz     :     0.003084
      dyz     :     0.002481
      dx2y2   :     0.003306
      dxy     :     0.004157

 12 O s       :     3.761273  s :     3.761273
      pz      :     1.303358  p :     4.588714
      px      :     1.699289
      py      :     1.586067
      dz2     :     0.007390  d :     0.015783
      dxz     :     0.001634
      dyz     :     0.001055
      dx2y2   :     0.002122
      dxy     :     0.003583

 13 O s       :     3.783056  s :     3.783056
      pz      :     1.344148  p :     4.599700
      px      :     1.392765
      py      :     1.862787
      dz2     :     0.007807  d :     0.015665
      dxz     :     0.001750
      dyz     :     0.000826
      dx2y2   :     0.003131
      dxy     :     0.002151

 14 O s       :     3.783028  s :     3.783028
      pz      :     1.745442  p :     4.606575
      px      :     1.606993
      py      :     1.254140
      dz2     :     0.002309  d :     0.015577
      dxz     :     0.002494
      dyz     :     0.003169
      dx2y2   :     0.001768
      dxy     :     0.005837

 15 O s       :     3.783475  s :     3.783475
      pz      :     1.739296  p :     4.629056
      px      :     1.249917
      py      :     1.639843
      dz2     :     0.001825  d :     0.015218
      dxz     :     0.003882
      dyz     :     0.002799
      dx2y2   :     0.004498
      dxy     :     0.002213

 16 O s       :     3.789574  s :     3.789574
      pz      :     1.466539  p :     4.633867
      px      :     1.491226
      py      :     1.676102
      dz2     :     0.003719  d :     0.015136
      dxz     :     0.001635
      dyz     :     0.003436
      dx2y2   :     0.001515
      dxy     :     0.004831

 17 H s       :     0.924710  s :     0.924710

 18 H s       :     0.905301  s :     0.905301

 19 H s       :     0.697096  s :     0.697096

 20 H s       :     0.704339  s :     0.704339

 21 H s       :     0.697801  s :     0.697801

 22 H s       :     0.687484  s :     0.687484

 23 H s       :     0.691022  s :     0.691022


------------------------
MULLIKEN OVERLAP CHARGES
------------------------
B(  0-C ,  1-C ) :   0.3347 B(  0-C ,  2-H ) :  -0.0654 B(  0-C ,  3-C ) :  -0.0506 
B(  0-C ,  4-H ) :  -0.0535 B(  0-C , 11-O ) :  -0.0680 B(  0-C , 16-O ) :   0.6883 
B(  0-C , 17-H ) :   0.6825 B(  0-C , 18-H ) :   0.6740 B(  0-C , 23-H ) :  -0.0553 
B(  1-C ,  2-H ) :   0.6090 B(  1-C ,  3-C ) :   0.2182 B(  1-C ,  5-C ) :  -0.1057 
B(  1-C ,  7-C ) :   0.0555 B(  1-C ,  9-C ) :  -0.1257 B(  1-C , 11-O ) :   0.5062 
B(  1-C , 15-O ) :  -0.1294 B(  1-C , 16-O ) :  -0.1562 B(  2-H ,  5-C ) :  -0.0509 
B(  2-H , 11-O ) :  -0.0665 B(  3-C ,  4-H ) :   0.6335 B(  3-C ,  5-C ) :   0.4521 
B(  3-C ,  6-H ) :  -0.0714 B(  3-C ,  7-C ) :  -0.0708 B(  3-C ,  9-C ) :   0.0611 
B(  3-C , 11-O ) :  -0.0623 B(  3-C , 14-O ) :  -0.0860 B(  3-C , 15-O ) :   0.5836 
B(  4-H ,  5-C ) :  -0.0845 B(  4-H , 15-O ) :  -0.0578 B(  5-C ,  6-H ) :   0.5802 
B(  5-C ,  7-C ) :   0.0707 B(  5-C , 13-O ) :  -0.0716 B(  5-C , 14-O ) :   0.6710 
B(  5-C , 15-O ) :  -0.1136 B(  5-C , 21-H ) :  -0.0993 B(  6-H ,  7-C ) :  -0.0785 
B(  6-H , 14-O ) :  -0.0777 B(  7-C ,  8-H ) :   0.5186 B(  7-C ,  9-C ) :   0.1778 
B(  7-C , 10-H ) :  -0.1075 B(  7-C , 11-O ) :  -0.0725 B(  7-C , 12-O ) :  -0.0838 
B(  7-C , 13-O ) :   0.6356 B(  7-C , 14-O ) :  -0.1030 B(  7-C , 20-H ) :  -0.1211 
B(  8-H , 13-O ) :  -0.0692 B(  9-C , 10-H ) :   0.6233 B(  9-C , 11-O ) :   0.4755 
B(  9-C , 12-O ) :   0.7672 B(  9-C , 13-O ) :  -0.0677 B(  9-C , 19-H ) :  -0.0912 
B( 10-H , 11-O ) :  -0.0711 B( 10-H , 12-O ) :  -0.0839 B( 11-O , 12-O ) :  -0.1199 
B( 12-O , 19-H ) :   0.5301 B( 13-O , 20-H ) :   0.5392 B( 14-O , 21-H ) :   0.5286 
B( 15-O , 22-H ) :   0.5274 B( 16-O , 17-H ) :  -0.0797 B( 16-O , 23-H ) :   0.5192 
B( 17-H , 18-H ) :  -0.0775 


                     *******************************
                     * LOEWDIN POPULATION ANALYSIS *
                     *******************************

----------------------
LOEWDIN ATOMIC CHARGES
----------------------
   0 C :   -0.129232
   1 C :   -0.066364
   2 H :    0.104099
   3 C :   -0.084749
   4 H :    0.113173
   5 C :   -0.074836
   6 H :    0.093068
   7 C :   -0.088748
   8 H :    0.117828
   9 C :   -0.006856
  10 H :    0.088830
  11 O :   -0.156408
  12 O :   -0.281731
  13 O :   -0.300624
  14 O :   -0.317222
  15 O :   -0.323045
  16 O :   -0.340349
  17 H :    0.099299
  18 H :    0.113746
  19 H :    0.289640
  20 H :    0.284564
  21 H :    0.283620
  22 H :    0.289174
  23 H :    0.293123

-------------------------------
LOEWDIN REDUCED ORBITAL CHARGES
-------------------------------
  0 C s       :     2.922697  s :     2.922697
      pz      :     0.915148  p :     3.065761
      px      :     1.063993
      py      :     1.086620
      dz2     :     0.041708  d :     0.140774
      dxz     :     0.037046
      dyz     :     0.022046
      dx2y2   :     0.026711
      dxy     :     0.013263

  1 C s       :     2.901068  s :     2.901068
      pz      :     1.058919  p :     3.010971
      px      :     0.973187
      py      :     0.978864
      dz2     :     0.040254  d :     0.154325
      dxz     :     0.018666
      dyz     :     0.022095
      dx2y2   :     0.036054
      dxy     :     0.037256

  2 H s       :     0.895901  s :     0.895901

  3 C s       :     2.896004  s :     2.896004
      pz      :     1.076854  p :     3.028464
      px      :     0.992585
      py      :     0.959025
      dz2     :     0.039552  d :     0.160280
      dxz     :     0.019716
      dyz     :     0.025358
      dx2y2   :     0.041645
      dxy     :     0.034009

  4 H s       :     0.886827  s :     0.886827

  5 C s       :     2.893498  s :     2.893498
      pz      :     1.049191  p :     3.020739
      px      :     1.053357
      py      :     0.918191
      dz2     :     0.044315  d :     0.160598
      dxz     :     0.011724
      dyz     :     0.032878
      dx2y2   :     0.033227
      dxy     :     0.038454

  6 H s       :     0.906932  s :     0.906932

  7 C s       :     2.898638  s :     2.898638
      pz      :     1.095199  p :     3.030153
      px      :     0.888277
      py      :     1.046677
      dz2     :     0.036679  d :     0.159957
      dxz     :     0.021415
      dyz     :     0.013377
      dx2y2   :     0.040996
      dxy     :     0.047490

  8 H s       :     0.882172  s :     0.882172

  9 C s       :     2.889143  s :     2.889143
      pz      :     1.072378  p :     2.890126
      px      :     0.838672
      py      :     0.979076
      dz2     :     0.049251  d :     0.227586
      dxz     :     0.032701
      dyz     :     0.022896
      dx2y2   :     0.069599
      dxy     :     0.053139

 10 H s       :     0.911170  s :     0.911170

 11 O s       :     3.480374  s :     3.480374
      pz      :     1.753686  p :     4.646446
      px      :     1.268026
      py      :     1.624733
      dz2     :     0.003800  d :     0.029588
      dxz     :     0.006072
      dyz     :     0.003629
      dx2y2   :     0.007452
      dxy     :     0.008635

 12 O s       :     3.523449  s :     3.523449
      pz      :     1.383650  p :     4.730373
      px      :     1.726731
      py      :     1.619992
      dz2     :     0.013267  d :     0.027910
      dxz     :     0.002896
      dyz     :     0.002395
      dx2y2   :     0.003006
      dxy     :     0.006347

 13 O s       :     3.532753  s :     3.532753
      pz      :     1.425782  p :     4.740294
      px      :     1.459413
      py      :     1.855100
      dz2     :     0.013753  d :     0.027577
      dxz     :     0.003208
      dyz     :     0.001233
      dx2y2   :     0.005763
      dxy     :     0.003621

 14 O s       :     3.535924  s :     3.535924
      pz      :     1.787527  p :     4.754103
      px      :     1.646687
      py      :     1.319889
      dz2     :     0.003456  d :     0.027196
      dxz     :     0.003195
      dyz     :     0.006095
      dx2y2   :     0.003878
      dxy     :     0.010572

 15 O s       :     3.531165  s :     3.531165
      pz      :     1.779071  p :     4.765112
      px      :     1.316238
      py      :     1.669804
      dz2     :     0.002772  d :     0.026768
      dxz     :     0.006793
      dyz     :     0.004089
      dx2y2   :     0.008263
      dxy     :     0.004851

 16 O s       :     3.539079  s :     3.539079
      pz      :     1.524151  p :     4.774863
      px      :     1.531743
      py      :     1.718969
      dz2     :     0.006766  d :     0.026407
      dxz     :     0.003693
      dyz     :     0.005834
      dx2y2   :     0.002376
      dxy     :     0.007738

 17 H s       :     0.900701  s :     0.900701

 18 H s       :     0.886254  s :     0.886254

 19 H s       :     0.710360  s :     0.710360

 20 H s       :     0.715436  s :     0.715436

 21 H s       :     0.716380  s :     0.716380

 22 H s       :     0.710826  s :     0.710826

 23 H s       :     0.706877  s :     0.706877


---------------------------------
LOEWDIN BOND ORDERS (THRESH 0.050000)
---------------------------------
B(  0-C ,  1-C ) :   1.0652 B(  0-C ,  3-C ) :   0.0525 B(  0-C , 11-O ) :   0.0561 
B(  0-C , 16-O ) :   1.2243 B(  0-C , 17-H ) :   0.9076 B(  0-C , 18-H ) :   0.9073 
B(  1-C ,  2-H ) :   0.8641 B(  1-C ,  3-C ) :   1.0100 B(  1-C ,  5-C ) :   0.0592 
B(  1-C ,  9-C ) :   0.0706 B(  1-C , 11-O ) :   1.1322 B(  1-C , 15-O ) :   0.0811 
B(  1-C , 16-O ) :   0.0559 B(  3-C ,  4-H ) :   0.8647 B(  3-C ,  5-C ) :   1.0214 
B(  3-C ,  7-C ) :   0.0590 B(  3-C , 11-O ) :   0.0717 B(  3-C , 14-O ) :   0.0814 
B(  3-C , 15-O ) :   1.2094 B(  5-C ,  6-H ) :   0.8613 B(  5-C ,  7-C ) :   1.0213 
B(  5-C ,  9-C ) :   0.0601 B(  5-C , 13-O ) :   0.0763 B(  5-C , 14-O ) :   1.2324 
B(  5-C , 15-O ) :   0.0618 B(  7-C ,  8-H ) :   0.8665 B(  7-C ,  9-C ) :   1.0055 
B(  7-C , 11-O ) :   0.0724 B(  7-C , 12-O ) :   0.0766 B(  7-C , 13-O ) :   1.2453 
B(  7-C , 14-O ) :   0.0611 B(  9-C , 10-H ) :   0.8692 B(  9-C , 11-O ) :   1.1500 
B(  9-C , 12-O ) :   1.3217 B(  9-C , 13-O ) :   0.0876 B( 11-O , 12-O ) :   0.0780 
B( 12-O , 19-H ) :   0.8729 B( 13-O , 20-H ) :   0.8824 B( 14-O , 21-H ) :   0.8728 
B( 15-O , 22-H ) :   0.8749 B( 16-O , 23-H ) :   0.8849 

------------------------------------------
LOEWDIN REDUCED ORBITAL POPULATIONS PER MO
-------------------------------------------
THRESHOLD FOR PRINTING IS 0.1%%
                      0         1         2         3         4         5   
                 -18.77048 -18.76735 -18.76087 -18.75396 -18.74243 -18.73971
                   2.00000   2.00000   2.00000   2.00000   2.00000   2.00000
                  --------  --------  --------  --------  --------  --------
11 O  s               0.0      99.9       0.0       0.0       0.0       0.0
12 O  s               0.0       0.0       0.0      99.9       0.0       0.0
13 O  s               0.0       0.0       0.0       0.0      99.9       0.0
14 O  s               0.0       0.0       0.0       0.0       0.0      99.9
15 O  s               0.0       0.0      99.9       0.0       0.0       0.0
16 O  s              99.9       0.0       0.0       0.0       0.0       0.0

                      6         7         8         9        10        11   
                  -9.98235  -9.94730  -9.94555  -9.93857  -9.93807  -9.93526
                   2.00000   2.00000   2.00000   2.00000   2.00000   2.00000
                  --------  --------  --------  --------  --------  --------
 0 C  s               0.0       0.1      99.6       0.0       0.0       0.0
 1 C  s               0.0      99.5       0.1       0.0       0.0       0.0
 3 C  s               0.0       0.0       0.0      99.5       0.1       0.0
 5 C  s               0.0       0.0       0.0       0.1      99.5       0.0
 7 C  s               0.0       0.0       0.0       0.0       0.0      99.6
 9 C  s              99.6       0.0       0.0       0.0       0.0       0.0
11 O  px              0.1       0.0       0.0       0.0       0.0       0.0
13 O  px              0.0       0.0       0.0       0.0       0.0       0.1

                     12        13        14        15        16        17   
                  -0.97976  -0.94727  -0.93930  -0.92627  -0.91279  -0.90660
                   2.00000   2.00000   2.00000   2.00000   2.00000   2.00000
                  --------  --------  --------  --------  --------  --------
 0 C  s               0.8       6.0       3.5       0.2       0.0       0.0
 0 C  pz              0.1       3.4       2.6       0.5       0.1       0.1
 0 C  px              0.4       0.4       0.5       0.5       0.5       0.2
 0 C  py              0.0       0.8       0.2       0.0       0.0       0.0
 0 C  dz2             0.0       0.2       0.1       0.0       0.0       0.0
 0 C  dxz             0.0       0.2       0.1       0.0       0.0       0.0
 0 C  dyz             0.0       0.1       0.1       0.0       0.0       0.0
 1 C  s               5.2       1.1       0.0       1.0       2.7       0.6
 1 C  pz              0.8       0.2       0.0       0.1       0.3       0.1
 1 C  px              1.9       0.8       0.2       0.5       1.6       0.1
 1 C  py              1.2       0.3       1.1       0.1       1.6       0.0
 1 C  dxy             0.2       0.0       0.0       0.0       0.1       0.0
 2 H  s               0.6       0.1       0.0       0.1       0.3       0.1
 3 C  s               1.1       4.6       4.5       1.0       0.1       0.2
 3 C  pz              0.1       0.4       0.6       0.3       0.1       0.1
 3 C  px              0.0       1.2       0.3       1.3       1.6       1.1
 3 C  py              0.3       1.0       3.0       0.1       1.3       0.1
 3 C  dxy             0.0       0.1       0.1       0.1       0.1       0.1
 4 H  s               0.2       0.8       0.4       0.1       0.0       0.0
 5 C  s               0.7       1.2       4.1       1.8       1.4       2.8
 5 C  pz              0.1       0.1       0.4       0.3       0.3       0.6
 5 C  px              0.0       0.4       0.1       1.8       0.2       0.0
 5 C  py              0.2       0.3       1.0       0.3       0.7       5.4
 5 C  dyz             0.0       0.0       0.1       0.0       0.0       0.2
 5 C  dx2y2           0.0       0.0       0.0       0.1       0.1       0.3
 6 H  s               0.1       0.2       0.6       0.2       0.2       0.2
 7 C  s               2.2       0.0       1.3       6.9       0.0       1.7
 7 C  pz              0.2       0.0       0.1       0.4       0.0       0.1
 7 C  px              0.0       0.1       0.1       5.0       0.3       3.5
 7 C  py              0.9       0.4       0.5       0.7       0.5       0.0
 7 C  dx2y2           0.0       0.0       0.0       0.3       0.0       0.2
 8 H  s               0.4       0.0       0.2       0.8       0.0       0.1
 9 C  s              15.2       1.1       0.0       0.0       0.4       0.1
 9 C  pz              1.2       0.1       0.0       0.0       0.3       0.1
 9 C  px              1.0       0.2       0.1       2.4       8.6       0.9
 9 C  py              1.7       0.6       0.2       0.4       2.4       1.5
 9 C  dz2             0.2       0.0       0.0       0.0       0.0       0.0
 9 C  dxz             0.0       0.0       0.0       0.0       0.2       0.0
 9 C  dyz             0.1       0.0       0.0       0.0       0.1       0.0
 9 C  dx2y2           0.1       0.0       0.0       0.1       0.3       0.0
 9 C  dxy             0.0       0.0       0.0       0.0       0.4       0.1
10 H  s               1.8       0.1       0.0       0.0       0.0       0.0
11 O  s              29.7       0.1       0.5       4.8      16.1       2.1
11 O  pz              0.5       0.0       0.0       0.1       0.3       0.0
11 O  px              0.7       0.2       0.0       0.0       0.2       0.1
11 O  py              0.9       0.0       0.0       0.2       0.9       0.2
12 O  s              18.3       4.7       0.1       0.7      27.1       7.9
12 O  pz              0.1       0.0       0.0       0.0       0.5       0.2
12 O  px              1.1       0.1       0.0       0.0       0.3       0.1
12 O  py              0.9       0.1       0.0       0.0       0.4       0.1
13 O  s               1.3       0.0       3.1      34.0       0.0      19.5
13 O  pz              0.0       0.0       0.1       0.8       0.0       0.5
13 O  px              0.1       0.0       0.2       1.3       0.0       0.5
14 O  s               0.3       2.4      10.6       6.4       8.6      29.5
14 O  pz              0.0       0.1       0.3       0.1       0.2       0.6
14 O  px              0.0       0.1       0.4       0.1       0.3       1.0
14 O  py              0.0       0.0       0.1       0.1       0.0       0.1
15 O  s               0.8      17.6      21.0       8.1       8.0       3.5
15 O  pz              0.0       0.5       0.5       0.2       0.2       0.1
15 O  py              0.1       0.6       0.6       0.2       0.2       0.1
16 O  s               0.9      31.5      22.3       3.9       0.7       0.5
16 O  pz              0.0       0.6       0.4       0.0       0.0       0.0
16 O  px              0.0       0.2       0.2       0.0       0.0       0.0
16 O  py              0.0       1.0       0.7       0.1       0.0       0.0
17 H  s               0.1       0.7       0.4       0.0       0.0       0.0
18 H  s               0.2       0.7       0.4       0.0       0.0       0.0
19 H  s               3.7       0.9       0.0       0.1       5.2       1.5
20 H  s               0.3       0.0       0.7       6.9       0.0       3.9
21 H  s               0.1       0.7       2.5       1.1       1.6       5.8
22 H  s               0.2       3.9       3.8       1.6       1.7       0.8
23 H  s               0.2       6.3       4.6       0.8       0.1       0.1

                     18        19        20        21        22        23   
                  -0.70204  -0.69038  -0.62037  -0.58118  -0.55451  -0.53651
                   2.00000   2.00000   2.00000   2.00000   2.00000   2.00000
                  --------  --------  --------  --------  --------  --------
 0 C  s               5.7       6.6      13.0       0.0       5.6       0.8
 0 C  pz              0.8       0.7       1.0       0.0       0.1       1.0
 0 C  px              2.1       1.9       0.0       0.0       2.3       0.8
 0 C  py              0.2       0.0       0.1       0.4       0.9       0.2
 1 C  s              12.8       6.6       0.0       0.2       5.6       3.6
 1 C  pz              0.0       0.0       0.4       0.3       0.1       5.5
 1 C  px              1.2       2.5       5.7       0.2       1.1       0.7
 1 C  py              2.4       1.6       1.6       4.1       0.8       1.0
 1 C  dyz             0.1       0.0       0.0       0.1       0.0       0.0
 1 C  dx2y2           0.0       0.0       0.2       0.0       0.0       0.0
 1 C  dxy             0.2       0.0       0.1       0.1       0.0       0.0
 2 H  s               2.7       1.0       0.0       0.3       1.9       4.9
 3 C  s              12.0       0.6       6.6       4.0       0.1       4.1
 3 C  pz              0.1       0.0       0.0       0.1       0.0       4.1
 3 C  px              1.7       3.0       1.0       0.3       2.0       0.5
 3 C  py              3.2       0.8       0.0       0.1       4.6       0.4
 3 C  dx2y2           0.0       0.1       0.0       0.0       0.1       0.0
 3 C  dxy             0.1       0.0       0.0       0.0       0.0       0.0
 4 H  s               2.2       0.1       1.5       0.8       0.2       4.0
 5 C  s               7.2       7.6       0.7       1.9       7.7       2.5
 5 C  pz              0.0       0.0       0.1       0.4       1.1       3.4
 5 C  px              1.2       0.1       4.2       4.7       0.0       1.9
 5 C  py              3.1       3.9       0.1       0.1       0.4       0.0
 6 H  s               1.5       1.5       0.2       0.2       3.6       3.3
 7 C  s               1.8      11.0       6.1       4.3       3.1       0.7
 7 C  pz              0.0       0.2       0.0       1.7       1.5       5.0
 7 C  px              1.4       4.5       0.0       0.1       1.2       0.4
 7 C  py              0.6       0.1       1.8       4.0       3.0       0.6
 8 H  s               0.4       2.3       1.6       2.5       2.0       2.2
 9 C  s               0.6       6.4       6.3       8.7       0.1       0.2
 9 C  pz              0.0       0.0       0.1       3.6       0.1       6.3
 9 C  px              1.6       0.1       0.7       0.2       2.4       1.6
 9 C  py              1.0       3.5       1.7       0.8       2.7       0.0
 9 C  dx2y2           0.1       0.0       0.0       0.0       0.0       0.0
 9 C  dxy             0.1       0.0       0.0       0.0       0.0       0.1
10 H  s               0.0       1.4       2.0       5.2       0.0       2.8
11 O  s               4.8       0.3       0.9       1.5       1.2       1.0
11 O  pz              0.1       0.1       0.0       0.2       0.2       3.5
11 O  px              3.4       6.1       0.9       5.6       3.6       3.4
11 O  py              0.8       0.0       0.1       0.1       2.6       0.4
12 O  s               0.6       1.8       1.2       0.9       0.0       0.4
12 O  pz              0.2       0.8       2.3       9.9       0.0       2.4
12 O  px              0.2       0.2       0.3       1.3       0.4       0.1
12 O  py              0.0       0.7       1.9       3.7       0.3       0.1
12 O  dz2             0.0       0.0       0.0       0.1       0.0       0.0
13 O  s               0.6       3.1       1.4       0.4       0.2       0.2
13 O  pz              0.1       0.8       1.3       2.5       3.6       2.2
13 O  px              0.2       1.5       2.0       2.6       2.5       0.4
13 O  py              0.0       0.1       0.4       0.0       1.1       0.2
14 O  s               2.0       2.1       0.4       0.2       1.5       0.0
14 O  pz              0.0       0.0       0.0       0.0       0.7       0.5
14 O  px              0.1       0.2       0.1       0.9       0.3       0.6
14 O  py              1.4       1.9       0.2       3.4       7.5       1.6
15 O  s               3.5       0.0       0.7       0.9       0.0       0.5
15 O  pz              0.1       0.0       0.0       0.0       0.0       0.8
15 O  px              2.5       0.3       4.0       4.3       0.7       4.0
15 O  py              0.8       0.0       0.5       1.2       0.1       0.9
16 O  s               1.3       1.3       1.6       0.0       0.6       0.1
16 O  pz              1.0       1.2       4.5       0.1       4.2       3.7
16 O  px              1.3       1.1       2.5       0.1       1.3       3.9
16 O  py              0.0       0.0       0.0       0.0       0.2       0.1
17 H  s               1.1       1.4       4.3       0.0       2.6       0.1
18 H  s               1.0       1.6       3.5       0.1       2.7       0.1
19 H  s               0.2       0.9       1.6       4.7       0.0       0.5
20 H  s               0.2       1.4       1.5       1.6       2.2       0.6
21 H  s               0.9       1.1       0.1       1.3       2.6       0.6
22 H  s               1.8       0.1       1.5       1.8       0.1       1.3
23 H  s               1.0       1.1       2.3       0.1       1.4       2.4

                     24        25        26        27        28        29   
                  -0.50251  -0.49468  -0.47624  -0.47013  -0.43165  -0.42957
                   2.00000   2.00000   2.00000   2.00000   2.00000   2.00000
                  --------  --------  --------  --------  --------  --------
 0 C  s               1.0       0.2       0.2       0.9       0.0       0.1
 0 C  pz              4.5       1.0       2.5       6.9       0.3       0.1
 0 C  px              0.5       1.5       0.0       0.4       0.5       4.6
 0 C  py              6.2       0.5       5.5       5.8       0.0       0.2
 0 C  dz2             0.0       0.0       0.0       0.1       0.0       0.0
 0 C  dyz             0.2       0.0       0.0       0.2       0.0       0.0
 1 C  s               0.0       0.1       1.5       0.0       0.0       0.6
 1 C  pz              4.4       3.2       6.7       0.0       0.4       0.4
 1 C  px              0.0       0.1       1.5       0.1       0.0       2.9
 1 C  py              1.4       3.2       5.2       0.0       1.4       0.0
 1 C  dyz             0.0       0.0       0.1       0.1       0.0       0.0
 2 H  s               0.9       1.4       4.6       0.0       0.1       0.0
 3 C  s               0.1       0.4       0.0       1.2       0.2       0.8
 3 C  pz              4.8       2.5       0.8       8.4       0.3       4.5
 3 C  px              0.2       0.1       2.1       0.6       4.6       0.7
 3 C  py              7.0       1.1       1.5       0.6       3.1       0.1
 3 C  dxz             0.0       0.0       0.0       0.0       0.2       0.1
 3 C  dyz             0.1       0.0       0.1       0.1       0.1       0.0
 3 C  dxy             0.1       0.0       0.0       0.0       0.1       0.0
 4 H  s               1.8       1.2       0.1       4.3       0.0       2.9
 5 C  s               0.1       0.1       0.0       0.1       1.6       0.0
 5 C  pz              0.7       2.0       1.3       8.6       8.0       0.3
 5 C  px              1.5       0.0       1.7       0.2       2.4       0.6
 5 C  py              0.2       2.3       1.8       0.5       1.4       0.5
 5 C  dyz             0.0       0.0       0.1       0.0       0.1       0.0
 6 H  s               0.0       0.3       0.4       3.5       5.4       0.2
 7 C  s               0.4       0.0       0.1       0.0       0.1       0.3
 7 C  pz              0.8       1.1       3.2       0.8       0.3       0.9
 7 C  px              2.2       2.9       1.2       2.9       1.1       3.1
 7 C  py              0.2       1.6       3.4       0.0       0.8       3.4
 7 C  dyz             0.0       0.0       0.0       0.0       0.1       0.0
 7 C  dx2y2           0.0       0.0       0.0       0.0       0.2       0.4
 8 H  s               0.4       0.1       0.3       0.3       0.0       1.1
 9 C  s               0.1       0.0       0.1       0.1       1.1       0.1
 9 C  pz              0.2       0.9       0.4       0.6       3.6      19.7
 9 C  px              0.0       6.2       4.2       0.0       0.1       1.7
 9 C  py              0.0       6.8       5.9       0.0       5.8       0.2
 9 C  dz2             0.0       0.0       0.0       0.0       0.2       0.0
 9 C  dxy             0.0       0.2       0.0       0.0       0.0       0.0
10 H  s               0.1       0.2       0.5       0.1       3.8       6.6
11 O  s               0.2       0.8       0.0       0.2       0.4       0.2
11 O  pz              0.2       0.0       0.1       0.3       2.3       7.6
11 O  px              0.0       8.6      12.1       0.2       0.1       0.2
11 O  py              0.8       1.0       1.6       0.0       0.7       0.0
12 O  s               0.0       0.2       0.1       0.0       0.0       0.9
12 O  pz              0.2      17.2       0.0       0.1       4.3       0.1
12 O  px              0.0       0.4       2.0       0.1       1.9       1.6
12 O  py              0.0       3.7       0.1       0.2       1.5       8.1
12 O  dz2             0.0       0.1       0.0       0.0       0.1       0.1
13 O  s               0.0       0.0       0.3       0.0       0.5       0.2
13 O  pz              3.7       3.2       3.2       2.6       3.6       5.9
13 O  px              1.8       1.5       0.5       3.4       0.6       4.4
13 O  py              0.5       0.1       0.4       0.3       0.0       0.0
14 O  s               0.2       0.1       0.2       0.1       0.9       0.0
14 O  pz              0.0       0.0       0.0       1.1       0.8       0.3
14 O  px              0.7       0.5       2.7       0.0       2.9       0.5
14 O  py              1.0       7.3       7.1       0.6       9.1       0.6
15 O  s               0.4       0.0       0.3       0.3       0.1       0.4
15 O  pz              0.4       0.5       0.1       1.3       0.4       1.6
15 O  px             18.1       0.9       0.3       5.5       9.4       1.7
15 O  py              0.4       0.0       1.6       0.3       1.8       0.3
16 O  s               0.6       0.0       0.1       1.2       0.1       0.1
16 O  pz              2.6       0.3       0.2       5.8       0.0       1.4
16 O  px              8.4       0.2       0.6      11.3       0.5       0.0
16 O  py              2.6       0.0       1.2       1.5       0.0       0.0
17 H  s               1.7       1.3       0.6       2.5       0.5       1.0
18 H  s               3.4       0.1       2.4       3.8       0.0       0.2
19 H  s               0.0       6.0       0.0       0.1       2.0       0.8
20 H  s               1.6       1.4       0.8       1.7       1.1       2.8
21 H  s               0.5       2.3       2.9       0.2       3.2       0.2
22 H  s               5.4       0.2       0.0       1.6       2.9       0.7
23 H  s               3.6       0.0       0.1       5.2       0.1       0.1

                     30        31        32        33        34        35   
                  -0.41327  -0.39825  -0.39338  -0.39253  -0.34974  -0.34679
                   2.00000   2.00000   2.00000   2.00000   2.00000   2.00000
                  --------  --------  --------  --------  --------  --------
 0 C  s               0.1       0.0       0.1       0.0       0.3       0.0
 0 C  pz              1.3       6.2       6.2       0.3       1.9       0.0
 0 C  px              2.2       9.6       0.9       9.8       3.9       0.4
 0 C  py              0.4       8.4      10.5       0.4       1.3       0.3
 0 C  dz2             0.1       0.0       0.0       0.0       0.1       0.0
 0 C  dxz             0.1       0.1       0.0       0.0       0.1       0.0
 0 C  dx2y2           0.0       0.1       0.1       0.0       0.0       0.0
 1 C  s               0.1       0.1       0.1       0.2       0.0       0.2
 1 C  pz              5.0       0.5       1.3       3.1      11.8       0.1
 1 C  px              4.5       1.3       4.2       2.7       5.1       0.4
 1 C  py              0.4       0.2       5.8       2.4       0.6       0.1
 1 C  dz2             0.0       0.0       0.0       0.1       0.3       0.0
 1 C  dxz             0.0       0.2       0.0       0.1       0.0       0.0
 1 C  dxy             0.0       0.2       0.0       0.1       0.1       0.1
 2 H  s               3.0       0.5       0.1       2.2       8.2       0.1
 3 C  s               0.5       0.0       0.3       0.1       0.1       0.0
 3 C  pz              1.3       0.2       2.9       3.6       3.1       0.3
 3 C  px              9.3       0.1       0.0       2.0       1.5       4.8
 3 C  py              0.9       0.1       5.1       1.9       1.7       0.1
 3 C  dxz             0.0       0.0       0.0       0.1       0.0       0.0
 3 C  dxy             0.0       0.0       0.0       0.2       0.2       0.1
 4 H  s               1.8       0.0       0.9       1.7       2.3       0.4
 5 C  s               0.0       0.0       0.2       0.4       0.0       0.1
 5 C  pz              6.6       0.3       0.1       0.4       0.3       8.5
 5 C  px              5.8       1.4       0.2       5.8       1.7       1.1
 5 C  py              0.4       5.6       3.5       4.3       0.1       1.7
 5 C  dz2             0.0       0.0       0.0       0.0       0.0       0.3
 5 C  dxz             0.0       0.0       0.0       0.1       0.0       0.0
 5 C  dyz             0.0       0.1       0.2       0.0       0.0       0.1
 5 C  dxy             0.0       0.1       0.4       0.0       0.0       0.0
 6 H  s               3.2       0.1       0.0       0.6       0.2       7.1
 7 C  s               0.0       0.5       1.2       0.4       0.1       0.2
 7 C  pz             10.9       0.4       0.0       0.2       1.8      16.5
 7 C  px              1.5       1.9       2.2       1.4       0.1       1.1
 7 C  py              0.0       7.0       1.9       5.6       0.0       0.4
 7 C  dz2             0.0       0.0       0.1       0.0       0.0       0.6
 8 H  s               4.6       0.8       0.6       0.0       0.7      12.3
 9 C  s               0.2       0.0       0.3       0.7       0.4       0.0
 9 C  pz              0.0       0.8       0.2       0.2       6.6       1.1
 9 C  px              0.1       2.4       0.1       0.2       0.6       0.1
 9 C  py              0.5       2.7       0.3       0.5       0.2       0.0
 9 C  dz2             0.0       0.0       0.0       0.1       0.2       0.1
 9 C  dxz             0.0       0.0       0.0       0.0       0.1       0.0
 9 C  dxy             0.2       0.0       0.0       0.2       0.0       0.0
10 H  s               0.1       0.1       0.0       0.1       5.2       1.1
11 O  s               0.4       0.3       0.9       0.4       0.0       0.2
11 O  pz              2.9       0.3       0.1       0.5       2.2       1.8
11 O  px              0.3       2.4       1.2       1.5       0.1       0.1
11 O  py              1.0       3.3       5.4       1.1       0.1       0.6
12 O  s               0.2       0.1       0.1       1.6       0.2       0.1
12 O  pz              1.5       0.4       0.5       5.2       0.2       0.3
12 O  px              0.0       1.5       0.0       0.4       1.3       1.0
12 O  py              0.2       2.3       0.4       0.4       5.5       0.4
13 O  s               0.7       0.0       0.5       0.5       0.9       0.5
13 O  pz              0.1       0.1       2.3       1.3       2.5       1.5
13 O  px              5.9       0.0       0.1       0.4       2.5      12.7
13 O  py              0.2       3.3       0.8       2.4       0.0       0.8
14 O  s               0.1       0.1       0.6       1.4       0.0       0.2
14 O  pz              1.4       1.5       0.3       2.1       0.0       5.3
14 O  px              1.5       0.1       2.0       4.2       0.4       0.4
14 O  py              0.3       5.2       4.8       2.6       0.4       0.8
15 O  s               1.2       0.1       0.0       0.2       1.3       1.4
15 O  pz              2.0       0.1       1.6       1.2      11.4       4.7
15 O  px              0.0       0.1       1.4       1.7       0.0       0.2
15 O  py              4.7       0.0       0.3       3.8       1.7       5.5
16 O  s               0.1       0.0       1.6       1.0       0.1       0.0
16 O  pz              5.4       2.4       0.9       3.8       4.3       0.0
16 O  px              1.2       4.2       0.1       3.1       0.2       0.0
16 O  py              0.0       3.3      12.6       0.6       1.4       0.0
17 H  s               0.0      10.1       2.1       3.1       0.3       0.0
18 H  s               0.6       4.5       5.2       0.2       0.2       0.2
19 H  s               0.5       0.0       0.1       1.0       0.3       0.0
20 H  s               0.4       0.2       0.7       0.3       0.1       0.6
21 H  s               0.0       1.1       2.2       0.0       0.0       0.0
22 H  s               0.0       0.2       0.2       0.9       0.2       0.1
23 H  s               1.4       0.0       0.0       0.1       0.3       0.0

                     36        37        38        39        40        41   
                  -0.32038  -0.31015  -0.30578  -0.29395  -0.29076  -0.26179
                   2.00000   2.00000   2.00000   2.00000   2.00000   2.00000
                  --------  --------  --------  --------  --------  --------
 0 C  s               0.2       0.2       0.0       0.2       0.2       0.3
 0 C  pz              1.2       1.2       0.0       0.0       0.2       0.0
 0 C  px              0.1       0.4       0.2       1.3       2.3       1.9
 0 C  py              0.5       4.8       0.1       0.4       2.6       0.7
 0 C  dxz             0.1       0.2       0.0       0.0       0.1       0.0
 0 C  dx2y2           0.0       0.5       0.0       0.0       0.2       0.0
 1 C  s               0.1       1.4       0.0       0.3       0.1       0.1
 1 C  pz              0.6       0.7       0.5       2.4       0.3       1.7
 1 C  px              1.0       2.0       0.1       0.2       3.2       0.6
 1 C  py              0.6       0.0       0.3       1.3       1.0       1.3
 1 C  dz2             0.0       0.0       0.0       0.3       0.0       0.4
 1 C  dx2y2           0.4       0.1       0.1       0.1       0.2       0.1
 2 H  s               0.1       0.0       0.3       3.5       0.1       3.1
 3 C  s               0.3       0.1       0.2       0.4       0.1       0.2
 3 C  pz              2.9       3.1       0.1       3.3       0.3       0.4
 3 C  px              0.1       0.5       0.4       0.0       0.2       1.7
 3 C  py              0.0       0.2       0.1       1.3       1.9       0.5
 3 C  dz2             0.0       0.0       0.0       0.6       0.0       0.0
 3 C  dx2y2           0.4       0.3       0.0       0.1       0.0       0.0
 4 H  s               1.6       1.0       0.2       6.6       0.1       0.4
 5 C  s               0.2       0.2       0.1       0.8       0.3       0.1
 5 C  pz              0.7       0.0       0.4       1.9       0.2       1.8
 5 C  px              2.3       1.1       0.0       0.2       0.0       4.4
 5 C  py              0.1       1.4       1.5       0.4       2.3       0.1
 5 C  dz2             0.0       0.0       0.1       0.1       0.0       0.2
 5 C  dx2y2           0.0       0.0       0.1       0.0       0.0       0.2
 5 C  dxy             0.0       0.1       0.1       0.2       0.0       0.2
 6 H  s               0.3       0.1       0.6       1.9       0.3       1.6
 7 C  s               0.1       0.1       0.7       0.0       0.2       0.0
 7 C  pz              0.1       0.4       0.1       0.7       2.4       2.2
 7 C  px              0.0       0.0       0.2       0.3       1.0       2.3
[...]
 3 C  dyz             0.2       0.3       1.7       0.1       0.8       0.1
 3 C  dx2y2           0.0       0.1       0.5       0.1       0.0       0.0
 3 C  dxy             0.2       3.5       2.7       1.5       0.5       0.1
 5 C  s               0.0       0.4       0.2       0.2       1.3       0.0
 5 C  pz              0.0       0.2       0.0       0.0       0.5       0.0
 5 C  px              0.0       0.2       0.2       0.0       0.1       0.0
 5 C  py              0.0       1.2       0.3       0.3       1.5       0.0
 5 C  dz2             0.0       0.0       0.1       0.1       0.2       0.0
 5 C  dxz             0.0       0.1       0.2       0.0       0.3       0.0
 5 C  dyz             0.0       1.3       0.6       0.2       3.8       0.0
 5 C  dx2y2           0.0       3.2       0.1       1.7       1.2       0.1
 5 C  dxy             0.0       0.9       0.5       0.3       0.4       0.0
 7 C  s               0.0       0.0       0.7       0.4       1.3       0.1
 7 C  px              0.0       0.1       1.6       0.8       1.1       0.2
 7 C  py              0.0       0.3       0.0       0.1       0.2       0.0
 7 C  dz2             0.0       0.0       0.5       0.5       1.1       0.1
 7 C  dxz             0.0       0.0       0.4       0.0       0.5       0.3
 7 C  dyz             0.0       0.3       0.0       0.1       0.1       0.0
 7 C  dx2y2           0.0       0.3       2.6       3.5       2.2       0.1
 7 C  dxy             0.1       0.0       1.6       0.7       0.1       0.1
 9 C  s               0.0       0.7       0.3       1.1       0.3       0.2
 9 C  px              0.0       0.3       0.0       0.2       0.0       3.4
 9 C  py              0.0       0.5       0.0       0.7       0.0       0.3
 9 C  dz2             0.0       0.2       0.2       0.5       0.2       0.1
 9 C  dxz             0.0       0.7       0.3       0.3       0.3       1.4
 9 C  dyz             0.0       0.1       0.0       0.1       0.0       0.5
 9 C  dx2y2           0.0       0.2       0.4       0.1       0.0       5.9
 9 C  dxy             0.1       2.4       0.0       6.1       0.1       2.5
11 O  s               0.2       0.2       0.1       0.6       0.1       0.0
11 O  px              0.0       0.1       0.7       0.4       0.1       5.4
11 O  py              0.0       0.0       0.0       0.0       0.1       0.4
11 O  dz2             0.5       0.8       0.0       0.5       0.7       0.7
11 O  dxz             0.1       0.7       2.9       2.2       0.8       9.5
11 O  dyz             0.0       0.0       0.2       0.3       0.1       2.3
11 O  dx2y2           0.6       0.2       0.0       1.9       0.0      14.3
11 O  dxy             0.4       4.1       2.3      12.2       1.2      21.2
12 O  s               0.0       1.1       0.2       1.4       0.2       1.9
12 O  pz              0.0       0.3       0.0       0.4       0.0       0.2
12 O  px              0.0       0.2       0.0       0.3       0.0       0.5
12 O  py              0.0       0.7       0.1       0.9       0.1       0.5
12 O  dz2             0.1       2.0       0.5       1.5       0.3       2.4
12 O  dxz             0.0       1.3       0.0       2.2       0.2       1.7
12 O  dyz             0.0       3.0       0.1       5.7       0.1       1.5
12 O  dx2y2           0.0       3.3       1.2       3.2       0.4       0.1
12 O  dxy             0.0       6.6       0.3       9.3       0.6       9.8
13 O  s               0.0       0.0       2.0       1.0       2.5       0.3
13 O  pz              0.0       0.0       0.3       0.2       0.3       0.0
13 O  px              0.0       0.0       1.5       0.9       1.4       0.1
13 O  dz2             0.0       0.1       6.5       3.0       6.8       0.5
13 O  dxz             0.0       0.1       1.5       1.8       0.8       0.0
13 O  dyz             0.0       0.0       0.0       0.1       0.0       0.0
13 O  dx2y2           0.1       0.2      14.9       9.0      12.2       0.3
13 O  dxy             0.0       1.0       2.1       1.4       2.4       0.8
14 O  s               0.0       1.4       0.4       0.3       3.2       0.0
14 O  pz              0.0       0.1       0.0       0.1       0.2       0.0
14 O  py              0.0       1.6       0.4       0.4       2.2       0.0
14 O  dz2             0.0       0.5       0.1       0.0       2.5       0.0
14 O  dxz             0.0       0.3       0.1       0.1       0.6       0.0
14 O  dyz             0.1      10.6       2.3       3.7      11.4       0.0
14 O  dx2y2           0.1       9.5       1.3       2.1      11.8       0.0
14 O  dxy             0.0       3.0       1.7       1.2       3.6       0.0
15 O  s               0.0       1.3       2.9       0.3       1.1       0.2
15 O  pz              0.0       0.1       0.1       0.0       0.0       0.0
15 O  px              0.1       0.9       1.4       0.3       0.3       0.0
15 O  py              0.0       0.5       0.7       0.1       0.3       0.1
15 O  dz2             0.1       0.6       2.0       0.0       1.5       0.3
15 O  dxz             0.6       3.5       5.6       1.7       1.1       0.0
15 O  dyz             0.2       4.7       5.4       1.5       1.6       0.1
15 O  dx2y2           0.1       1.5       0.0       0.1       0.3       0.1
15 O  dxy             1.9       9.5      14.3       2.4       4.5       0.6
16 O  s               3.5       0.1       0.2       0.0       0.0       0.0
16 O  pz              3.0       0.1       0.1       0.0       0.0       0.0
16 O  px              1.5       0.0       0.0       0.0       0.0       0.0
16 O  py              0.1       0.0       0.0       0.0       0.0       0.0
16 O  dz2            25.7       0.5       0.3       0.0       0.0       0.0
16 O  dxz            13.4       0.3       0.5       0.0       0.0       0.0
16 O  dyz            21.3       0.4       0.5       0.0       0.0       0.0
16 O  dx2y2           0.1       0.0       0.0       0.0       0.0       0.1
16 O  dxy             6.0       0.0       0.0       0.0       0.0       0.0
20 H  s               0.0       0.0       0.2       0.1       0.3       0.0
21 H  s               0.0       0.3       0.1       0.1       0.2       0.0
22 H  s               0.1       0.3       0.2       0.1       0.0       0.0
23 H  s               0.9       0.0       0.0       0.0       0.0       0.0



                      *****************************
                      * MAYER POPULATION ANALYSIS *
                      *****************************

  NA   - Mulliken gross atomic population
  ZA   - Total nuclear charge
  QA   - Mulliken gross atomic charge
  VA   - Mayer's total valence
  BVA  - Mayer's bonded valence
  FA   - Mayer's free valence

  ATOM       NA         ZA         QA         VA         BVA        FA
  0 C      5.9543     6.0000     0.0457     3.9759     3.9759     0.0000
  1 C      5.9825     6.0000     0.0175     4.0241     4.0241    -0.0000
  2 H      0.9460     1.0000     0.0540     0.9711     0.9711    -0.0000
  3 C      5.9789     6.0000     0.0211     4.0717     4.0717     0.0000
  4 H      0.9262     1.0000     0.0738     0.9957     0.9957    -0.0000
  5 C      5.9319     6.0000     0.0681     4.0465     4.0465     0.0000
  6 H      0.9666     1.0000     0.0334     0.9786     0.9786     0.0000
  7 C      5.9359     6.0000     0.0641     3.9425     3.9425    -0.0000
  8 H      0.9446     1.0000     0.0554     0.9911     0.9911    -0.0000
  9 C      5.8164     6.0000     0.1836     4.1326     4.1326    -0.0000
 10 H      0.9686     1.0000     0.0314     0.9779     0.9779     0.0000
 11 O      8.3046     8.0000    -0.3046     2.1096     2.1096     0.0000
 12 O      8.3658     8.0000    -0.3658     2.0699     2.0699     0.0000
 13 O      8.3984     8.0000    -0.3984     2.0199     2.0199     0.0000
 14 O      8.4052     8.0000    -0.4052     2.0289     2.0289    -0.0000
 15 O      8.4277     8.0000    -0.4277     2.0089     2.0089     0.0000
 16 O      8.4386     8.0000    -0.4386     2.0232     2.0232    -0.0000
 17 H      0.9247     1.0000     0.0753     0.9526     0.9526     0.0000
 18 H      0.9053     1.0000     0.0947     0.9735     0.9735     0.0000
 19 H      0.6971     1.0000     0.3029     0.8905     0.8905     0.0000
 20 H      0.7043     1.0000     0.2957     0.8884     0.8884     0.0000
 21 H      0.6978     1.0000     0.3022     0.9000     0.9000    -0.0000
 22 H      0.6875     1.0000     0.3125     0.8926     0.8926     0.0000
 23 H      0.6910     1.0000     0.3090     0.8762     0.8762    -0.0000

  Mayer bond orders larger than 0.100000
B(  0-C ,  1-C ) :   1.0451 B(  0-C , 16-O ) :   1.0838 B(  0-C , 17-H ) :   0.9138 
B(  0-C , 18-H ) :   0.9163 B(  1-C ,  2-H ) :   0.8746 B(  1-C ,  3-C ) :   0.9999 
B(  1-C , 11-O ) :   0.9883 B(  3-C ,  4-H ) :   0.8674 B(  3-C ,  5-C ) :   1.0128 
B(  3-C , 15-O ) :   1.0718 B(  5-C ,  6-H ) :   0.8710 B(  5-C ,  7-C ) :   1.0005 
B(  5-C , 14-O ) :   1.1112 B(  7-C ,  8-H ) :   0.8571 B(  7-C ,  9-C ) :   0.9593 
B(  7-C , 13-O ) :   1.0640 B(  9-C , 10-H ) :   0.8724 B(  9-C , 11-O ) :   0.9950 
B(  9-C , 12-O ) :   1.1697 B( 12-O , 19-H ) :   0.8434 B( 13-O , 20-H ) :   0.8494 
B( 14-O , 21-H ) :   0.8366 B( 15-O , 22-H ) :   0.8369 B( 16-O , 23-H ) :   0.8464 


-------
TIMINGS
-------

Total SCF time: 0 days 0 hours 0 min 8 sec 

Total time                  ....       8.869 sec
Sum of individual times     ....       8.496 sec  ( 95.8%)

SCF preparation             ....       0.165 sec  (  1.9%)
Fock matrix formation       ....       7.573 sec  ( 85.4%)
  Startup                   ....       0.051 sec  (  0.7% of F)
  Split-RI-J                ....       3.395 sec  ( 44.8% of F)
  XC integration            ....       3.726 sec  ( 49.2% of F)
    Basis function eval.    ....       1.254 sec  ( 33.7% of XC)
    Density eval.           ....       0.685 sec  ( 18.4% of XC)
    XC-Functional eval.     ....       0.269 sec  (  7.2% of XC)
    XC-Potential eval.      ....       0.920 sec  ( 24.7% of XC)
Diagonalization             ....       0.000 sec  (  0.0%)
Density matrix formation    ....       0.160 sec  (  1.8%)
Total Energy calculation    ....       0.026 sec  (  0.3%)
Population analysis         ....       0.090 sec  (  1.0%)
Orbital Transformation      ....       0.080 sec  (  0.9%)
Orbital Orthonormalization  ....       0.000 sec  (  0.0%)
DIIS solution               ....       0.312 sec  (  3.5%)
  MO trafo                  ....       0.000 sec  (  0.0 % of DIIS)
  Orb grad                  ....       0.000 sec  (  0.0 % of DIIS)
  Energy W gradient         ....       0.000 sec  (  0.0 % of DIIS)
  DIIS error                ....       0.006 sec  (  1.8 % of DIIS)
  DIIS work                 ....       0.237 sec  ( 75.9 % of DIIS)
  Form Q                    ....       0.000 sec  (  0.0 % of DIIS)
  Form QpQm                 ....       0.000 sec  (  0.0 % of DIIS)
  Exp/Cayley                ....       0.000 sec  (  0.0 % of DIIS)
  Orb update                ....       0.000 sec  (  0.0 % of DIIS)
  Wake-sleep                ....       0.013 sec  (  4.3 % of DIIS)
SOSCF solution              ....       0.090 sec  (  1.0%)
  MO trafo                  ....       0.054 sec  ( 59.6 % of SOSCF)
  Orb grad                  ....       0.001 sec  (  1.2 % of SOSCF)
  Rot update                ....       0.017 sec  ( 18.7 % of SOSCF)
  Step                      ....       0.019 sec  ( 20.5 % of SOSCF)
Finished LeanSCF after   8.9 sec

Maximum memory used throughout the entire LEANSCF-calculation: 18.1 MB


-------------------------------------------------------------------------------
                          DFT DISPERSION CORRECTION                            
                                                                               
                                DFTD4 V3.4.0                                   
-------------------------------------------------------------------------------
The PBE functional is recognized
Active option DFTDOPT                   ...         5   

-------------------------   ----------------
Dispersion correction           -0.023909964
-------------------------   ----------------

------------------   -----------------
gCP correction             0.153097998
------------------   -----------------

-------------------------   --------------------
FINAL SINGLE POINT ENERGY      -685.693596149190
-------------------------   --------------------


------------------------------------------------------------------------------
                              ORCA PROPERTY CALCULATIONS
------------------------------------------------------------------------------

GBWName                                 ... sp.gbw
Number of atoms                         ...     24
Number of basis functions               ...    192
Max core memory                         ...   1024 MB

Electric properties:
Dipole moment                           ... YES
Quadrupole moment                       ...  NO
Static polarizability (Dipole/Dipole)   ...  NO
Static polarizability (Dipole/Quad.)    ...  NO
Static polarizability (Quad./Quad.)     ...  NO
Static polarizability (Velocity)        ...  NO

Atomic electric properties:
Dipole moment                           ...  NO
Quadrupole moment                       ...  NO
Static polarizability                   ...  NO

Choice of electric origin               ... Center of mass
Position of electric origin             ...    -0.000010    -0.000002     0.000006

General magnetic properties:
Magnetizability                         ...  NO

EPR properties:
g-Tensor (aka g-matrix)                 ...  NO
Zero-Field splitting spin-orbit         ...  NO
Zero-field splitting spin-spin          ...  NO
Hyperfine couplings                     ...  NO (   0 nuclei)
Quadrupole couplings                    ...  NO (   0 nuclei)
Contact density                         ...  NO (   0 nuclei)

NMR properties:
Chemical shifts                         ...  NO (   0 nuclei)
Spin-rotation constants                 ...  NO (   0 nuclei)
Spin-spin couplings                     ...  NO (   0 nuclei,    0 pairs)

Choice of magnetic origin               ... GIAO
Position of magnetic origin             ...     0.000000     0.000000     0.000000

Properties with geometric perturbations:
SCF Hessian                             ...  NO
IR spectrum                             ...  NO
VCD spectrum                            ...  NO
X-ray spectroscopy properties:
SCF XES/XAS/RIXS spectra                ...  NO


-------------
DIPOLE MOMENT
-------------

Method             : SCF
Type of density    : Electron Density
Multiplicity       :   1
Irrep              :   0
Energy             :  -685.8227841826437725 Eh
Relativity type    : 
Basis              : AO
                                X                 Y                 Z
Electronic contribution:      2.940698361       0.067492682      -1.522912590
Nuclear contribution   :     -4.677151720      -0.368682146       1.778594435
                        -----------------------------------------
Total Dipole Moment    :     -1.736453359      -0.301189464       0.255681845
                        -----------------------------------------
Magnitude (a.u.)       :      1.780830864
Magnitude (Debye)      :      4.526512330



--------------------
Rotational spectrum 
--------------------
 
Rotational constants in cm-1:             0.041264             0.026022             0.017382 
Rotational constants in MHz :          1237.054082           780.109119           521.109206 

Dipole components along the rotational axes: 
x,y,z [a.u.] :    -1.737768    -0.275005     0.275488 
x,y,z [Debye]:    -4.417055    -0.699006     0.700236 

 

Dipole moment calculation done in   0.0 sec 

Maximum memory used throughout the entire PROP-calculation: 11.8 MB

--------------------------------
SUGGESTED CITATIONS FOR THIS RUN
--------------------------------

Below you find a list of papers that are relevant to this ORCA run
We neither can nor want to force you to cite these papers, but we appreciate if you do
You receive ORCA, which is the product of decades of hard work by many enthusiastic individuals, for free
The only thing we kindly ask in return is that you cite our papers,
We deeply appreciate it, if you show your appreciation for ORCA by not just citing the generic ORCA reference.

Please note that relegating all ORCA citations to the supporting information does *not* help us.
SI sections are not indexed - citations you put there will not count into any citation statistics
But we need these citations in order to attract the funding resources that allow us to do what we are doing

Therefore, if you are a happy ORCA user, please consider citing a few of the papers listed below in the main body of your paper

In addition to the list printed below, the program has created the file sp.bibtex that contains the list in bibtex format
You can import this file easily into all common literature databanks and citation aid programs


List of essential papers. We consider these as the minimum necessary citations

  1. Neese,F.
     Software update: the ORCA program system, version 5.0
     WIRES Comput. Molec. Sci., 2022 12(1)e1606
     doi.org/10.1002/wcms.1606

List of papers to cite with high priority. The work reported in these papers was absolutely
necessary for this run to complete.
Our perspective: the developers of density functionals and basis sets usually get cited in chemistry papers
Good! But without the algorithms to do something with them, the functionals or basis sets would not do anything.
Hence, in our opinion, the algorithm design and method developments papers are equally worthy of getting cited

  1. Neese,F.
     An improvement of the resolution of the identity approximation for the formation of the Coulomb matrix
     J. Comp. Chem., 2003 24(14)1740-1747
     doi.org/10.1002/jcc.10318
  2. Neese,F.
     The SHARK Integral Generation and Digestion System
     J. Comp. Chem., 2022  1-16
     doi.org/10.1002/jcc.26942
  3. Caldeweyher,E.; Bannwarth,C.; Grimme,S.
     Extension of the D3 dispersion coefficient model
     J. Chem. Phys., 2017 147 034112-XXXX
     doi.org/10.1063/1.4993215
  4. Caldeweyher,E.; Ehlert,S.; Hansen,A.; Neugebauer,H.; Spicher,S.; Bannwarth,C.; Grimme,S.
     A generally applicable atomic-charge dependent London dispersion correction
     J. Chem. Phys., 2019 150 154122-XXXX
     doi.org/10.1063/1.5090222
  5. Caldeweyher,E.; Mewes,J.; Ehlert,S.; Grimme,S.
     Extension and evaluation of the D4 London-dispersion model for periodic systems
     Phys. Chem. Chem. Phys., 2020 22(16)8499-8512
     doi.org/10.1039/D0CP00502A

List of suggested additional citations. These are papers that are important in the 'surrounding' of 
of this run, or papers that preceded the highly important papers. If you like your results we are grateful for a citation.

  1. Neese,F.
     The ORCA program system
     WIRES Comput. Molec. Sci., 2012 2(1)73-78
     doi.org/10.1002/wcms.81
  2. Neese,F.
     Software update: the ORCA program system, version 4.0
     WIRES Comput. Molec. Sci., 2018 8(1)1-6
     doi.org/10.1002/wcms.1327
  3. Neese,F.; Wennmohs,F.; Becker,U.; Riplinger,C.
     The ORCA quantum chemistry program package
     J. Chem. Phys., 2020 152 Art. No. L224108
     doi.org/10.1063/5.0004608

List of optional additional citations

  1. Neese,F.
     Approximate second-order SCF convergence for spin unrestricted wavefunctions
     Chem. Phys. Lett., 2000 325(1-3)93-98
     doi.org/10.1016/s0009-2614(00)00662-x

Timings for individual modules:

Sum of individual times          ...       10.911 sec (=   0.182 min)
Startup calculation              ...        0.875 sec (=   0.015 min)   8.0 %
SCF iterations                   ...        9.949 sec (=   0.166 min)  91.2 %
Property calculations            ...        0.087 sec (=   0.001 min)   0.8 %
                             ****ORCA TERMINATED NORMALLY****
TOTAL RUN TIME: 0 days 0 hours 0 minutes 11 seconds 515 msec
