
                                 *****************
                                 * O   R   C   A *
                                 *****************

                                            #,                                       
                                            ###                                      
                                            ####                                     
                                            #####                                    
                                            ######                                   
                                           ########,                                 
                                     ,,################,,,,,                         
                               ,,#################################,,                 
                          ,,##########################################,,             
                       ,#########################################, ''#####,          
                    ,#############################################,,   '####,        
                  ,##################################################,,,,####,       
                ,###########''''           ''''###############################       
              ,#####''   ,,,,##########,,,,          '''####'''          '####       
            ,##' ,,,,###########################,,,                        '##       
           ' ,,###''''                  '''############,,,                           
         ,,##''                                '''############,,,,        ,,,,,,###''
      ,#''                                            '''#######################'''  
     '                                                          ''''####''''         
             ,#######,   #######,   ,#######,      ##                                
            ,#'     '#,  ##    ##  ,#'     '#,    #''#        ,####,   ,####,        
            ##       ##  ##   ,#'  ##            #'  '#       #'       #'  '#        
            ##       ##  #######   ##           ,######,      #####,   #    #        
            '#,     ,#'  ##    ##  '#,     ,#' ,#      #,     #,   #   #,  ,#        
             '#######'   ##     ##  '#######'  #'      '#     '####' # '####'        



                #########################################################
                #                        -***-                          #
                #          Department of theory and spectroscopy        #
                #                                                       #
                #                      Frank Neese                      #
                #                                                       #
                #     Directorship, Architecture, Infrastructure        #
                #                    SHARK, DRIVERS                     #
                #        Core code/Algorithms in most modules           #
                #                                                       #
                #        Max Planck Institute fuer Kohlenforschung      #
                #                Kaiser Wilhelm Platz 1                 #
                #                 D-45470 Muelheim/Ruhr                 #
                #                      Germany                          #
                #                                                       #
                #                  All rights reserved                  #
                #                        -***-                          #
                #########################################################


                         Program Version 6.0.0  -   RELEASE  -


 With contributions from (in alphabetic order):
   Daniel Aravena         : Magnetic Suceptibility
   Michael Atanasov       : Ab Initio Ligand Field Theory (pilot matlab implementation)
   Alexander A. Auer      : GIAO ZORA, VPT2 properties, NMR spectrum
   Ute Becker             : All parallelization in ORCA, NUMFREQ, NUMCALC
   Giovanni Bistoni       : ED, misc. LED, open-shell LED, HFLD
   Martin Brehm           : Molecular dynamics
   Dmytro Bykov           : pre 5.0 version of the SCF Hessian
   Marcos Casanova-Páez   : Triplet and SCS-CIS(D). UHF-(DLPNO)-IP/EA/STEOM-CCSD. UHF-CVS-IP/STEOM-CCSD
   Vijay G. Chilkuri      : MRCI spin determinant printing, contributions to CSF-ICE
   Pauline Colinet        : FMM embedding
   Dipayan Datta          : RHF DLPNO-CCSD density
   Achintya Kumar Dutta   : EOM-CC, STEOM-CC
   Nicolas Foglia         : Exact transition moments, OPA infrastructure, MCD improvements
   Dmitry Ganyushin       : Spin-Orbit,Spin-Spin,Magnetic field MRCI
   Miquel Garcia          : C-PCM and meta-GGA Hessian, CCSD/C-PCM, Gaussian charge scheme
   Tiago L. C. Gouveia    : GS-ROHF, GS-ROCIS
   Yang Guo               : DLPNO-NEVPT2, F12-NEVPT2, CIM, IAO-localization
   Andreas Hansen         : Spin unrestricted coupled pair/coupled cluster methods
   Ingolf Harden          : AUTO-CI MPn and infrastructure 
   Benjamin Helmich-Paris : MC-RPA, TRAH-(SCF,CASSCF), AVAS, COSX integrals, SCF dyn. polar.
   Lee Huntington         : MR-EOM, pCC
   Robert Izsak           : Overlap fitted RIJCOSX, COSX-SCS-MP3, EOM
   Riya Kayal             : Wick's Theorem for AUTO-CI, AUTO-CI UHF-CCSDT
   Emily Kempfer          : AUTO-CI, RHF CISDT and CCSDT
   Christian Kollmar      : KDIIS, OOCD, Brueckner-CCSD(T), CCSD density, CASPT2, CASPT2-K, improved NEVPT2
   Axel Koslowski         : Symmetry handling
   Simone Kossmann        : Meta GGA functionals, TD-DFT gradient, OOMP2, (MP2 Hessian; deprecated post 5.0)
   Lucas Lang             : DCDCAS
   Marvin Lechner         : AUTO-CI (C++ implementation), FIC-MRCC
   Spencer Leger          : CASSCF response
   Dagmar Lenk            : GEPOL surface, SMD, ORCA-2-JSON
   Dimitrios Liakos       : Extrapolation schemes; Compound Job, initial MDCI parallelization
   Dimitrios Manganas     : Further ROCIS development; embedding schemes. LFT, Crystal Embedding
   Dimitrios Pantazis     : SARC Basis sets
   Anastasios Papadopoulos: AUTO-CI, single reference methods and gradients
   Taras Petrenko         : pre 6.0 DFT Hessian and TD-DFT gradient, (ASA, deprecated), ECA, 1-Electron XAS/XES, NRVS
   Peter Pinski           : DLPNO-MP2, DLPNO-MP2 Gradient
   Christoph Reimann      : Effective Core Potentials
   Marius Retegan         : Local ZFS, SOC
   Christoph Riplinger    : Optimizer, TS searches, QM/MM, DLPNO-CCSD(T), (RO)-DLPNO pert. Triples
   Michael Roemelt        : Original ROCIS implementation
   Masaaki Saitow         : Open-shell DLPNO-CCSD energy and density
   Barbara Sandhoefer     : DKH picture change effects
   Kantharuban Sivalingam : CASSCF convergence/infrastructure, NEVPT2 and variants, FIC-MRCI
   Bernardo de Souza      : ESD, SOC TD-DFT
   Georgi Stoychev        : AutoAux, RI-MP2 NMR, DLPNO-MP2 response, X2C
   Van Anh Tran           : RI-MP2 g-tensors
   Willem Van den Heuvel  : Paramagnetic NMR
   Zikuan Wang            : NOTCH, Electric field optimization 
   Frank Wennmohs         : Technical directorship and infrastructure
   Hang Xu                : AUTO-CI-Response properties 


 We gratefully acknowledge several colleagues who have allowed us to
 interface, adapt or use parts of their codes:
   Stefan Grimme, W. Hujo, H. Kruse, P. Pracht,  : VdW corrections, initial TS optimization,
                  C. Bannwarth, S. Ehlert,         DFT functionals, gCP, sTDA/sTD-DF
                  L. Wittmann, M. Mueller
   Ed Valeev, F. Pavosevic, A. Kumar             : LibInt (2-el integral package), F12 methods
   Garnet Chan, S. Sharma, J. Yang, R. Olivares  : DMRG
   Ulf Ekstrom                                   : XCFun DFT Library
   Mihaly Kallay                                 : mrcc  (arbitrary order and MRCC methods)
   Frank Weinhold                                : gennbo (NPA and NBO analysis)
   Simon Mueller                                 : openCOSMO-RS
   Christopher J. Cramer and Donald G. Truhlar   : smd solvation model
   Lars Goerigk                                  : TD-DFT with DH, B97 family of functionals
   V. Asgeirsson, H. Jonsson                     : NEB implementation
   FAccTs GmbH                                   : IRC, NEB, NEB-TS, DLPNO-Multilevel, CI-OPT
                                                   MM, QMMM, 2- and 3-layer-ONIOM, Crystal-QMMM,
                                                   LR-CPCM, SF, NACMEs, symmetry and pop. for TD-DFT,
                                                   nearIR, NL-DFT gradient (VV10), updates on ESD,
                                                   ML-optimized integration grids, MBIS, APM,
                                                   GOAT, DOCKER, SOLVATOR, interface openCOSMO-RS
   S Lehtola, MJT Oliveira, MAL Marques          : LibXC Library
   Liviu Ungur et al                             : ANISO software


 Your calculation uses the libint2 library for the computation of 2-el integrals
 For citations please refer to: http://libint.valeyev.net

 Your ORCA version has been built with support for libXC version: 6.2.2
 For citations please refer to: https://libxc.gitlab.io

 This ORCA versions uses:
   CBLAS   interface :  Fast vector & matrix operations
   LAPACKE interface :  Fast linear algebra routines
   SCALAPACK package :  Parallel linear algebra routines
   Shared memory     :  Shared parallel matrices
   BLAS/LAPACK       :  OpenBLAS 0.3.27  USE64BITINT DYNAMIC_ARCH NO_AFFINITY SapphireRapids SINGLE_THREADED
        Core in use  :  SapphireRapids
   Copyright (c) 2011-2014, The OpenBLAS Project


Your calculation utilizes the geometrical counterpoise correction gCP
Please cite in your paper:
H.Kruse, S. Grimme J.Chem.Phys., 136, (2012), 154101 
   

Your calculation utilizes the atom-pairwise dispersion correction
based on EEQ partial charges (D4)


================================================================================

----- Orbital basis set information -----
Your calculation utilizes the basis: def2-SV(P)
   F. Weigend and R. Ahlrichs, Phys. Chem. Chem. Phys. 7, 3297 (2005).

----- AuxJ basis set information -----
Your calculation utilizes the auxiliary basis: def2/J
   F. Weigend, Phys. Chem. Chem. Phys. 8, 1057 (2006).

================================================================================
                                        WARNINGS
                       Please study these warnings very carefully!
================================================================================


================================================================================
                                       INPUT FILE
================================================================================
NAME = sp.inp
|  1> ! pbe def2-sv(p) def2/J RI DEFGRID1 loosescf d4 GCP(DFT/SV(P)) printgap
|  2> %output
|  3>     printlevel normal
|  4> end
|  5> * xyz 0 1
|  6> C -4.3675168728 -1.3576739828 -0.3187249271
|  7> N -3.3390004434 -0.6818171108 0.4395726353
|  8> C -2.2033880097 -0.2388149784 -0.1057267543
|  9> O -1.8737643427 -0.3553403212 -1.2718362173
| 10> O -1.4417574136 0.382931852 0.8357046565
| 11> C -0.1922259892 0.8763409919 0.4366940369
| 12> C -0.0412681233 2.2279824486 0.284907011
| 13> C 1.2067322188 2.7586699379 -0.0719791091
| 14> C 2.2732147666 1.9316739926 -0.2830551374
| 15> C 2.1441588325 0.5348274158 -0.1349970757
| 16> C 0.8891627941 -0.016152733 0.2393025587
| 17> C 0.773688601 -1.411703866 0.4034151379
| 18> C 1.8480909571 -2.2292454969 0.1898460543
| 19> C 3.0862087303 -1.6895927952 -0.1906075453
| 20> C 3.2311564472 -0.339497524 -0.3456951209
| 21> H -5.2936405589 -0.7846166382 -0.2940039624
| 22> H -4.5423155987 -2.3522071176 0.0897369847
| 23> H -4.0212473338 -1.4428769785 -1.3468330104
| 24> H -3.4942880433 -0.5028503361 1.4201740357
| 25> H -0.8887527796 2.8769660185 0.4417387358
| 26> H 1.3069781071 3.8265079548 -0.1854271784
| 27> H 3.2333053485 2.3345409104 -0.567513393
| 28> H -0.1785616579 -1.8273370929 0.6993388022
| 29> H 1.748609291 -3.2966455018 0.3148048622
| 30> H 3.9225464158 -2.3512302085 -0.3564381434
| 31> H 4.1825983884 0.0821896228 -0.6330848818
| 32> *
| 33> 
| 34>                          ****END OF INPUT****
================================================================================

                       ****************************
                       * Single Point Calculation *
                       ****************************

---------------------------------
CARTESIAN COORDINATES (ANGSTROEM)
---------------------------------
  C     -4.367517   -1.357674   -0.318725
  N     -3.339000   -0.681817    0.439573
  C     -2.203388   -0.238815   -0.105727
  O     -1.873764   -0.355340   -1.271836
  O     -1.441757    0.382932    0.835705
  C     -0.192226    0.876341    0.436694
  C     -0.041268    2.227982    0.284907
  C      1.206732    2.758670   -0.071979
  C      2.273215    1.931674   -0.283055
  C      2.144159    0.534827   -0.134997
  C      0.889163   -0.016153    0.239303
  C      0.773689   -1.411704    0.403415
  C      1.848091   -2.229245    0.189846
  C      3.086209   -1.689593   -0.190608
  C      3.231156   -0.339498   -0.345695
  H     -5.293641   -0.784617   -0.294004
  H     -4.542316   -2.352207    0.089737
  H     -4.021247   -1.442877   -1.346833
  H     -3.494288   -0.502850    1.420174
  H     -0.888753    2.876966    0.441739
  H      1.306978    3.826508   -0.185427
  H      3.233305    2.334541   -0.567513
  H     -0.178562   -1.827337    0.699339
  H      1.748609   -3.296646    0.314805
  H      3.922546   -2.351230   -0.356438
  H      4.182598    0.082190   -0.633085

----------------------------
CARTESIAN COORDINATES (A.U.)
----------------------------
  NO LB      ZA    FRAG     MASS         X           Y           Z
   0 C     6.0000    0    12.011   -8.253411   -2.565632   -0.602303
   1 N     7.0000    0    14.007   -6.309796   -1.288448    0.830672
   2 C     6.0000    0    12.011   -4.163800   -0.451295   -0.199795
   3 O     8.0000    0    15.999   -3.540901   -0.671496   -2.403422
   4 O     8.0000    0    15.999   -2.724527    0.723636    1.579253
   5 C     6.0000    0    12.011   -0.363254    1.656044    0.825232
   6 C     6.0000    0    12.011   -0.077985    4.210277    0.538396
   7 C     6.0000    0    12.011    2.280393    5.213131   -0.136021
   8 C     6.0000    0    12.011    4.295753    3.650335   -0.534897
   9 C     6.0000    0    12.011    4.051873    1.010677   -0.255108
  10 C     6.0000    0    12.011    1.680274   -0.030524    0.452216
  11 C     6.0000    0    12.011    1.462060   -2.667734    0.762344
  12 C     6.0000    0    12.011    3.492386   -4.212663    0.358757
  13 C     6.0000    0    12.011    5.832089   -3.192868   -0.360196
  14 C     6.0000    0    12.011    6.106001   -0.641557   -0.653269
  15 H     1.0000    0     1.008  -10.003531   -1.482711   -0.555587
  16 H     1.0000    0     1.008   -8.583732   -4.445027    0.169578
  17 H     1.0000    0     1.008   -7.599056   -2.726642   -2.545146
  18 H     1.0000    0     1.008   -6.603247   -0.950249    2.683740
  19 H     1.0000    0     1.008   -1.679499    5.436678    0.834765
  20 H     1.0000    0     1.008    2.469831    7.231052   -0.350407
  21 H     1.0000    0     1.008    6.110062    4.411643   -1.072445
  22 H     1.0000    0     1.008   -0.337433   -3.453167    1.321559
  23 H     1.0000    0     1.008    3.304393   -6.229757    0.594895
  24 H     1.0000    0     1.008    7.412538   -4.443181   -0.673570
  25 H     1.0000    0     1.008    7.903965    0.155316   -1.196357

--------------------------------
INTERNAL COORDINATES (ANGSTROEM)
--------------------------------
 C      0   0   0     0.000000000000     0.00000000     0.00000000
 N      1   0   0     1.445560012631     0.00000000     0.00000000
 C      2   1   0     1.335371825816   123.09041424     0.00000000
 O      3   2   1     1.217391143823   126.13245086   358.76671569
 O      3   2   1     1.361228631520   110.17735889   178.50378547
 C      5   3   2     1.401424573230   117.56627768   178.23625636
 C      6   5   3     1.368489022966   118.53373229   106.03203323
 C      7   6   5     1.402320137451   120.01156718   177.97988104
 C      8   7   6     1.365965009811   120.33435235     0.66395194
 C      9   8   7     1.410587460202   120.78920441   359.41761573
 C      6   5   3     1.415948496697   119.91513390   284.14658212
 C     11   6   5     1.409904320421   123.03294511     1.11998247
 C     12  11   6     1.366867401951   120.62783424   179.49250208
 C     13  12  11     1.403176966820   120.39135206     0.30302837
 C     14  13  12     1.366681834977   120.28331122     0.28628115
 H      1   2   3     1.089362624772   110.30580820   242.05115659
 H      1   2   3     1.089262082413   110.14206036   120.94685501
 H      1   2   3     1.088195007828   107.80683281     1.52016105
 H      2   1   3     1.008822309228   118.90227329   177.67047900
 H      7   6   5     1.078891146765   119.42933199   357.95843213
 H      8   7   6     1.078516449984   118.95863755   180.10054665
 H      9   8   7     1.079348033810   120.61295012   179.38589205
 H     12  11   6     1.080325113089   119.00526134   359.60122064
 H     13  12  11     1.079284057152   120.06523603   180.21168398
 H     14  13  12     1.079224062988   119.31858871   180.10972700
 H     15  14  13     1.079654894826   120.63087820   179.66928480

---------------------------
INTERNAL COORDINATES (A.U.)
---------------------------
 C      0   0   0     0.000000000000     0.00000000     0.00000000
 N      1   0   0     2.731712534020     0.00000000     0.00000000
 C      2   1   0     2.523487037747   123.09041424     0.00000000
 O      3   2   1     2.300535859687   126.13245086   358.76671569
 O      3   2   1     2.572349319225   110.17735889   178.50378547
 C      5   3   2     2.648308640753   117.56627768   178.23625636
 C      6   5   3     2.586069470683   118.53373229   106.03203323
 C      7   6   5     2.650001011866   120.01156718   177.97988104
 C      8   7   6     2.581299777062   120.33435235     0.66395194
 C      9   8   7     2.665623987725   120.78920441   359.41761573
 C      6   5   3     2.675754878495   119.91513390   284.14658212
 C     11   6   5     2.664333040628   123.03294511     1.11998247
 C     12  11   6     2.583005051073   120.62783424   179.49250208
 C     13  12  11     2.651620184716   120.39135206     0.30302837
 C     14  13  12     2.582654380312   120.28331122     0.28628115
 H      1   2   3     2.058597021350   110.30580820   242.05115659
 H      1   2   3     2.058407023825   110.14206036   120.94685501
 H      1   2   3     2.056390545096   107.80683281     1.52016105
 H      2   1   3     1.906397882231   118.90227329   177.67047900
 H      7   6   5     2.038808795698   119.42933199   357.95843213
 H      8   7   6     2.038100721399   118.95863755   180.10054665
 H      9   8   7     2.039672187087   120.61295012   179.38589205
 H     12  11   6     2.041518599336   119.00526134   359.60122064
 H     13  12  11     2.039551288725   120.06523603   180.21168398
 H     14  13  12     2.039437916185   119.31858871   180.10972700
 H     15  14  13     2.040252070368   120.63087820   179.66928480

---------------------
BASIS SET INFORMATION
---------------------
There are 4 groups of distinct atoms

 Group   1 Type C   : 7s4p1d contracted to 3s2p1d pattern {511/31/1}
 Group   2 Type N   : 7s4p1d contracted to 3s2p1d pattern {511/31/1}
 Group   3 Type O   : 7s4p1d contracted to 3s2p1d pattern {511/31/1}
 Group   4 Type H   : 4s contracted to 2s pattern {31}

Atom   0C    basis set group =>   1
Atom   1N    basis set group =>   2
Atom   2C    basis set group =>   1
Atom   3O    basis set group =>   3
Atom   4O    basis set group =>   3
Atom   5C    basis set group =>   1
Atom   6C    basis set group =>   1
Atom   7C    basis set group =>   1
Atom   8C    basis set group =>   1
Atom   9C    basis set group =>   1
Atom  10C    basis set group =>   1
Atom  11C    basis set group =>   1
Atom  12C    basis set group =>   1
Atom  13C    basis set group =>   1
Atom  14C    basis set group =>   1
Atom  15H    basis set group =>   4
Atom  16H    basis set group =>   4
Atom  17H    basis set group =>   4
Atom  18H    basis set group =>   4
Atom  19H    basis set group =>   4
Atom  20H    basis set group =>   4
Atom  21H    basis set group =>   4
Atom  22H    basis set group =>   4
Atom  23H    basis set group =>   4
Atom  24H    basis set group =>   4
Atom  25H    basis set group =>   4
---------------------------------
AUXILIARY/J BASIS SET INFORMATION
---------------------------------
There are 4 groups of distinct atoms

 Group   1 Type C   : 12s5p4d2f1g contracted to 6s4p3d1f1g pattern {711111/2111/211/2/1}
 Group   2 Type N   : 12s5p4d2f1g contracted to 6s4p3d1f1g pattern {711111/2111/211/2/1}
 Group   3 Type O   : 12s5p4d2f1g contracted to 6s4p3d1f1g pattern {711111/2111/211/2/1}
 Group   4 Type H   : 5s2p1d contracted to 3s1p1d pattern {311/2/1}

Atom   0C    basis set group =>   1
Atom   1N    basis set group =>   2
Atom   2C    basis set group =>   1
Atom   3O    basis set group =>   3
Atom   4O    basis set group =>   3
Atom   5C    basis set group =>   1
Atom   6C    basis set group =>   1
Atom   7C    basis set group =>   1
Atom   8C    basis set group =>   1
Atom   9C    basis set group =>   1
Atom  10C    basis set group =>   1
Atom  11C    basis set group =>   1
Atom  12C    basis set group =>   1
Atom  13C    basis set group =>   1
Atom  14C    basis set group =>   1
Atom  15H    basis set group =>   4
Atom  16H    basis set group =>   4
Atom  17H    basis set group =>   4
Atom  18H    basis set group =>   4
Atom  19H    basis set group =>   4
Atom  20H    basis set group =>   4
Atom  21H    basis set group =>   4
Atom  22H    basis set group =>   4
Atom  23H    basis set group =>   4
Atom  24H    basis set group =>   4
Atom  25H    basis set group =>   4
------------------------------------------------------------------------------
                             ORCA STARTUP CALCULATIONS
                           -- RI-GTO INTEGRALS CHOSEN --
------------------------------------------------------------------------------
------------------------------------------------------------------------------
                   ___                                                        
                  /   \      - P O W E R E D   B Y -                         
                 /     \                                                     
                 |  |  |   _    _      __       _____    __    __             
                 |  |  |  | |  | |    /  \     |  _  \  |  |  /  |          
                  \  \/   | |  | |   /    \    | | | |  |  | /  /          
                 / \  \   | |__| |  /  /\  \   | |_| |  |  |/  /          
                |  |  |   |  __  | /  /__\  \  |    /   |      \           
                |  |  |   | |  | | |   __   |  |    \   |  |\   \          
                \     /   | |  | | |  |  |  |  | |\  \  |  | \   \       
                 \___/    |_|  |_| |__|  |__|  |_| \__\ |__|  \__/        
                                                                              
                      - O R C A' S   B I G   F R I E N D -                    
                                      &                                       
                       - I N T E G R A L  F E E D E R -                       
                                                                              
 v1 FN, 2020, v2 2021, v3 2022-2024                                           
------------------------------------------------------------------------------


----------------------
SHARK INTEGRAL PACKAGE
----------------------

Number of atoms                             ...     26
Number of basis functions                   ...    232
Number of shells                            ...    112
Maximum angular momentum                    ...      2
Integral batch strategy                     ... SHARK/LIBINT Hybrid
RI-J (if used) integral strategy            ... SPLIT-RIJ (Revised 2003 algorithm where possible)
Printlevel                                  ...      1
Contraction scheme used                     ... SEGMENTED contraction
Prescreening option                         ... SCHWARTZ
   Thresh                                   ... 1.000e-09
   Tcut                                     ... 1.000e-10
   Tpresel                                  ... 1.000e-10 
Coulomb Range Separation                    ... NOT USED
Exchange Range Separation                   ... NOT USED
Multipole approximations                    ... NOT USED
Finite Nucleus Model                        ... NOT USED
CABS basis                                  ... NOT available
Auxiliary Coulomb fitting basis             ... AVAILABLE
   # of basis functions in Aux-J            ...    856
   # of shells in Aux-J                     ...    280
   Maximum angular momentum in Aux-J        ...      4
Auxiliary J/K fitting basis                 ... NOT available
Auxiliary Correlation fitting basis         ... NOT available
Auxiliary 'external' fitting basis          ... NOT available

Checking pre-screening integrals            ... done (  0.0 sec) Dimension = 112
Check shell pair data                       ... done (  0.0 sec)
Shell pair information
Shell pair cut-off parameter TPreSel        ...   1.0e-10
Total number of shell pairs                 ...      6328
Shell pairs after pre-screening             ...      5278
Total number of primitive shell pairs       ...     25428
Primitive shell pairs kept                  ...     13560
          la=0 lb=0:   1824 shell pairs
          la=1 lb=0:   1770 shell pairs
          la=1 lb=1:    442 shell pairs
          la=2 lb=0:    765 shell pairs
          la=2 lb=1:    392 shell pairs
          la=2 lb=2:     85 shell pairs

Calculating one electron integrals          ... done (  0.0 sec)
Calculating RI/J V-Matrix + Cholesky decomp.... done (  0.1 sec)
Calculating Nuclear repulsion               ... done (  0.0 sec) ENN=    942.342087724559 Eh

Diagonalization of the overlap matrix:
Smallest eigenvalue                        ... 2.246e-04
Time for diagonalization                   ...    0.004 sec
Threshold for overlap eigenvalues          ... 1.000e-07
Number of eigenvalues below threshold      ... 0
Time for construction of square roots      ...    0.018 sec
Total time needed                          ...    0.031 sec

-------------------
DFT GRID GENERATION
-------------------

General Integration Accuracy     IntAcc      ... 4.159
Radial Grid Type                 RadialGrid  ... OptM3 with GC (2021)
Angular Grid (max. ang.)         AngularGrid ... 3 (Lebedev-194)
Angular grid pruning method      GridPruning ... 4 (adaptive)
Weight generation scheme         WeightScheme... mBecke (2022)
Basis function cutoff            BFCut       ... 1.0000e-10
Integration weight cutoff        WCut        ... 1.0000e-14
Partially contracted basis set               ... off
Rotationally invariant grid construction     ... off
Angular grids for H and He will be reduced by one unit

Total number of grid points                  ...    64288
Total number of batches                      ...     1016
Average number of points per batch           ...       63
Average number of grid points per atom       ...     2473
Initializing property integral containers    ... done (  0.0 sec)

SHARK setup successfully completed in   0.9 seconds

Maximum memory used throughout the entire STARTUP-calculation: 33.0 MB
-------------------------------------------------------------------------------
                                 ORCA GUESS
                   Start orbitals & Density for SCF / CASSCF
-------------------------------------------------------------------------------

------------
SCF SETTINGS
------------
Hamiltonian:
 Density Functional     Method          .... DFT(GTOs)
 Exchange Functional    Exchange        .... PBE
   PBE kappa parameter   XKappa         ....  0.804000
   PBE mue parameter    XMuePBE         ....  0.219520
 Correlation Functional Correlation     .... PBE
   PBE beta parameter  CBetaPBE         ....  0.066725
 LDA part of GGA corr.  LDAOpt          .... PW91-LDA
 Gradients option       PostSCFGGA      .... off
   NL short-range parameter             ....  6.400000
 RI-approximation to the Coulomb term is turned on
   Number of AuxJ basis functions       .... 856


General Settings:
 Integral files         IntName         .... sp
 Hartree-Fock type      HFTyp           .... RHF
 Total Charge           Charge          ....    0
 Multiplicity           Mult            ....    1
 Number of Electrons    NEL             ....  106
 Basis Dimension        Dim             ....  232
 Nuclear Repulsion      ENuc            ....    942.3420877246 Eh

Convergence Acceleration:
 AO-DIIS                CNVDIIS         .... on
   Start iteration      DIISMaxIt       ....    12
   Startup error        DIISStart       ....  0.200000
   # of expansion vecs  DIISMaxEq       ....     5
   Bias factor          DIISBfac        ....   1.050
   Max. coefficient     DIISMaxC        ....  10.000
 MO-DIIS                CNVKDIIS        .... off
 Trust-Rad. Augm. Hess. CNVTRAH         .... auto
   Auto Start mean grad. ratio tolernc. ....  1.125000
   Auto Start start iteration           ....    50
   Auto Start num. interpolation iter.  ....    10
   Max. Number of Micro iterations      ....    24
   Max. Number of Macro iterations      .... Maxiter - #DIIS iter
   Number of Davidson start vectors     ....     2
   Converg. threshold    (grad. norm)   ....   1.000e-04
   Grad. Scal. Fac. for Micro threshold ....   0.100
   Minimum threshold for Micro iter.    ....   1.000e-02
   NR start threshold (gradient norm)   ....   1.000e-04
   Initial trust radius                 ....   0.400
   Minimum AH scaling param. (alpha)    ....   1.000
   Maximum AH scaling param. (alpha)    .... 1000.000
   Quad. conv. algorithm                .... NR
   White noise on init. David. guess    .... on
   Maximum white noise                  ....   0.010
   Pseudo random numbers                .... off
   Inactive MOs                         .... canonical
   Orbital update algorithm             .... Taylor
   Preconditioner                       .... Diag
   Full preconditioner red. dimension   ....   250
 SOSCF                  CNVSOSCF        .... on
   Start iteration      SOSCFMaxIt      ....   150
   Startup grad/error   SOSCFStart      ....  0.003300
   Hessian update       SOSCFHessUp     .... L-BFGS
 Level Shifting         CNVShift        .... on
   Level shift para.    LevelShift      ....    0.2500
   Turn off err/grad.   ShiftErr        ....    0.0010
 Zerner damping         CNVZerner       .... off
 Static damping         CNVDamp         .... on
   Fraction old density DampFac         ....    0.7000
   Max. Damping (<1)    DampMax         ....    0.9800
   Min. Damping (>=0)   DampMin         ....    0.0000
   Turn off err/grad.   DampErr         ....    0.1000

SCF Procedure:
 Maximum # iterations   MaxIter         ....   125
 SCF integral mode      SCFMode         .... Direct
   Integral package                     .... SHARK and LIBINT hybrid scheme
 Reset frequency        DirectResetFreq ....    20
 Integral Threshold     Thresh          ....  1.000e-09 Eh
 Primitive CutOff       TCut            ....  1.000e-10 Eh

Convergence Tolerance:
 Convergence Check Mode ConvCheckMode   .... Total+1el-Energy
 Convergence forced     ConvForced      .... 0
 Energy Change          TolE            ....  1.000e-05 Eh
 1-El. energy change                    ....  1.000e-02 Eh
 Orbital Gradient       TolG            ....  1.000e-04
 Orbital Rotation angle TolX            ....  1.000e-04
 DIIS Error             TolErr          ....  5.000e-04

------------------------------
INITIAL GUESS: MODEL POTENTIAL
------------------------------
Loading Hartree-Fock densities                     ... done
Calculating cut-offs                               ... done
Initializing the effective Hamiltonian             ... done
Setting up the integral package (SHARK)            ... done
Starting the Coulomb interaction                   ... done (   0.2 sec)
Making the grid                                    ... done (   0.3 sec)
Mapping shells                                     ... done
Starting the XC term evaluation                    ... done (   0.2 sec)
  promolecular density results
     # of electrons  =    105.999721354
     EX              =    -87.545062957
     EC              =     -3.557767021
     EX+EC           =    -91.102829978
Transforming the Hamiltonian                       ... done (   0.0 sec)
Diagonalizing the Hamiltonian                      ... done (   0.0 sec)
Back transforming the eigenvectors                 ... done (   0.0 sec)
Now organizing SCF variables                       ... done
                      ------------------
                      INITIAL GUESS DONE (   0.8 sec)
                      ------------------
             **** ENERGY FILE WAS UPDATED (sp.en.tmp) ****
Finished Guess after   1.0 sec
Maximum memory used throughout the entire GUESS-calculation: 25.9 MB

-------------------------------------------------------------------------------------------
                                      ORCA LEAN-SCF
                              memory conserving SCF solver
-------------------------------------------------------------------------------------------

----------------------------------------D-I-I-S--------------------------------------------
Iteration    Energy (Eh)           Delta-E    RMSDP     MaxDP     DIISErr   Damp  Time(sec)
-------------------------------------------------------------------------------------------
               ***  Starting incremental Fock matrix formation  ***
    1    -667.4911735615262387     0.00e+00  3.61e-03  1.09e-01  2.65e-01  0.700   1.2
    2    -667.6495194041001469    -1.58e-01  2.23e-03  5.21e-02  7.83e-02  0.700   1.2
                               ***Turning on AO-DIIS***
    3    -667.7003340671749356    -5.08e-02  9.41e-04  1.25e-02  2.66e-02  0.700   1.1
    4    -667.7339662821118509    -3.36e-02  1.56e-03  2.83e-02  1.55e-02  0.000   1.1
    5    -667.8100594303250546    -7.61e-02  4.19e-04  9.33e-03  6.45e-03  0.000   1.1
                              *** Initializing SOSCF ***
---------------------------------------S-O-S-C-F--------------------------------------
Iteration    Energy (Eh)           Delta-E    RMSDP     MaxDP     MaxGrad    Time(sec)
--------------------------------------------------------------------------------------
    6    -667.8107841801588620    -7.25e-04  1.58e-04  4.51e-03  3.22e-03     1.1
               *** Restarting incremental Fock matrix formation ***
    7    -667.8108557775101417    -7.16e-05  8.67e-05  2.22e-03  1.60e-04     1.2
    8    -667.8108551245634317     6.53e-07  4.56e-05  1.33e-03  5.22e-04     1.0
                 **** Energy Check signals convergence ****

               *****************************************************
               *                     SUCCESS                       *
               *           SCF CONVERGED AFTER   8 CYCLES          *
               *****************************************************

             **** ENERGY FILE WAS UPDATED (sp.en.tmp) ****

----------------
TOTAL SCF ENERGY
----------------

Total Energy       :       -667.81085512456343 Eh          -18172.05722 eV

Components:
Nuclear Repulsion  :        942.34208772455895 Eh           25642.43184 eV
Electronic Energy  :      -1610.15294284912238 Eh          -43814.48906 eV
One Electron Energy:      -2777.48546814678593 Eh          -75579.22196 eV
Two Electron Energy:       1167.33252529766355 Eh           31764.73290 eV

Virial components:
Potential Energy   :      -1330.08256480151613 Eh          -36193.38662 eV
Kinetic Energy     :        662.27170967695270 Eh           18021.32941 eV
Virial Ratio       :          2.00836385635484

DFT components:
N(Alpha)           :       53.000012159631 electrons
N(Beta)            :       53.000012159631 electrons
N(Total)           :      106.000024319262 electrons
E(X)               :      -88.959812287489 Eh       
E(C)               :       -3.576829372114 Eh       
E(XC)              :      -92.536641659603 Eh       

---------------
SCF CONVERGENCE
---------------

  Last Energy change         ...   -6.5295e-07  Tolerance :   1.0000e-05
  Last MAX-Density change    ...    1.3321e-03  Tolerance :   1.0000e-03
  Last RMS-Density change    ...    4.5582e-05  Tolerance :   1.0000e-04
  Last DIIS Error            ...    3.2237e-03  Tolerance :   5.0000e-04
  Last Orbital Gradient      ...    5.2236e-04  Tolerance :   1.0000e-04
  Last Orbital Rotation      ...    1.8199e-03  Tolerance :   1.0000e-04


----------------
ORBITAL ENERGIES
----------------

  NO   OCC          E(Eh)            E(eV) 
   0   2.0000     -18.800939      -511.5996 
   1   2.0000     -18.715358      -509.2708 
   2   2.0000     -14.024712      -381.6318 
   3   2.0000     -10.022018      -272.7130 
   4   2.0000      -9.952440      -270.8197 
   5   2.0000      -9.924285      -270.0535 
   6   2.0000      -9.904155      -269.5058 
   7   2.0000      -9.902898      -269.4716 
   8   2.0000      -9.895825      -269.2791 
   9   2.0000      -9.894039      -269.2305 
  10   2.0000      -9.893606      -269.2187 
  11   2.0000      -9.893159      -269.2066 
  12   2.0000      -9.893123      -269.2056 
  13   2.0000      -9.892955      -269.2010 
  14   2.0000      -9.892716      -269.1945 
  15   2.0000      -1.007672       -27.4201 
  16   2.0000      -0.909306       -24.7435 
  17   2.0000      -0.847339       -23.0573 
  18   2.0000      -0.793902       -21.6032 
  19   2.0000      -0.745816       -20.2947 
  20   2.0000      -0.699542       -19.0355 
  21   2.0000      -0.669456       -18.2168 
  22   2.0000      -0.663812       -18.0632 
  23   2.0000      -0.635541       -17.2940 
  24   2.0000      -0.572319       -15.5736 
  25   2.0000      -0.557018       -15.1572 
  26   2.0000      -0.553062       -15.0496 
  27   2.0000      -0.532056       -14.4780 
  28   2.0000      -0.503614       -13.7040 
  29   2.0000      -0.464321       -12.6348 
  30   2.0000      -0.450305       -12.2534 
  31   2.0000      -0.440895       -11.9974 
  32   2.0000      -0.434103       -11.8126 
  33   2.0000      -0.422317       -11.4918 
  34   2.0000      -0.402221       -10.9450 
  35   2.0000      -0.393543       -10.7089 
  36   2.0000      -0.382286       -10.4025 
  37   2.0000      -0.379609       -10.3297 
  38   2.0000      -0.369424       -10.0525 
  39   2.0000      -0.364264        -9.9121 
  40   2.0000      -0.353709        -9.6249 
  41   2.0000      -0.352438        -9.5903 
  42   2.0000      -0.339023        -9.2253 
  43   2.0000      -0.331568        -9.0224 
  44   2.0000      -0.303817        -8.2673 
  45   2.0000      -0.298055        -8.1105 
  46   2.0000      -0.293828        -7.9955 
  47   2.0000      -0.262207        -7.1350 
  48   2.0000      -0.247372        -6.7313 
  49   2.0000      -0.227140        -6.1808 
  50   2.0000      -0.219692        -5.9781 
  51   2.0000      -0.219310        -5.9677 
  52   2.0000      -0.193831        -5.2744 
  53   0.0000      -0.068420        -1.8618 
  54   0.0000      -0.039777        -1.0824 
  55   0.0000      -0.002532        -0.0689 
  56   0.0000       0.026285         0.7152 
  57   0.0000       0.031351         0.8531 
  58   0.0000       0.047146         1.2829 
  59   0.0000       0.056299         1.5320 
  60   0.0000       0.058820         1.6006 
  61   0.0000       0.071717         1.9515 
  62   0.0000       0.078105         2.1253 
  63   0.0000       0.096739         2.6324 
*Only the first 10 virtual orbitals were printed.

                    ********************************
                    * MULLIKEN POPULATION ANALYSIS *
                    ********************************

-----------------------
MULLIKEN ATOMIC CHARGES
-----------------------
   0 C :   -0.173977
   1 N :   -0.283131
   2 C :    0.187619
   3 O :   -0.231119
   4 O :   -0.264604
   5 C :    0.180732
   6 C :   -0.118123
   7 C :   -0.040999
   8 C :   -0.110002
   9 C :    0.130166
  10 C :    0.129109
  11 C :   -0.125205
  12 C :   -0.041567
  13 C :   -0.035745
  14 C :   -0.131345
  15 H :    0.115141
  16 H :    0.114739
  17 H :    0.141939
  18 H :    0.232196
  19 H :    0.038349
  20 H :    0.054557
  21 H :    0.037661
  22 H :    0.049786
  23 H :    0.051445
  24 H :    0.052753
  25 H :    0.039623
Sum of atomic charges:   -0.0000000

--------------------------------
MULLIKEN REDUCED ORBITAL CHARGES
--------------------------------
  0 C s       :     3.093249  s :     3.093249
      pz      :     1.061022  p :     3.038897
      px      :     0.959115
      py      :     1.018760
      dz2     :     0.008212  d :     0.041832
      dxz     :     0.007734
      dyz     :     0.005373
      dx2y2   :     0.010248
      dxy     :     0.010264

  1 N s       :     3.365746  s :     3.365746
      pz      :     1.126060  p :     3.894993
      px      :     1.215202
      py      :     1.553731
      dz2     :     0.007630  d :     0.022392
      dxz     :     0.004027
      dyz     :     0.002349
      dx2y2   :     0.004430
      dxy     :     0.003956

  2 C s       :     2.969827  s :     2.969827
      pz      :     0.907498  p :     2.691106
      px      :     0.896756
      py      :     0.886852
      dz2     :     0.031277  d :     0.151449
      dxz     :     0.049002
      dyz     :     0.036949
      dx2y2   :     0.018300
      dxy     :     0.015922

  3 O s       :     3.748998  s :     3.748998
      pz      :     1.310425  p :     4.464428
      px      :     1.629647
      py      :     1.524356
      dz2     :     0.007305  d :     0.017693
      dxz     :     0.004725
      dyz     :     0.004737
      dx2y2   :     0.000397
      dxy     :     0.000529

  4 O s       :     3.706793  s :     3.706793
      pz      :     1.566430  p :     4.542375
      px      :     1.330852
      py      :     1.645094
      dz2     :     0.002803  d :     0.015435
      dxz     :     0.004820
      dyz     :     0.003113
      dx2y2   :     0.002590
      dxy     :     0.002110

  5 C s       :     2.995169  s :     2.995169
      pz      :     0.983101  p :     2.757508
      px      :     0.863799
      py      :     0.910607
      dz2     :     0.005354  d :     0.066591
      dxz     :     0.010593
      dyz     :     0.009437
      dx2y2   :     0.020763
      dxy     :     0.020443

  6 C s       :     3.308113  s :     3.308113
      pz      :     1.008132  p :     2.776713
      px      :     0.787843
      py      :     0.980737
      dz2     :     0.003663  d :     0.033297
      dxz     :     0.003772
      dyz     :     0.005566
      dx2y2   :     0.009196
      dxy     :     0.011101

  7 C s       :     3.182896  s :     3.182896
      pz      :     0.993826  p :     2.822665
      px      :     0.974316
      py      :     0.854522
      dz2     :     0.003797  d :     0.035438
      dxz     :     0.006642
      dyz     :     0.002663
      dx2y2   :     0.013626
      dxy     :     0.008709

  8 C s       :     3.275210  s :     3.275210
      pz      :     0.990040  p :     2.800236
      px      :     0.810980
      py      :     0.999216
      dz2     :     0.002891  d :     0.034556
      dxz     :     0.003862
      dyz     :     0.006032
      dx2y2   :     0.011425
      dxy     :     0.010347

  9 C s       :     3.032344  s :     3.032344
      pz      :     0.972200  p :     2.796351
      px      :     0.985722
      py      :     0.838429
      dz2     :     0.003474  d :     0.041139
      dxz     :     0.005864
      dyz     :     0.007157
      dx2y2   :     0.012331
      dxy     :     0.012313

 10 C s       :     3.067896  s :     3.067896
      pz      :     0.993534  p :     2.763786
      px      :     0.955598
      py      :     0.814654
      dz2     :     0.003514  d :     0.039209
      dxz     :     0.005520
      dyz     :     0.007235
      dx2y2   :     0.010294
      dxy     :     0.012645

 11 C s       :     3.284065  s :     3.284065
      pz      :     0.968572  p :     2.806665
      px      :     0.819084
      py      :     1.019009
      dz2     :     0.002861  d :     0.034474
      dxz     :     0.004020
      dyz     :     0.006007
      dx2y2   :     0.011397
      dxy     :     0.010189

 12 C s       :     3.182965  s :     3.182965
      pz      :     0.992418  p :     2.823450
      px      :     0.980994
      py      :     0.850038
      dz2     :     0.003727  d :     0.035152
      dxz     :     0.006300
      dyz     :     0.002748
      dx2y2   :     0.013634
      dxy     :     0.008742

 13 C s       :     3.178055  s :     3.178055
      pz      :     0.987384  p :     2.822561
      px      :     0.895601
      py      :     0.939575
      dz2     :     0.003551  d :     0.035129
      dxz     :     0.003745
      dyz     :     0.005514
      dx2y2   :     0.008840
      dxy     :     0.013480

 14 C s       :     3.281333  s :     3.281333
      pz      :     0.986218  p :     2.815492
      px      :     0.882654
      py      :     0.946620
      dz2     :     0.002834  d :     0.034519
      dxz     :     0.003295
      dyz     :     0.006608
      dx2y2   :     0.010061
      dxy     :     0.011722

 15 H s       :     0.884859  s :     0.884859

 16 H s       :     0.885261  s :     0.885261

 17 H s       :     0.858061  s :     0.858061

 18 H s       :     0.767804  s :     0.767804

 19 H s       :     0.961651  s :     0.961651

 20 H s       :     0.945443  s :     0.945443

 21 H s       :     0.962339  s :     0.962339

 22 H s       :     0.950214  s :     0.950214

 23 H s       :     0.948555  s :     0.948555

 24 H s       :     0.947247  s :     0.947247

 25 H s       :     0.960377  s :     0.960377


------------------------
MULLIKEN OVERLAP CHARGES
------------------------
B(  0-C ,  1-N ) :   0.7057 B(  0-C ,  2-C ) :  -0.0620 B(  0-C , 15-H ) :   0.7809 
B(  0-C , 16-H ) :   0.7797 B(  0-C , 17-H ) :   0.7323 B(  0-C , 18-H ) :  -0.0545 
B(  1-N ,  2-C ) :   0.7080 B(  1-N ,  3-O ) :  -0.1902 B(  1-N ,  4-O ) :  -0.2276 
B(  1-N , 15-H ) :  -0.0643 B(  1-N , 16-H ) :  -0.0668 B(  1-N , 17-H ) :  -0.0569 
B(  1-N , 18-H ) :   0.5859 B(  2-C ,  3-O ) :   1.3836 B(  2-C ,  4-O ) :   0.6216 
B(  2-C ,  5-C ) :  -0.0665 B(  3-O ,  4-O ) :  -0.1618 B(  3-O , 17-H ) :   0.0591 
B(  4-O ,  5-C ) :   0.6623 B(  4-O ,  6-C ) :  -0.1329 B(  4-O , 10-C ) :  -0.1845 
B(  5-C ,  6-C ) :   0.3787 B(  5-C ,  7-C ) :   0.4555 B(  5-C ,  8-C ) :  -0.4377 
B(  5-C ,  9-C ) :   0.1682 B(  5-C , 10-C ) :   0.1307 B(  5-C , 11-C ) :  -0.3065 
B(  5-C , 14-C ) :   0.0618 B(  5-C , 19-H ) :  -0.1673 B(  5-C , 22-H ) :  -0.0716 
B(  6-C ,  8-C ) :   0.4021 B(  6-C ,  9-C ) :  -0.3789 B(  6-C , 10-C ) :   0.2113 
B(  6-C , 11-C ) :   0.0529 B(  6-C , 19-H ) :   0.8652 B(  6-C , 20-H ) :  -0.1769 
B(  7-C ,  8-C ) :   0.1963 B(  7-C ,  9-C ) :   0.3952 B(  7-C , 10-C ) :  -0.3659 
B(  7-C , 19-H ) :  -0.1933 B(  7-C , 20-H ) :   0.8883 B(  7-C , 21-H ) :  -0.1900 
B(  8-C ,  9-C ) :   0.3205 B(  8-C , 10-C ) :   0.1141 B(  8-C , 11-C ) :   0.0560 
B(  8-C , 14-C ) :  -0.3154 B(  8-C , 20-H ) :  -0.1801 B(  8-C , 21-H ) :   0.8816 
B(  9-C , 10-C ) :  -0.1061 B(  9-C , 11-C ) :   0.0760 B(  9-C , 12-C ) :  -0.3611 
B(  9-C , 13-C ) :   0.3373 B(  9-C , 14-C ) :   0.3938 B(  9-C , 21-H ) :  -0.1601 
B(  9-C , 25-H ) :  -0.1619 B( 10-C , 11-C ) :   0.3611 B( 10-C , 12-C ) :   0.3177 
B( 10-C , 13-C ) :  -0.3557 B( 10-C , 14-C ) :   0.0841 B( 10-C , 19-H ) :   0.0501 
B( 10-C , 22-H ) :  -0.1292 B( 11-C , 12-C ) :   0.2914 B( 11-C , 13-C ) :   0.3512 
B( 11-C , 14-C ) :  -0.3770 B( 11-C , 22-H ) :   0.8444 B( 11-C , 23-H ) :  -0.1727 
B( 12-C , 13-C ) :   0.1829 B( 12-C , 14-C ) :   0.3629 B( 12-C , 22-H ) :  -0.1687 
B( 12-C , 23-H ) :   0.8823 B( 12-C , 24-H ) :  -0.1784 B( 13-C , 14-C ) :   0.3025 
B( 13-C , 23-H ) :  -0.1786 B( 13-C , 24-H ) :   0.8826 B( 13-C , 25-H ) :  -0.1873 
B( 14-C , 24-H ) :  -0.1766 B( 14-C , 25-H ) :   0.8795 B( 15-H , 16-H ) :  -0.0665 



                     *******************************
                     * LOEWDIN POPULATION ANALYSIS *
                     *******************************

----------------------
LOEWDIN ATOMIC CHARGES
----------------------
   0 C :   -0.255862
   1 N :   -0.170882
   2 C :    0.026084
   3 O :   -0.206166
   4 O :   -0.069991
   5 C :    0.055131
   6 C :   -0.132124
   7 C :   -0.119745
   8 C :   -0.115540
   9 C :   -0.020354
  10 C :   -0.028428
  11 C :   -0.103731
  12 C :   -0.121105
  13 C :   -0.122734
  14 C :   -0.109894
  15 H :    0.117979
  16 H :    0.117903
  17 H :    0.139856
  18 H :    0.237609
  19 H :    0.130899
  20 H :    0.126383
  21 H :    0.124504
  22 H :    0.126579
  23 H :    0.124639
  24 H :    0.124568
  25 H :    0.124422

-------------------------------
LOEWDIN REDUCED ORBITAL CHARGES
-------------------------------
  0 C s       :     2.939514  s :     2.939514
      pz      :     1.107579  p :     3.219301
      px      :     1.025924
      py      :     1.085798
      dz2     :     0.018942  d :     0.097047
      dxz     :     0.017975
      dyz     :     0.012105
      dx2y2   :     0.023807
      dxy     :     0.024218

  1 N s       :     3.100418  s :     3.100418
      pz      :     1.213030  p :     4.014651
      px      :     1.264714
      py      :     1.536906
      dz2     :     0.017724  d :     0.055813
      dxz     :     0.013483
      dyz     :     0.005713
      dx2y2   :     0.009579
      dxy     :     0.009312

  2 C s       :     2.803102  s :     2.803102
      pz      :     0.998752  p :     2.828090
      px      :     0.930605
      py      :     0.898733
      dz2     :     0.075357  d :     0.342724
      dxz     :     0.115133
      dyz     :     0.079629
      dx2y2   :     0.038900
      dxy     :     0.033705

  3 O s       :     3.553187  s :     3.553187
      pz      :     1.445235  p :     4.621903
      px      :     1.646153
      py      :     1.530515
      dz2     :     0.015404  d :     0.031076
      dxz     :     0.007904
      dyz     :     0.006530
      dx2y2   :     0.000549
      dxy     :     0.000689

  4 O s       :     3.434636  s :     3.434636
      pz      :     1.607110  p :     4.604068
      px      :     1.363791
      py      :     1.633166
      dz2     :     0.004767  d :     0.031288
      dxz     :     0.010156
      dyz     :     0.005669
      dx2y2   :     0.005409
      dxy     :     0.005287

  5 C s       :     2.845798  s :     2.845798
      pz      :     0.983850  p :     2.938110
      px      :     0.884797
      py      :     1.069463
      dz2     :     0.012197  d :     0.160960
      dxz     :     0.021769
      dyz     :     0.020111
      dx2y2   :     0.053961
      dxy     :     0.052921

  6 C s       :     2.895545  s :     2.895545
      pz      :     1.010083  p :     3.147642
      px      :     1.065105
      py      :     1.072454
      dz2     :     0.008221  d :     0.088937
      dxz     :     0.008235
      dyz     :     0.012382
      dx2y2   :     0.028447
      dxy     :     0.031651

  7 C s       :     2.888126  s :     2.888126
      pz      :     0.992480  p :     3.138404
      px      :     1.079334
      py      :     1.066590
      dz2     :     0.008354  d :     0.093214
      dxz     :     0.015820
      dyz     :     0.005270
      dx2y2   :     0.036990
      dxy     :     0.026781

  8 C s       :     2.890064  s :     2.890064
      pz      :     1.000726  p :     3.134350
      px      :     1.066982
      py      :     1.066641
      dz2     :     0.006634  d :     0.091126
      dxz     :     0.007742
      dyz     :     0.013315
      dx2y2   :     0.032854
      dxy     :     0.030580

  9 C s       :     2.836766  s :     2.836766
      pz      :     0.965614  p :     3.071550
      px      :     1.051286
      py      :     1.054650
      dz2     :     0.008493  d :     0.112038
      dxz     :     0.013241
      dyz     :     0.015544
      dx2y2   :     0.037317
      dxy     :     0.037443

 10 C s       :     2.840228  s :     2.840228
      pz      :     0.982416  p :     3.079303
      px      :     1.043929
      py      :     1.052959
      dz2     :     0.008776  d :     0.108896
      dxz     :     0.012323
      dyz     :     0.015720
      dx2y2   :     0.033056
      dxy     :     0.039021

 11 C s       :     2.889301  s :     2.889301
      pz      :     0.987312  p :     3.123542
      px      :     1.070249
      py      :     1.065980
      dz2     :     0.006546  d :     0.090889
      dxz     :     0.008083
      dyz     :     0.013362
      dx2y2   :     0.032694
      dxy     :     0.030204

 12 C s       :     2.890145  s :     2.890145
      pz      :     0.991100  p :     3.138390
      px      :     1.081976
      py      :     1.065314
      dz2     :     0.008196  d :     0.092571
      dxz     :     0.015053
      dyz     :     0.005472
      dx2y2   :     0.036994
      dxy     :     0.026856

 13 C s       :     2.890782  s :     2.890782
      pz      :     0.990064  p :     3.139414
      px      :     1.062128
      py      :     1.087222
      dz2     :     0.007912  d :     0.092539
      dxz     :     0.008273
      dyz     :     0.012589
      dx2y2   :     0.027092
      dxy     :     0.036672

 14 C s       :     2.891470  s :     2.891470
      pz      :     0.993100  p :     3.127486
      px      :     1.052291
      py      :     1.082095
      dz2     :     0.006542  d :     0.090938
      dxz     :     0.006516
      dyz     :     0.014530
      dx2y2   :     0.029868
      dxy     :     0.033482

 15 H s       :     0.882021  s :     0.882021

 16 H s       :     0.882097  s :     0.882097

 17 H s       :     0.860144  s :     0.860144

 18 H s       :     0.762391  s :     0.762391

 19 H s       :     0.869101  s :     0.869101

 20 H s       :     0.873617  s :     0.873617

 21 H s       :     0.875496  s :     0.875496

 22 H s       :     0.873421  s :     0.873421

 23 H s       :     0.875361  s :     0.875361

 24 H s       :     0.875432  s :     0.875432

 25 H s       :     0.875578  s :     0.875578


---------------------------------
LOEWDIN BOND ORDERS (THRESH 0.050000)
---------------------------------
B(  0-C ,  1-N ) :   1.1177 B(  0-C ,  2-C ) :   0.0734 B(  0-C , 15-H ) :   0.9436 
B(  0-C , 16-H ) :   0.9439 B(  0-C , 17-H ) :   0.9292 B(  1-N ,  2-C ) :   1.3909 
B(  1-N ,  3-O ) :   0.1969 B(  1-N ,  4-O ) :   0.0967 B(  1-N , 18-H ) :   0.8518 
B(  2-C ,  3-O ) :   2.1345 B(  2-C ,  4-O ) :   1.2422 B(  2-C ,  5-C ) :   0.0743 
B(  3-O ,  4-O ) :   0.1573 B(  4-O ,  5-C ) :   1.1283 B(  4-O ,  6-C ) :   0.0838 
B(  4-O , 10-C ) :   0.0674 B(  5-C ,  6-C ) :   1.5528 B(  5-C ,  7-C ) :   0.0918 
B(  5-C ,  8-C ) :   0.1145 B(  5-C ,  9-C ) :   0.0799 B(  5-C , 10-C ) :   1.2641 
B(  5-C , 11-C ) :   0.0781 B(  6-C ,  7-C ) :   1.3813 B(  6-C ,  8-C ) :   0.0864 
B(  6-C ,  9-C ) :   0.0674 B(  6-C , 10-C ) :   0.0856 B(  6-C , 19-H ) :   0.8808 
B(  7-C ,  8-C ) :   1.6099 B(  7-C ,  9-C ) :   0.0868 B(  7-C , 10-C ) :   0.0675 
B(  7-C , 20-H ) :   0.8858 B(  8-C ,  9-C ) :   1.3134 B(  8-C , 10-C ) :   0.0732 
B(  8-C , 14-C ) :   0.0817 B(  8-C , 21-H ) :   0.8822 B(  9-C , 10-C ) :   1.2373 
B(  9-C , 11-C ) :   0.0729 B(  9-C , 12-C ) :   0.0702 B(  9-C , 13-C ) :   0.0858 
B(  9-C , 14-C ) :   1.3147 B( 10-C , 11-C ) :   1.3115 B( 10-C , 12-C ) :   0.0866 
B( 10-C , 13-C ) :   0.0708 B( 10-C , 14-C ) :   0.0744 B( 11-C , 12-C ) :   1.6106 
B( 11-C , 13-C ) :   0.0860 B( 11-C , 14-C ) :   0.1245 B( 11-C , 22-H ) :   0.8791 
B( 12-C , 13-C ) :   1.3837 B( 12-C , 14-C ) :   0.0857 B( 12-C , 23-H ) :   0.8876 
B( 13-C , 14-C ) :   1.6128 B( 13-C , 24-H ) :   0.8875 B( 14-C , 25-H ) :   0.8824 


------------------------------------------
LOEWDIN REDUCED ORBITAL POPULATIONS PER MO
-------------------------------------------
THRESHOLD FOR PRINTING IS 0.1%%
                      0         1         2         3         4         5   
                 -18.80094 -18.71536 -14.02471 -10.02202  -9.95244  -9.92428
                   2.00000   2.00000   2.00000   2.00000   2.00000   2.00000
                  --------  --------  --------  --------  --------  --------
 0 C  s               0.0       0.0       0.0       0.0       0.0      99.7
 1 N  s               0.0       0.0      99.8       0.0       0.0       0.0
 1 N  px              0.0       0.0       0.0       0.1       0.0       0.1
 2 C  s               0.0       0.0       0.0      99.3       0.0       0.0
 3 O  s               0.0      99.9       0.0       0.0       0.0       0.0
 3 O  pz              0.0       0.0       0.0       0.3       0.0       0.0
 4 O  s              99.9       0.0       0.0       0.0       0.0       0.0
 5 C  s               0.0       0.0       0.0       0.0      99.5       0.0
 6 C  py              0.0       0.0       0.0       0.0       0.2       0.0

                      6         7         8         9        10        11   
                  -9.90416  -9.90290  -9.89583  -9.89404  -9.89361  -9.89316
                   2.00000   2.00000   2.00000   2.00000   2.00000   2.00000
                  --------  --------  --------  --------  --------  --------
 5 C  py              0.0       0.1       0.0       0.1       0.0       0.0
 6 C  s               0.0       0.0       0.3      99.3       0.0       0.0
 6 C  px              0.0       0.0       0.1       0.0       0.0       0.0
 7 C  s               0.0       0.0      98.9       0.3       0.0       0.0
 7 C  px              0.0       0.0       0.0       0.1       0.0       0.0
 8 C  s               0.0       0.0       0.4       0.0       0.0       3.9
 8 C  py              0.1       0.0       0.1       0.0       0.0       0.0
 9 C  s              99.3       0.2       0.0       0.0       0.0       0.0
 9 C  px              0.0       0.1       0.0       0.0       0.1       0.0
10 C  s               0.2      99.3       0.0       0.0       0.0       0.0
10 C  px              0.1       0.0       0.0       0.0       0.0       0.0
11 C  s               0.0       0.0       0.0       0.0       0.4      17.8
11 C  py              0.0       0.1       0.0       0.0       0.0       0.0
12 C  s               0.0       0.0       0.0       0.0       0.1      60.0
13 C  s               0.0       0.0       0.0       0.0       8.6      16.3
13 C  py              0.0       0.0       0.0       0.0       0.1       0.0
14 C  s               0.0       0.0       0.0       0.0      90.5       1.5

                     12        13        14        15        16        17   
                  -9.89312  -9.89295  -9.89272  -1.00767  -0.90931  -0.84734
                   2.00000   2.00000   2.00000   2.00000   2.00000   2.00000
                  --------  --------  --------  --------  --------  --------
 0 C  s               0.0       0.0       0.0       0.3       0.9       7.8
 0 C  pz              0.0       0.0       0.0       0.1       0.1       1.5
 0 C  px              0.0       0.0       0.0       0.3       0.6       2.2
 0 C  py              0.0       0.0       0.0       0.1       0.2       1.0
 0 C  dxz             0.0       0.0       0.0       0.0       0.0       0.1
 0 C  dxy             0.0       0.0       0.0       0.0       0.0       0.1
 1 N  s               0.0       0.0       0.0       3.8       4.9      38.0
 1 N  pz              0.0       0.0       0.0       0.2       0.8       0.0
 1 N  px              0.0       0.0       0.0       1.4       0.2       0.1
 1 N  py              0.0       0.0       0.0       0.3       0.0       0.0
 2 C  s               0.0       0.0       0.0      19.4       8.0       0.5
 2 C  pz              0.0       0.0       0.0       0.6      15.8      10.4
 2 C  px              0.0       0.0       0.0       1.8       1.1      11.2
 2 C  py              0.0       0.0       0.0       0.7       2.2       0.8
 2 C  dz2             0.0       0.0       0.0       0.3       0.6       0.5
 2 C  dxz             0.0       0.0       0.0       0.0       1.0       0.0
 2 C  dyz             0.0       0.0       0.0       0.2       0.0       0.1
 2 C  dx2y2           0.0       0.0       0.0       0.1       0.0       0.1
 2 C  dxy             0.0       0.0       0.0       0.2       0.0       0.1
 3 O  s               0.0       0.0       0.0       8.6      34.2      10.8
 3 O  pz              0.0       0.0       0.0       2.2       3.8       0.8
 3 O  px              0.0       0.0       0.0       0.1       0.6       0.0
 3 O  dz2             0.0       0.0       0.0       0.1       0.1       0.0
 4 O  s               0.0       0.0       0.0      40.6      15.2       0.2
 4 O  pz              0.0       0.0       0.0       2.6       0.2       0.1
 4 O  px              0.0       0.0       0.0       0.0       0.9       1.1
 4 O  py              0.0       0.0       0.0       0.2       0.2       0.2
 5 C  s               0.0       0.0       0.0       5.2       3.1       0.7
 5 C  pz              0.0       0.0       0.0       0.2       0.4       0.0
 5 C  px              0.0       0.0       0.0       4.9       1.4       0.1
 5 C  py              0.0       0.0       0.0       0.9       0.2       0.0
 5 C  dz2             0.0       0.0       0.0       0.1       0.1       0.0
 5 C  dx2y2           0.0       0.0       0.0       0.2       0.1       0.0
 5 C  dxy             0.0       0.0       0.0       0.2       0.1       0.0
 6 C  s               0.0       0.0       0.0       0.4       0.4       0.1
 6 C  py              0.0       0.0       0.0       0.6       0.4       0.1
 7 C  s               0.4       0.0       0.0       0.0       0.0       0.0
 8 C  s              95.1       0.1       0.0       0.0       0.0       0.0
 9 C  py              0.1       0.0       0.0       0.0       0.0       0.0
10 C  s               0.0       0.0       0.0       0.4       0.3       0.2
10 C  px              0.0       0.0       0.0       0.6       0.2       0.0
11 C  s               0.6       7.7      73.1       0.0       0.0       0.0
12 C  s               3.2      10.9      25.5       0.0       0.0       0.0
12 C  px              0.0       0.1       0.1       0.0       0.0       0.0
13 C  s               0.3      73.6       0.9       0.0       0.0       0.0
14 C  s               0.0       7.4       0.2       0.0       0.0       0.0
14 C  py              0.0       0.1       0.0       0.0       0.0       0.0
15 H  s               0.0       0.0       0.0       0.0       0.1       1.1
16 H  s               0.0       0.0       0.0       0.0       0.1       1.1
17 H  s               0.0       0.0       0.0       0.1       0.3       0.9
18 H  s               0.0       0.0       0.0       0.8       0.5       7.3

                     18        19        20        21        22        23   
                  -0.79390  -0.74582  -0.69954  -0.66946  -0.66381  -0.63554
                   2.00000   2.00000   2.00000   2.00000   2.00000   2.00000
                  --------  --------  --------  --------  --------  --------
 0 C  s               0.3       0.3       3.2       0.0      12.6      12.8
 0 C  px              0.0       0.0       0.0       0.0       0.1       0.3
 0 C  py              0.0       0.0       0.0       0.0       0.0       0.1
 1 N  s               0.5       0.1       0.2       0.0       0.1       1.1
 1 N  pz              0.0       0.0       0.2       0.0       0.9       0.9
 1 N  px              0.1       0.2       2.5       0.0       8.2       5.6
 1 N  py              0.0       0.1       0.8       0.0       2.6       2.0
 1 N  dxz             0.0       0.0       0.0       0.0       0.1       0.1
 2 C  s               0.1       0.1       1.3       0.0       2.3       0.6
 2 C  pz              0.1       0.3       1.7       0.0       2.5       0.3
 2 C  px              0.2       0.1       0.0       0.0       0.4       2.2
 2 C  py              0.1       0.1       0.3       0.0       0.0       0.3
 2 C  dxz             0.0       0.0       0.0       0.0       0.0       0.2
 3 O  s               0.0       0.0       0.2       0.0       0.3       0.0
 3 O  pz              0.0       0.0       0.1       0.0       0.1       0.0
 4 O  s               0.9       0.3       0.5       0.0       0.4       1.4
 4 O  pz              0.0       0.0       0.2       0.0       0.1       0.0
 4 O  px              0.5       0.7       5.5       0.0       5.0       0.0
 4 O  py              0.1       0.4       1.2       0.3       1.9       0.1
 5 C  s               4.9       4.2       8.3       0.0       1.3       4.2
 5 C  pz              0.2       0.1       0.0       0.0       0.2       0.1
 5 C  px              3.4       0.4       0.3       1.4       1.6       1.2
 5 C  py              0.0       3.0       0.2       6.7       0.0       1.8
 5 C  dxy             0.0       0.0       0.0       0.1       0.0       0.0
 6 C  s               4.4      10.7       1.2       9.9       0.0       4.0
 6 C  pz              0.0       0.0       0.2       0.0       0.1       0.1
 6 C  px              0.9       1.2       0.9       0.3       1.1       0.8
 6 C  py              0.5       0.2       2.0       0.6       0.7       1.7
 6 C  dz2             0.0       0.1       0.0       0.1       0.0       0.0
 6 C  dx2y2           0.0       0.0       0.1       0.0       0.0       0.1
 7 C  s               4.9      10.4       2.6       7.6       2.5       2.8
 7 C  pz              0.0       0.0       0.1       0.1       0.0       0.3
 7 C  px              0.0       0.2       2.3       1.8       0.0       4.8
 7 C  py              1.4       1.2       0.2       0.0       0.0       0.0
 7 C  dxy             0.0       0.0       0.1       0.0       0.0       0.2
 8 C  s               7.3       4.6      10.0       0.1       0.4       8.5
 8 C  pz              0.1       0.1       0.0       0.0       0.0       0.0
 8 C  px              0.8       1.7       0.0       0.8       0.7       0.1
 8 C  py              1.1       0.6       0.3       4.5       1.1       0.7
 9 C  s              15.3       0.0       6.0       7.9       1.0       0.0
 9 C  pz              0.0       0.0       0.4       0.1       0.1       0.0
 9 C  px              0.4       0.8       4.0       1.1       2.6       0.0
 9 C  py              0.1       4.9       1.3       0.0       0.7       3.5
 9 C  dz2             0.2       0.0       0.1       0.0       0.0       0.0
 9 C  dx2y2           0.0       0.0       0.1       0.0       0.0       0.1
10 C  s              14.2       0.0       5.1       9.5       1.0       0.6
10 C  pz              0.1       0.0       0.5       0.0       0.0       0.0
10 C  px              0.8       0.8       4.6       0.5       0.0       0.2
10 C  py              0.1       4.9       0.7       0.1       2.1       2.2
10 C  dz2             0.2       0.0       0.1       0.1       0.0       0.0
10 C  dx2y2           0.0       0.0       0.1       0.0       0.1       0.0
11 C  s               6.5       5.4       7.2       0.1       8.1       3.1
11 C  pz              0.1       0.1       0.0       0.0       0.0       0.0
11 C  px              0.8       1.7       0.0       1.2       0.1       0.1
11 C  py              1.0       0.4       0.3       5.2       0.1       1.1
11 C  dx2y2           0.0       0.0       0.0       0.1       0.0       0.0
12 C  s               4.6      10.3       1.6       8.7       2.8       2.5
12 C  pz              0.0       0.0       0.1       0.1       0.2       0.1
12 C  px              0.0       0.1       1.6       2.0       3.1       1.6
12 C  py              1.4       1.2       0.1       0.0       0.1       0.0
12 C  dxy             0.0       0.0       0.1       0.0       0.1       0.1
13 C  s               4.7      10.2       0.9      11.0       2.3       1.1
13 C  pz              0.0       0.1       0.1       0.1       0.2       0.1
13 C  px              0.7       1.2       0.5       0.5       1.2       0.9
13 C  py              0.7       0.2       1.5       0.6       2.3       1.3
13 C  dx2y2           0.0       0.0       0.1       0.0       0.1       0.1
14 C  s               7.2       5.1       6.8       0.1       8.6       3.0
14 C  pz              0.1       0.1       0.0       0.0       0.0       0.0
14 C  px              1.8       0.2       0.1       0.8       0.0       0.0
14 C  py              0.0       2.0       0.4       5.7       0.1       0.5
14 C  dx2y2           0.0       0.0       0.0       0.1       0.0       0.0
15 H  s               0.0       0.0       0.7       0.0       3.1       3.6
16 H  s               0.0       0.0       0.7       0.0       3.1       3.6
17 H  s               0.0       0.0       0.6       0.0       2.8       3.1
18 H  s               0.1       0.0       0.0       0.0       0.1       0.6
19 H  s               0.5       1.5       0.2       2.3       0.0       0.9
20 H  s               0.6       1.5       0.5       1.7       0.5       0.8
21 H  s               1.0       0.6       2.1       0.0       0.0       2.2
22 H  s               0.8       0.7       1.4       0.0       1.9       0.8
23 H  s               0.5       1.5       0.3       1.9       0.6       0.7
24 H  s               0.6       1.5       0.2       2.5       0.5       0.3
25 H  s               1.0       0.6       1.5       0.0       2.0       0.6

                     24        25        26        27        28        29   
                  -0.57232  -0.55702  -0.55306  -0.53206  -0.50361  -0.46432
                   2.00000   2.00000   2.00000   2.00000   2.00000   2.00000
                  --------  --------  --------  --------  --------  --------
 0 C  s               5.1       0.7       1.1       0.1       0.5       0.1
 0 C  pz              0.9       0.3       0.8       5.0       0.0       0.1
 0 C  px              0.9       0.1       0.2       1.0       1.5       0.6
 0 C  py              0.5       0.1       0.1       0.0       0.4       0.0
 1 N  s               2.4       0.4       0.7       0.5       0.2       0.0
 1 N  pz              1.9       0.6       2.2      29.6       2.6       0.2
 1 N  px              0.1       0.2       0.7      11.3       0.0       0.0
 1 N  py              0.0       0.0       0.0       0.1       0.0       0.8
 1 N  dz2             0.1       0.0       0.0       0.1       0.0       0.0
 2 C  s               1.1       0.4       0.7       1.6       0.2       0.0
 2 C  pz              1.5       0.4       0.4       0.1       0.9       0.0
 2 C  px              1.2       0.2       0.0       8.6       2.6       0.2
 2 C  py              0.8       0.0       0.3       2.7       0.5       1.6
 2 C  dz2             0.0       0.0       0.0       0.3       0.0       0.0
 2 C  dxz             0.2       0.0       0.0       0.0       0.0       0.0
 3 O  s               0.4       0.2       0.2       2.2       0.0       0.0
 3 O  pz              0.2       0.1       0.1       0.4       0.1       0.0
 3 O  px              0.0       0.0       0.1       2.0       0.8       0.0
 3 O  py              0.0       0.0       0.0       0.5       0.1       0.3
 4 O  s               0.0       0.1       0.0       0.1       1.6       0.1
 4 O  pz              1.1       0.4       0.4       0.3       2.5       0.3
 4 O  px             10.8       0.9       3.7       1.5       3.9       2.3
 4 O  py              3.1       2.5       0.0       0.2       3.2       2.5
 5 C  s               2.7       0.1       0.0       0.7       1.0       0.0
 5 C  pz              0.7       0.5       0.4       0.4       1.8       0.1
 5 C  px              1.2       6.0       0.4       0.1       4.1       1.3
 5 C  py              0.8       4.8       5.8       0.1       0.4       7.0
 5 C  dxz             0.1       0.0       0.0       0.0       0.1       0.0
 5 C  dx2y2           0.1       0.0       0.0       0.0       0.3       0.1
 6 C  s               3.7       3.6       1.1       0.1       0.3       0.7
 6 C  pz              0.2       0.2       0.1       0.1       0.0       0.5
 6 C  px              0.6       2.6       1.1       0.2       0.0       7.3
 6 C  py              3.5       0.4       2.2       0.3       3.2       2.0
 7 C  s               1.5       0.3       6.1       0.0       2.2       1.9
 7 C  pz              0.3       0.1       0.1       0.0       0.0       0.2
 7 C  px              6.5       1.4       0.9       0.7       0.0       3.7
 7 C  py              0.7       0.2       2.3       0.0       2.6       1.4
 7 C  dxy             0.1       0.0       0.0       0.0       0.0       0.1
 8 C  s               6.1       0.0       0.0       0.6       0.8       4.0
 8 C  pz              0.0       0.1       0.0       0.0       0.1       0.2
 8 C  px              0.9       1.7       0.1       0.5       1.3       2.0
 8 C  py              0.1       1.1       7.6       0.3       0.5       1.6
 8 C  dxy             0.0       0.0       0.1       0.0       0.0       0.0
 9 C  s               0.0       1.3       3.5       0.5       1.3       0.7
 9 C  pz              0.1       0.5       0.0       0.1       0.4       0.0
 9 C  px              0.1       7.8       0.8       1.3       2.2       0.7
 9 C  py              6.0       0.2       1.2       0.3       4.5       0.2
 9 C  dx2y2           0.1       0.0       0.0       0.0       0.0       0.2
 9 C  dxy             0.0       0.0       0.0       0.0       0.0       0.2
10 C  s               0.7       3.7       0.4       0.1       0.2       0.0
10 C  pz              0.1       0.0       0.6       0.3       0.2       0.0
10 C  px              1.3       1.1       3.5       1.8       8.5       1.1
10 C  py              1.4       3.7       5.2       0.3       0.3       5.5
10 C  dx2y2           0.0       0.0       0.0       0.0       0.1       0.2
11 C  s               0.6       4.2       1.9       0.7       2.2       1.1
11 C  pz              0.0       0.0       0.1       0.1       0.4       0.1
11 C  px              0.1       0.1       3.0       0.6       4.5       0.3
11 C  py              1.4       3.0       3.4       0.0       1.9       4.0
12 C  s               2.7       0.1       5.5       0.1       0.1       2.7
12 C  pz              0.0       0.6       0.0       0.0       0.2       0.2
12 C  px              0.7       9.4       0.2       0.4       1.6       0.3
12 C  py              1.0       0.1       1.5       0.0       1.0      10.0
12 C  dxy             0.0       0.2       0.0       0.0       0.0       0.0
13 C  s               0.8       8.0       0.2       0.0       0.1       1.3
13 C  pz              0.1       0.0       0.4       0.0       0.3       0.0
13 C  px              0.2       0.6       3.1       0.4       3.5       0.1
13 C  py              2.7       2.0       4.3       0.3       0.0       0.4
13 C  dx2y2           0.0       0.0       0.1       0.0       0.0       0.0
14 C  s               1.1       2.0       3.3       0.6       1.8       1.7
14 C  pz              0.0       0.0       0.1       0.1       0.6       0.1
14 C  px              0.1       0.3       1.8       0.9       7.4       0.4
14 C  py              0.0       8.0       1.4       0.0       0.1       5.0
15 H  s               2.0       0.3       0.4       0.1       0.6       0.3
16 H  s               1.9       0.3       0.4       0.1       0.7       0.0
17 H  s               2.1       0.4       0.7       1.7       0.0       0.0
18 H  s               2.3       0.6       1.7      14.2       0.5       0.1
19 H  s               1.5       3.0       0.3       0.0       0.0       1.7
20 H  s               0.8       0.0       4.0       0.0       2.6       1.9
21 H  s               2.5       0.1       0.2       0.8       1.0       4.7
22 H  s               0.1       1.6       1.3       0.7       4.5       0.1
23 H  s               1.5       0.0       3.0       0.0       0.3       7.7
24 H  s               0.5       4.4       0.1       0.0       0.7       0.3
25 H  s               0.2       1.1       1.8       0.8       4.5       2.4

                     30        31        32        33        34        35   
                  -0.45031  -0.44089  -0.43410  -0.42232  -0.40222  -0.39354
                   2.00000   2.00000   2.00000   2.00000   2.00000   2.00000
                  --------  --------  --------  --------  --------  --------
 0 C  s               0.0       0.1       1.0       0.0       0.0       0.1
 0 C  pz              0.0       0.1       5.4       1.2       0.9       0.1
 0 C  px              0.1       1.3      12.3       3.6       3.3       6.0
 0 C  py              0.1       0.2       6.5      13.6       9.4       1.1
 0 C  dxz             0.0       0.0       0.3       0.0       0.0       0.0
 0 C  dyz             0.0       0.0       0.1       0.1       0.0       0.0
 0 C  dxy             0.0       0.0       0.2       0.0       0.0       0.1
 1 N  s               0.0       0.0       0.8       0.0       0.0       0.0
 1 N  pz              0.0       0.4       9.3       0.6       0.1       1.5
 1 N  px              0.0       0.4      11.1       2.7       0.4       2.8
 1 N  py              0.4       0.5       3.9      13.7       4.0       1.4
 2 C  s               0.0       0.5       0.2       0.0       0.0       1.4
 2 C  pz              0.0       0.1       0.5       0.8       0.0       0.7
 2 C  px              0.2       0.1       2.9       4.0       0.1       0.1
 2 C  py              0.8       0.3       1.6      12.3       0.1       0.1
 2 C  dz2             0.0       0.0       0.4       0.0       0.0       0.2
 2 C  dxz             0.0       0.0       0.3       0.0       0.0       0.2
 2 C  dyz             0.0       0.0       0.0       0.0       0.0       0.2
 2 C  dxy             0.0       0.0       0.1       0.0       0.0       0.0
 3 O  s               0.0       0.4       3.2       0.0       0.0       4.7
 3 O  pz              0.0       0.6       3.9       0.6       0.0       9.5
 3 O  px              0.0       0.1       0.2       1.2       0.0       0.0
 3 O  py              0.2       0.3       1.1       3.5       0.0       0.3
 4 O  s               0.0       2.5       0.7       0.0       0.0       3.5
 4 O  pz              0.1       5.4      15.1       0.0       0.0      12.3
 4 O  px              0.3       0.1       0.1       1.5       1.1       7.9
 4 O  py              1.0       0.3       0.1       6.9       1.5       0.9
 5 C  s               1.1       2.8       0.0       0.0       0.0       0.2
 5 C  pz              0.1       1.4       3.4       0.0       0.1       1.3
 5 C  px              0.3       0.6       0.1       0.0       0.2       5.3
 5 C  py              1.9       0.6       0.0       0.0       2.0       0.2
 5 C  dxy             0.1       0.1       0.0       0.1       0.1       0.1
 6 C  s               2.1       0.0       0.0       0.3       0.1       0.3
 6 C  pz              0.0       0.0       0.5       0.0       0.4       0.4
 6 C  px              3.3       1.7       0.0       0.2       6.2       0.4
 6 C  py             13.0       0.2       0.0       0.1       0.5       0.0
 6 C  dx2y2           0.0       0.2       0.0       0.0       0.1       0.0
 7 C  s               0.4       0.1       0.0       0.1       0.0       0.2
 7 C  pz              0.2       0.4       0.0       0.0       0.6       0.3
 7 C  px              4.3       1.1       0.0       0.1       4.7       0.2
 7 C  py              2.4       8.4       0.1       1.8       4.5       0.2
 8 C  s               0.3       0.1       0.0       0.2       0.1       0.1
 8 C  pz              0.2       1.1       0.0       0.0       0.0       0.0
[...]
 0 C  dz2             0.0       0.0       0.1       0.1
 0 C  dxz             0.0       0.0       0.0       0.3
 0 C  dyz             0.0       0.0       0.0       0.2
 1 N  s               0.0       0.1       0.4       0.1
 1 N  pz              0.0       0.1       0.1       0.1
 1 N  px              0.0       0.1       1.0       0.1
 1 N  py              0.0       0.0       0.2       0.0
 1 N  dz2             0.1       0.2       1.1       2.3
 1 N  dxz             0.8       0.1       1.2       1.4
 1 N  dyz             0.1       0.0       0.5       0.1
 1 N  dx2y2           0.0       0.1       0.8       0.5
 1 N  dxy             0.1       0.0       0.6       1.8
 2 C  s               1.4       2.8       1.5       1.7
 2 C  pz              0.2       1.5       0.3       3.5
 2 C  px              0.2       0.3       1.0       0.0
 2 C  py              0.0       0.0       0.2       0.2
 2 C  dz2             0.8       0.0       7.3       5.1
 2 C  dxz             0.0       1.2       9.5       7.8
 2 C  dyz             0.2       0.3       6.4       0.3
 2 C  dx2y2           0.3       0.4       1.3       0.0
 2 C  dxy             0.4       0.2       0.0       0.8
 3 O  s               0.7       1.9       0.6       2.7
 3 O  pz              0.3       1.2       0.3       2.3
 3 O  px              0.0       0.0       0.8       0.1
 3 O  py              0.0       0.1       0.1       0.1
 3 O  dz2             6.8      20.4       1.2      26.6
 3 O  dxz             0.0       0.5      24.3       1.4
 3 O  dyz             0.1       3.0       3.1       2.2
 3 O  dx2y2           0.0       0.0       2.1       0.1
 3 O  dxy             0.0       0.1       0.0       0.2
 4 O  s               0.1       0.6       0.6       0.4
 4 O  pz              0.1       0.1       0.2       0.3
 4 O  px              0.4       0.7       1.5       1.5
 4 O  py              0.3       0.1       0.4       0.5
 4 O  dz2             4.8       2.2       1.2       6.7
 4 O  dxz             1.9       1.6      14.9       6.7
 4 O  dyz             2.7       0.5       4.3       3.5
 4 O  dx2y2           0.0       5.4       0.3       4.8
 4 O  dxy             4.9       3.7       7.6       2.2
 5 C  s               0.8       0.0       0.1       0.4
 5 C  pz              0.0       0.1       0.0       0.1
 5 C  px              0.1       0.9       0.1       0.9
 5 C  py              0.6       0.1       0.0       0.1
 5 C  dz2             0.3       0.0       0.5       0.2
 5 C  dxz             0.6       1.0       0.8       0.8
 5 C  dyz             0.1       0.3       0.0       0.1
 5 C  dx2y2           2.6       4.5       0.1       2.2
 5 C  dxy             1.3       5.5       0.2       1.7
 6 C  s               0.0       0.4       0.0       0.1
 6 C  py              0.3       0.0       0.0       0.0
 6 C  dyz             0.0       0.4       0.0       0.1
 6 C  dx2y2           0.6       0.2       0.0       0.0
 6 C  dxy             0.3       4.2       0.0       0.8
 7 C  s               0.0       0.3       0.0       0.0
 7 C  px              0.2       0.0       0.0       0.0
 7 C  dxz             0.1       0.3       0.0       0.0
 7 C  dx2y2           0.4       3.2       0.0       0.4
 7 C  dxy             0.3       0.2       0.0       0.1
 8 C  s               0.2       0.5       0.0       0.1
 8 C  py              0.5       0.0       0.0       0.0
 8 C  dz2             0.0       0.2       0.0       0.0
 8 C  dx2y2           1.5       2.0       0.0       0.2
 8 C  dxy             0.0       1.3       0.0       0.2
 9 C  s               0.2       0.0       0.0       0.0
 9 C  py              0.4       0.1       0.0       0.0
 9 C  dxz             0.7       0.0       0.0       0.0
 9 C  dyz             0.1       0.4       0.0       0.0
 9 C  dx2y2           9.0       2.4       0.0       0.2
 9 C  dxy             0.2       4.1       0.0       0.4
10 C  s               0.1       0.0       0.0       0.0
10 C  px              0.2       0.1       0.0       0.0
10 C  py              0.1       0.2       0.0       0.0
10 C  dxz             0.1       0.2       0.0       0.0
10 C  dyz             0.8       0.4       0.0       0.1
10 C  dx2y2           0.0       6.4       0.1       1.0
10 C  dxy            11.4       1.9       0.1       0.1
11 C  s               0.5       0.3       0.0       0.0
11 C  py              0.1       0.3       0.0       0.1
11 C  dz2             0.4       0.1       0.0       0.0
11 C  dxz             0.1       0.1       0.0       0.0
11 C  dyz             0.2       0.0       0.0       0.0
11 C  dx2y2           2.6       1.7       0.0       0.2
11 C  dxy             6.1       0.2       0.0       0.0
12 C  s               0.9       0.1       0.0       0.0
12 C  py              0.1       0.0       0.0       0.0
12 C  dz2             0.2       0.0       0.0       0.0
12 C  dxz             0.8       0.1       0.0       0.0
12 C  dyz             0.1       0.0       0.0       0.0
12 C  dx2y2           6.6       1.1       0.0       0.0
12 C  dxy             0.5       0.0       0.0       0.0
13 C  s               0.8       0.1       0.0       0.0
13 C  dz2             0.2       0.0       0.0       0.0
13 C  dyz             0.7       0.1       0.0       0.0
13 C  dx2y2           0.6       0.0       0.0       0.0
13 C  dxy             6.1       1.1       0.0       0.0
14 C  s               0.6       0.3       0.0       0.0
14 C  dz2             0.4       0.1       0.0       0.0
14 C  dxz             0.2       0.0       0.0       0.0
14 C  dx2y2           3.8       0.3       0.0       0.0
14 C  dxy             3.3       1.5       0.0       0.1
19 H  s               0.0       0.2       0.0       0.1
20 H  s               0.0       0.2       0.0       0.0
21 H  s               0.0       0.1       0.0       0.0
22 H  s               0.3       0.1       0.0       0.0
23 H  s               0.3       0.0       0.0       0.0
24 H  s               0.3       0.0       0.0       0.0
25 H  s               0.3       0.1       0.0       0.0


                      *****************************
                      * MAYER POPULATION ANALYSIS *
                      *****************************

  NA   - Mulliken gross atomic population
  ZA   - Total nuclear charge
  QA   - Mulliken gross atomic charge
  VA   - Mayer's total valence
  BVA  - Mayer's bonded valence
  FA   - Mayer's free valence

  ATOM       NA         ZA         QA         VA         BVA        FA
  0 C      6.1740     6.0000    -0.1740     3.8996     3.8996     0.0000
  1 N      7.2831     7.0000    -0.2831     3.2194     3.2194     0.0000
  2 C      5.8124     6.0000     0.1876     4.4242     4.4242     0.0000
  3 O      8.2311     8.0000    -0.2311     2.2884     2.2884     0.0000
  4 O      8.2646     8.0000    -0.2646     2.2033     2.2033    -0.0000
  5 C      5.8193     6.0000     0.1807     3.9390     3.9390    -0.0000
  6 C      6.1181     6.0000    -0.1181     3.8081     3.8081    -0.0000
  7 C      6.0410     6.0000    -0.0410     3.7552     3.7552    -0.0000
  8 C      6.1100     6.0000    -0.1100     3.7315     3.7315    -0.0000
  9 C      5.8698     6.0000     0.1302     3.8469     3.8469     0.0000
 10 C      5.8709     6.0000     0.1291     3.8547     3.8547     0.0000
 11 C      6.1252     6.0000    -0.1252     3.7922     3.7922     0.0000
 12 C      6.0416     6.0000    -0.0416     3.8042     3.8042    -0.0000
 13 C      6.0357     6.0000    -0.0357     3.7917     3.7917    -0.0000
 14 C      6.1313     6.0000    -0.1313     3.7868     3.7868    -0.0000
 15 H      0.8849     1.0000     0.1151     0.9534     0.9534     0.0000
 16 H      0.8853     1.0000     0.1147     0.9535     0.9535     0.0000
 17 H      0.8581     1.0000     0.1419     0.9965     0.9965     0.0000
 18 H      0.7678     1.0000     0.2322     0.9244     0.9244     0.0000
 19 H      0.9617     1.0000     0.0383     0.9662     0.9662    -0.0000
 20 H      0.9454     1.0000     0.0546     0.9502     0.9502    -0.0000
 21 H      0.9623     1.0000     0.0377     0.9584     0.9584    -0.0000
 22 H      0.9502     1.0000     0.0498     0.9606     0.9606     0.0000
 23 H      0.9486     1.0000     0.0514     0.9504     0.9504    -0.0000
 24 H      0.9472     1.0000     0.0528     0.9495     0.9495    -0.0000
 25 H      0.9604     1.0000     0.0396     0.9580     0.9580    -0.0000

  Mayer bond orders larger than 0.100000
B(  0-C ,  1-N ) :   1.0197 B(  0-C , 15-H ) :   0.9589 B(  0-C , 16-H ) :   0.9592 
B(  0-C , 17-H ) :   0.9370 B(  1-N ,  2-C ) :   1.2336 B(  1-N , 18-H ) :   0.8579 
B(  2-C ,  3-O ) :   2.0269 B(  2-C ,  4-O ) :   1.0593 B(  4-O ,  5-C ) :   0.9950 
B(  5-C ,  6-C ) :   1.5009 B(  5-C , 10-C ) :   1.2388 B(  6-C ,  7-C ) :   1.2141 
B(  6-C , 19-H ) :   0.9628 B(  7-C ,  8-C ) :   1.4450 B(  7-C , 20-H ) :   0.9614 
B(  8-C ,  9-C ) :   1.2360 B(  8-C , 21-H ) :   0.9673 B(  9-C , 10-C ) :   1.2527 
B(  9-C , 14-C ) :   1.2391 B( 10-C , 11-C ) :   1.2598 B( 11-C , 12-C ) :   1.4572 
B( 11-C , 22-H ) :   0.9500 B( 12-C , 13-C ) :   1.2565 B( 12-C , 23-H ) :   0.9619 
B( 13-C , 14-C ) :   1.4624 B( 13-C , 24-H ) :   0.9624 B( 14-C , 25-H ) :   0.9651 


-------
TIMINGS
-------

Total SCF time: 0 days 0 hours 0 min 9 sec 

Total time                  ....       9.445 sec
Sum of individual times     ....       9.021 sec  ( 95.5%)

SCF preparation             ....       0.162 sec  (  1.7%)
Fock matrix formation       ....       8.115 sec  ( 85.9%)
  Startup                   ....       0.048 sec  (  0.6% of F)
  Split-RI-J                ....       3.963 sec  ( 48.8% of F)
  XC integration            ....       3.705 sec  ( 45.7% of F)
    XC Preparation          ....       0.000 sec  (  0.0% of XC)
    Basis function eval.    ....       1.287 sec  ( 34.7% of XC)
    Density eval.           ....       0.658 sec  ( 17.8% of XC)
    XC-Functional eval.     ....       0.267 sec  (  7.2% of XC)
    XC-Potential eval.      ....       0.909 sec  ( 24.5% of XC)
Diagonalization             ....       0.000 sec  (  0.0%)
Density matrix formation    ....       0.160 sec  (  1.7%)
Total Energy calculation    ....       0.028 sec  (  0.3%)
Population analysis         ....       0.129 sec  (  1.4%)
Orbital Transformation      ....       0.054 sec  (  0.6%)
Orbital Orthonormalization  ....       0.000 sec  (  0.0%)
DIIS solution               ....       0.283 sec  (  3.0%)
  MO trafo                  ....       0.000 sec  (  0.0 % of DIIS)
  Orb grad                  ....       0.000 sec  (  0.0 % of DIIS)
  Energy W gradient         ....       0.000 sec  (  0.0 % of DIIS)
  DIIS error                ....       0.008 sec  (  2.7 % of DIIS)
  DIIS work                 ....       0.236 sec  ( 83.3 % of DIIS)
  Form Q                    ....       0.000 sec  (  0.0 % of DIIS)
  Form QpQm                 ....       0.000 sec  (  0.0 % of DIIS)
  Exp/Cayley                ....       0.000 sec  (  0.0 % of DIIS)
  Orb update                ....       0.000 sec  (  0.0 % of DIIS)
  Wake-sleep                ....       0.013 sec  (  4.5 % of DIIS)
SOSCF solution              ....       0.089 sec  (  0.9%)
  MO trafo                  ....       0.048 sec  ( 53.8 % of SOSCF)
  Orb grad                  ....       0.001 sec  (  1.5 % of SOSCF)
  Rot update                ....       0.011 sec  ( 12.5 % of SOSCF)
  Step                      ....       0.029 sec  ( 32.1 % of SOSCF)
Finished LeanSCF after   9.5 sec

Maximum memory used throughout the entire LEANSCF-calculation: 21.9 MB


-------------------------------------------------------------------------------
                          DFT DISPERSION CORRECTION                            
                                                                               
                                DFTD4 V3.4.0                                   
-------------------------------------------------------------------------------
The PBE functional is recognized
Active option DFTDOPT                   ...         5   

-------------------------   ----------------
Dispersion correction           -0.032606120
-------------------------   ----------------

------------------   -----------------
gCP correction             0.108050707
------------------   -----------------

-------------------------   --------------------
FINAL SINGLE POINT ENERGY      -667.735410537637
-------------------------   --------------------


------------------------------------------------------------------------------
                              ORCA PROPERTY CALCULATIONS
------------------------------------------------------------------------------

GBWName                                 ... sp.gbw
Number of atoms                         ...     26
Number of basis functions               ...    232
Max core memory                         ...   1024 MB

Electric properties:
Dipole moment                           ... YES
Quadrupole moment                       ...  NO
Static polarizability (Dipole/Dipole)   ...  NO
Static polarizability (Dipole/Quad.)    ...  NO
Static polarizability (Quad./Quad.)     ...  NO
Static polarizability (Velocity)        ...  NO

Atomic electric properties:
Dipole moment                           ...  NO
Quadrupole moment                       ...  NO
Static polarizability                   ...  NO

Choice of electric origin               ... Center of mass
Position of electric origin             ...    -0.000001    -0.000005     0.000002

General magnetic properties:
Magnetizability                         ...  NO

EPR properties:
g-Tensor (aka g-matrix)                 ...  NO
Zero-Field splitting spin-orbit         ...  NO
Zero-field splitting spin-spin          ...  NO
Hyperfine couplings                     ...  NO (   0 nuclei)
Quadrupole couplings                    ...  NO (   0 nuclei)
Contact density                         ...  NO (   0 nuclei)

NMR properties:
Chemical shifts                         ...  NO (   0 nuclei)
Spin-rotation constants                 ...  NO (   0 nuclei)
Spin-spin couplings                     ...  NO (   0 nuclei,    0 pairs)

Choice of magnetic origin               ... GIAO
Position of magnetic origin             ...     0.000000     0.000000     0.000000

Properties with geometric perturbations:
SCF Hessian                             ...  NO
IR spectrum                             ...  NO
VCD spectrum                            ...  NO
X-ray spectroscopy properties:
SCF XES/XAS/RIXS spectra                ...  NO


-------------
DIPOLE MOMENT
-------------

Method             : SCF
Type of density    : Electron Density
Multiplicity       :   1
Irrep              :   0
Energy             :  -667.8108551245634317 Eh
Relativity type    : 
Basis              : AO
                                X                 Y                 Z
Electronic contribution:      3.225734642       3.068399525       1.164609076
Nuclear contribution   :     -3.843359759      -3.228354816      -0.395738481
                        -----------------------------------------
Total Dipole Moment    :     -0.617625118      -0.159955291       0.768870595
                        -----------------------------------------
Magnitude (a.u.)       :      0.999103834
Magnitude (Debye)      :      2.539520128



--------------------
Rotational spectrum 
--------------------
 
Rotational constants in cm-1:             0.036507             0.014512             0.011152 
Rotational constants in MHz :          1094.464524           435.069256           334.328110 

Dipole components along the rotational axes: 
x,y,z [a.u.] :    -0.640088    -0.053626     0.765258 
x,y,z [Debye]:    -1.626975    -0.136307     1.945131 

 

Dipole moment calculation done in   0.0 sec 

Maximum memory used throughout the entire PROP-calculation: 14.5 MB

--------------------------------
SUGGESTED CITATIONS FOR THIS RUN
--------------------------------

Below you find a list of papers that are relevant to this ORCA run
We neither can nor want to force you to cite these papers, but we appreciate if you do
You receive ORCA, which is the product of decades of hard work by many enthusiastic individuals, for free
The only thing we kindly ask in return is that you cite our papers,
We deeply appreciate it, if you show your appreciation for ORCA by not just citing the generic ORCA reference.

Please note that relegating all ORCA citations to the supporting information does *not* help us.
SI sections are not indexed - citations you put there will not count into any citation statistics
But we need these citations in order to attract the funding resources that allow us to do what we are doing

Therefore, if you are a happy ORCA user, please consider citing a few of the papers listed below in the main body of your paper

In addition to the list printed below, the program has created the file sp.bibtex that contains the list in bibtex format
You can import this file easily into all common literature databanks and citation aid programs


List of essential papers. We consider these as the minimum necessary citations

  1. Neese,F.
     Software update: the ORCA program system, version 5.0
     WIRES Comput. Molec. Sci., 2022 12(1)e1606
     doi.org/10.1002/wcms.1606

List of papers to cite with high priority. The work reported in these papers was absolutely
necessary for this run to complete.
Our perspective: the developers of density functionals and basis sets usually get cited in chemistry papers
Good! But without the algorithms to do something with them, the functionals or basis sets would not do anything.
Hence, in our opinion, the algorithm design and method developments papers are equally worthy of getting cited

  1. Neese,F.
     An improvement of the resolution of the identity approximation for the formation of the Coulomb matrix
     J. Comp. Chem., 2003 24(14)1740-1747
     doi.org/10.1002/jcc.10318
  2. Neese,F.
     The SHARK Integral Generation and Digestion System
     J. Comp. Chem., 2022  1-16
     doi.org/10.1002/jcc.26942
  3. Caldeweyher,E.; Bannwarth,C.; Grimme,S.
     Extension of the D3 dispersion coefficient model
     J. Chem. Phys., 2017 147 034112-XXXX
     doi.org/10.1063/1.4993215
  4. Caldeweyher,E.; Ehlert,S.; Hansen,A.; Neugebauer,H.; Spicher,S.; Bannwarth,C.; Grimme,S.
     A generally applicable atomic-charge dependent London dispersion correction
     J. Chem. Phys., 2019 150 154122-XXXX
     doi.org/10.1063/1.5090222
  5. Caldeweyher,E.; Mewes,J.; Ehlert,S.; Grimme,S.
     Extension and evaluation of the D4 London-dispersion model for periodic systems
     Phys. Chem. Chem. Phys., 2020 22(16)8499-8512
     doi.org/10.1039/D0CP00502A

List of suggested additional citations. These are papers that are important in the 'surrounding' of 
of this run, or papers that preceded the highly important papers. If you like your results we are grateful for a citation.

  1. Neese,F.
     The ORCA program system
     WIRES Comput. Molec. Sci., 2012 2(1)73-78
     doi.org/10.1002/wcms.81
  2. Neese,F.
     Software update: the ORCA program system, version 4.0
     WIRES Comput. Molec. Sci., 2018 8(1)1-6
     doi.org/10.1002/wcms.1327
  3. Neese,F.; Wennmohs,F.; Becker,U.; Riplinger,C.
     The ORCA quantum chemistry program package
     J. Chem. Phys., 2020 152 Art. No. L224108
     doi.org/10.1063/5.0004608

List of optional additional citations

  1. Neese,F.
     Approximate second-order SCF convergence for spin unrestricted wavefunctions
     Chem. Phys. Lett., 2000 325(1-3)93-98
     doi.org/10.1016/s0009-2614(00)00662-x

Timings for individual modules:

Sum of individual times          ...       11.643 sec (=   0.194 min)
Startup calculation              ...        0.951 sec (=   0.016 min)   8.2 %
SCF iterations                   ...       10.596 sec (=   0.177 min)  91.0 %
Property calculations            ...        0.096 sec (=   0.002 min)   0.8 %
                             ****ORCA TERMINATED NORMALLY****
TOTAL RUN TIME: 0 days 0 hours 0 minutes 12 seconds 271 msec
