      -----------------------------------------------------------      
     |                   =====================                   |     
     |                           x T B                           |     
     |                   =====================                   |     
     |                         S. Grimme                         |     
     |          Mulliken Center for Theoretical Chemistry        |     
     |                    University of Bonn                     |     
      -----------------------------------------------------------      

   * xtb version 6.7.1 (edcfbbe) compiled by 'albert@albert-system' on 2024-07-22

   xtb is free software: you can redistribute it and/or modify it under
   the terms of the GNU Lesser General Public License as published by
   the Free Software Foundation, either version 3 of the License, or
   (at your option) any later version.
   
   xtb is distributed in the hope that it will be useful,
   but WITHOUT ANY WARRANTY; without even the implied warranty of
   MERCHANTABILITY or FITNESS FOR A PARTICULAR PURPOSE.  See the
   GNU Lesser General Public License for more details.
   
   Cite this work as:
   * C. Bannwarth, E. Caldeweyher, S. Ehlert, A. Hansen, P. Pracht,
     J. Seibert, S. Spicher, S. Grimme, WIREs Comput. Mol. Sci., 2020, 11,
     e01493. DOI: 10.1002/wcms.1493
   
   for GFN2-xTB:
   * C. Bannwarth, S. Ehlert and S. Grimme., J. Chem. Theory Comput., 2019,
     15, 1652-1671. DOI: 10.1021/acs.jctc.8b01176
   for GFN1-xTB:
   * S. Grimme, C. Bannwarth, P. Shushkov, J. Chem. Theory Comput., 2017,
     13, 1989-2009. DOI: 10.1021/acs.jctc.7b00118
   for GFN0-xTB:
   * P. Pracht, E. Caldeweyher, S. Ehlert, S. Grimme, ChemRxiv, 2019, preprint.
     DOI: 10.26434/chemrxiv.8326202.v1
   for GFN-FF:
   * S. Spicher and S. Grimme, Angew. Chem. Int. Ed., 2020, 59, 15665-15673.
     DOI: 10.1002/anie.202004239
   
   for ALPB and GBSA implicit solvation:
   * S. Ehlert, M. Stahn, S. Spicher, S. Grimme, J. Chem. Theory Comput.,
     2021, 17, 4250-4261. DOI: 10.1021/acs.jctc.1c00471
   
   for ddCOSMO and CPCM-X implicit solvation:
   * M. Stahn, S. Ehlert, S. Grimme, J. Phys. Chem. A,
     2023, XX, XXXX-XXXX. DOI: 10.1021/acs.jpca.3c04382
   
   for DFT-D4:
   * E. Caldeweyher, C. Bannwarth and S. Grimme, J. Chem. Phys., 2017,
     147, 034112. DOI: 10.1063/1.4993215
   * E. Caldeweyher, S. Ehlert, A. Hansen, H. Neugebauer, S. Spicher,
     C. Bannwarth and S. Grimme, J. Chem. Phys., 2019, 150, 154122.
     DOI: 10.1063/1.5090222
   * E. Caldeweyher, J.-M. Mewes, S. Ehlert and S. Grimme, Phys. Chem. Chem. Phys.
     2020, 22, 8499-8512. DOI: 10.1039/D0CP00502A
   
   for sTDA-xTB:
   * S. Grimme and C. Bannwarth, J. Chem. Phys., 2016, 145, 054103.
     DOI: 10.1063/1.4959605
   
   in the mass-spec context:
   * V. Asgeirsson, C. Bauer and S. Grimme, Chem. Sci., 2017, 8, 4879.
     DOI: 10.1039/c7sc00601b
   * J. Koopman and S. Grimme, ACS Omega 2019, 4, 12, 15120-15133.
     DOI: 10.1021/acsomega.9b02011
   
   for metadynamics refer to:
   * S. Grimme, J. Chem. Theory Comput., 2019, 155, 2847-2862
     DOI: 10.1021/acs.jctc.9b00143
   
   for SPH calculations refer to:
   * S. Spicher and S. Grimme, J. Chem. Theory Comput., 2021, 17, 1701-1714
     DOI: 10.1021/acs.jctc.0c01306
   
   for ONIOM refer to:
   * C. Plett, A. Katbashev, S. Ehlert, S. Grimme, M. Bursch,
     Phys. Chem. Chem. Phys., 2023, 25, 17860-17868. DOI: 10.1039/D3CP02178E
   
   for DIPRO refer to:
   * J. Kohn, N. Gildemeister, S. Grimme, D. Fazzi, A. Hansen,
     J. Chem. Phys., 2023, just accepted.
   
   for PTB refer to:
   * S. Grimme, M. Mueller, A. Hansen, J. Chem. Phys., 2023, 158, 124111.
     DOI: 10.1063/5.0137838
   
   with help from (in alphabetical order)
   P. Atkinson, C. Bannwarth, F. Bohle, G. Brandenburg, E. Caldeweyher
   M. Checinski, S. Dohm, S. Ehlert, S. Ehrlich, I. Gerasimov, C. Hölzer
   A. Katbashev, J. Kohn, J. Koopman, C. Lavigne, S. Lehtola, F. März, M. Müller,
   F. Musil, H. Neugebauer, J. Pisarek, C. Plett, P. Pracht, F. Pultar,
   J. Seibert, P. Shushkov, S. Spicher, M. Stahn, M. Steiner, T. Strunk,
   J. Stückrath, T. Rose, and J. Unsleber
   
 * started run on 2025/04/04 at 20:06:23.257     
   ID    Z sym.   atoms
    1    6 C      1-7
    2    8 O      8, 9
    3    1 H      10-15

           -------------------------------------------------
          |                Calculation Setup                |
           -------------------------------------------------

          program call               : /srv/scratch/z5358697/.xtb/bin/xtb gas.coord --gfn2 --sp --chrg 0 --norestart --parallel 1
          hostname                   : k146
          coordinate file            : gas.coord
          omp threads                :                     1


           -------------------------------------------------
          |                 G F N 2 - x T B                 |
           -------------------------------------------------

        Reference                      10.1021/acs.jctc.8b01176
      * Hamiltonian:
        H0-scaling (s, p, d)           1.850000    2.230000    2.230000
        zeta-weighting                 0.500000
      * Dispersion:
        s8                             2.700000
        a1                             0.520000
        a2                             5.000000
        s9                             5.000000
      * Repulsion:
        kExp                           1.500000    1.000000
        rExp                           1.000000
      * Coulomb:
        alpha                          2.000000
        third order                    shell-resolved
        anisotropic                    true
        a3                             3.000000
        a5                             4.000000
        cn-shift                       1.200000
        cn-exp                         4.000000
        max-rad                        5.000000


          ...................................................
          :                      SETUP                      :
          :.................................................:
          :  # basis functions                  42          :
          :  # atomic orbitals                  42          :
          :  # shells                           24          :
          :  # electrons                        46          :
          :  max. iterations                   250          :
          :  Hamiltonian                  GFN2-xTB          :
          :  restarted?                      false          :
          :  GBSA solvation                  false          :
          :  PC potential                    false          :
          :  electronic temp.          300.0000000     K    :
          :  accuracy                    1.0000000          :
          :  -> integral cutoff          0.2500000E+02      :
          :  -> integral neglect         0.1000000E-07      :
          :  -> SCF convergence          0.1000000E-05 Eh   :
          :  -> wf. convergence          0.1000000E-03 e    :
          :  Broyden damping             0.4000000          :
          :  net charge                          0          :
          :  unpaired electrons                  0          :
          ...................................................

 iter      E             dE          RMSdq      gap      omega  full diag
   1    -26.4810690 -0.264811E+02  0.551E+00    3.31       0.0  T
   2    -26.5124000 -0.313309E-01  0.309E+00    2.75       1.0  T
   3    -26.5095428  0.285712E-02  0.168E+00    3.14       1.0  T
   4    -26.5200613 -0.105184E-01  0.233E-01    2.90       1.0  T
   5    -26.5203460 -0.284752E-03  0.957E-02    2.91       1.0  T
   6    -26.5203881 -0.421053E-04  0.406E-02    2.92       1.0  T
   7    -26.5203940 -0.587782E-05  0.139E-02    2.92       1.9  T
   8    -26.5203944 -0.405103E-06  0.595E-03    2.92       4.3  T
   9    -26.5203947 -0.252891E-06  0.225E-03    2.92      11.5  T
  10    -26.5203947 -0.125446E-07  0.111E-03    2.92      23.3  T
  11    -26.5203947 -0.923115E-08  0.366E-04    2.92      70.5  T
  12    -26.5203947 -0.291390E-09  0.134E-04    2.92     192.5  T

   *** convergence criteria satisfied after 12 iterations ***

         #    Occupation            Energy/Eh            Energy/eV
      -------------------------------------------------------------
         1        2.0000           -0.7355348             -20.0149
       ...           ...                  ...                  ...
        17        2.0000           -0.4906153             -13.3503
        18        2.0000           -0.4774062             -12.9909
        19        2.0000           -0.4712976             -12.8247
        20        2.0000           -0.4403110             -11.9815
        21        2.0000           -0.4282165             -11.6524
        22        2.0000           -0.4056897             -11.0394
        23        2.0000           -0.3954156             -10.7598 (HOMO)
        24                         -0.2882250              -7.8430 (LUMO)
        25                         -0.2434822              -6.6255
        26                         -0.1973328              -5.3697
        27                         -0.0981412              -2.6706
        28                          0.0481792               1.3110
       ...                                ...                  ...
        42                          0.6520196              17.7424
      -------------------------------------------------------------
                  HL-Gap            0.1071906 Eh            2.9168 eV
             Fermi-level           -0.3418203 Eh           -9.3014 eV

 SCC (total)                   0 d,  0 h,  0 min,  0.009 sec
 SCC setup                      ...        0 min,  0.000 sec (  1.697%)
 Dispersion                     ...        0 min,  0.000 sec (  0.765%)
 classical contributions        ...        0 min,  0.000 sec (  0.175%)
 integral evaluation            ...        0 min,  0.001 sec ( 14.775%)
 iterations                     ...        0 min,  0.005 sec ( 50.689%)
 molecular gradient             ...        0 min,  0.003 sec ( 30.668%)
 printout                       ...        0 min,  0.000 sec (  1.118%)

         :::::::::::::::::::::::::::::::::::::::::::::::::::::
         ::                     SUMMARY                     ::
         :::::::::::::::::::::::::::::::::::::::::::::::::::::
         :: total energy             -26.147305839473 Eh    ::
         :: gradient norm              0.030299590095 Eh/a0 ::
         :: HOMO-LUMO gap              2.916804090118 eV    ::
         ::.................................................::
         :: SCC energy               -26.520387280985 Eh    ::
         :: -> isotropic ES            0.042997311959 Eh    ::
         :: -> anisotropic ES          0.002482010979 Eh    ::
         :: -> anisotropic XC          0.008014844165 Eh    ::
         :: -> dispersion             -0.011749054513 Eh    ::
         :: repulsion energy           0.373081441513 Eh    ::
         :: add. restraining           0.000000000000 Eh    ::
         :: total charge              -0.000000000000 e     ::
         :::::::::::::::::::::::::::::::::::::::::::::::::::::

           -------------------------------------------------
          |                Property Printout                |
           -------------------------------------------------

    * Orbital Energies and Occupations

         #    Occupation            Energy/Eh            Energy/eV
      -------------------------------------------------------------
         1        2.0000           -0.7355348             -20.0149
       ...           ...                  ...                  ...
        11        2.0000           -0.5495446             -14.9539
        12        2.0000           -0.5494753             -14.9520
        13        2.0000           -0.5263469             -14.3226
        14        2.0000           -0.5217712             -14.1981
        15        2.0000           -0.5054674             -13.7545
        16        2.0000           -0.5010288             -13.6337
        17        2.0000           -0.4906153             -13.3503
        18        2.0000           -0.4774062             -12.9909
        19        2.0000           -0.4712976             -12.8247
        20        2.0000           -0.4403110             -11.9815
        21        2.0000           -0.4282165             -11.6524
        22        2.0000           -0.4056897             -11.0394
        23        2.0000           -0.3954156             -10.7598 (HOMO)
        24                         -0.2882250              -7.8430 (LUMO)
        25                         -0.2434822              -6.6255
        26                         -0.1973328              -5.3697
        27                         -0.0981412              -2.6706
        28                          0.0481792               1.3110
        29                          0.1005296               2.7355
        30                          0.1087946               2.9605
        31                          0.1412352               3.8432
        32                          0.1641587               4.4670
        33                          0.1749845               4.7616
        34                          0.1938845               5.2759
       ...                                ...                  ...
        42                          0.6520196              17.7424
      -------------------------------------------------------------
                  HL-Gap            0.1071906 Eh            2.9168 eV
             Fermi-level           -0.3418203 Eh           -9.3014 eV

     #   Z          covCN         q      C6AA      α(0)
     1   6 C        2.922    -0.014    28.371     8.735
     2   6 C        2.915    -0.051    29.256     8.870
     3   6 C        2.846     0.159    24.550     8.120
     4   6 C        2.914    -0.068    29.701     8.937
     5   6 C        2.922    -0.025    28.634     8.775
     6   6 C        2.969    -0.021    28.518     8.759
     7   6 C        2.769     0.203    23.677     7.969
     8   8 O        0.856    -0.350    20.716     6.102
     9   8 O        1.660    -0.368    20.234     6.072
    10   1 H        0.926     0.072     2.067     2.248
    11   1 H        0.926     0.062     2.171     2.304
    12   1 H        0.926     0.037     2.494     2.470
    13   1 H        0.926     0.045     2.378     2.411
    14   1 H        0.922     0.011     2.869     2.649
    15   1 H        0.804     0.307     0.700     1.314

 Mol. C6AA /au·bohr⁶  :       2936.042502
 Mol. C8AA /au·bohr⁸  :      71408.118142
 Mol. α(0) /au        :         85.736652


Wiberg/Mayer (AO) data.
largest (>0.10) Wiberg bond orders for each atom

 ---------------------------------------------------------------------------
     #   Z sym  total        # sym  WBO       # sym  WBO       # sym  WBO
 ---------------------------------------------------------------------------
     1   6 C    3.987 --     2 C    1.499     6 C    1.342    10 H    0.965
     2   6 C    3.988 --     1 C    1.499     3 C    1.334    11 H    0.966
     3   6 C    3.939 --     4 C    1.348     2 C    1.334     9 O    1.107
     4   6 C    3.988 --     5 C    1.482     3 C    1.348    12 H    0.966
     5   6 C    3.991 --     4 C    1.482     6 C    1.358    13 H    0.967
     6   6 C    3.989 --     5 C    1.358     1 C    1.342     7 C    1.091
     7   6 C    3.928 --     8 O    1.839     6 C    1.091    14 H    0.933
     8   8 O    2.053 --     7 C    1.839
     9   8 O    2.152 --     3 C    1.107    15 H    0.882
    10   1 H    0.995 --     1 C    0.965
    11   1 H    0.996 --     2 C    0.966
    12   1 H    0.998 --     4 C    0.966
    13   1 H    0.998 --     5 C    0.967
    14   1 H    0.999 --     7 C    0.933
    15   1 H    0.906 --     9 O    0.882
 ---------------------------------------------------------------------------

Topologies differ in total number of bonds
Writing topology from bond orders to xtbtopo.mol

molecular dipole:
                 x           y           z       tot (Debye)
 q only:        1.530       0.763       0.000
   full:        1.701       1.177       0.000       5.257
molecular quadrupole (traceless):
                xx          xy          yy          xz          yz          zz
 q only:       -5.977       0.458       5.020       0.000       0.000       0.957
  q+dip:       -6.498       0.784       8.216      -0.000      -0.000      -1.719
   full:       -7.668       0.894       6.193      -0.000       0.000       1.475


           -------------------------------------------------
          | TOTAL ENERGY              -26.147305839473 Eh   |
          | GRADIENT NORM               0.030299590095 Eh/α |
          | HOMO-LUMO GAP               2.916804090118 eV   |
           -------------------------------------------------

------------------------------------------------------------------------
 * finished run on 2025/04/04 at 20:06:23.291     
------------------------------------------------------------------------
 total:
 * wall-time:     0 d,  0 h,  0 min,  0.034 sec
 *  cpu-time:     0 d,  0 h,  0 min,  0.016 sec
 * ratio c/w:     0.462 speedup
 SCF:
 * wall-time:     0 d,  0 h,  0 min,  0.009 sec
 *  cpu-time:     0 d,  0 h,  0 min,  0.009 sec
 * ratio c/w:     0.991 speedup

