
                                 *****************
                                 * O   R   C   A *
                                 *****************

                                            #,                                       
                                            ###                                      
                                            ####                                     
                                            #####                                    
                                            ######                                   
                                           ########,                                 
                                     ,,################,,,,,                         
                               ,,#################################,,                 
                          ,,##########################################,,             
                       ,#########################################, ''#####,          
                    ,#############################################,,   '####,        
                  ,##################################################,,,,####,       
                ,###########''''           ''''###############################       
              ,#####''   ,,,,##########,,,,          '''####'''          '####       
            ,##' ,,,,###########################,,,                        '##       
           ' ,,###''''                  '''############,,,                           
         ,,##''                                '''############,,,,        ,,,,,,###''
      ,#''                                            '''#######################'''  
     '                                                          ''''####''''         
             ,#######,   #######,   ,#######,      ##                                
            ,#'     '#,  ##    ##  ,#'     '#,    #''#        ,####,   ,####,        
            ##       ##  ##   ,#'  ##            #'  '#       #'       #'  '#        
            ##       ##  #######   ##           ,######,      #####,   #    #        
            '#,     ,#'  ##    ##  '#,     ,#' ,#      #,     #,   #   #,  ,#        
             '#######'   ##     ##  '#######'  #'      '#     '####' # '####'        



                #########################################################
                #                        -***-                          #
                #          Department of theory and spectroscopy        #
                #                                                       #
                #                      Frank Neese                      #
                #                                                       #
                #     Directorship, Architecture, Infrastructure        #
                #                    SHARK, DRIVERS                     #
                #        Core code/Algorithms in most modules           #
                #                                                       #
                #        Max Planck Institute fuer Kohlenforschung      #
                #                Kaiser Wilhelm Platz 1                 #
                #                 D-45470 Muelheim/Ruhr                 #
                #                      Germany                          #
                #                                                       #
                #                  All rights reserved                  #
                #                        -***-                          #
                #########################################################


                         Program Version 6.0.0  -   RELEASE  -


 With contributions from (in alphabetic order):
   Daniel Aravena         : Magnetic Suceptibility
   Michael Atanasov       : Ab Initio Ligand Field Theory (pilot matlab implementation)
   Alexander A. Auer      : GIAO ZORA, VPT2 properties, NMR spectrum
   Ute Becker             : All parallelization in ORCA, NUMFREQ, NUMCALC
   Giovanni Bistoni       : ED, misc. LED, open-shell LED, HFLD
   Martin Brehm           : Molecular dynamics
   Dmytro Bykov           : pre 5.0 version of the SCF Hessian
   Marcos Casanova-Páez   : Triplet and SCS-CIS(D). UHF-(DLPNO)-IP/EA/STEOM-CCSD. UHF-CVS-IP/STEOM-CCSD
   Vijay G. Chilkuri      : MRCI spin determinant printing, contributions to CSF-ICE
   Pauline Colinet        : FMM embedding
   Dipayan Datta          : RHF DLPNO-CCSD density
   Achintya Kumar Dutta   : EOM-CC, STEOM-CC
   Nicolas Foglia         : Exact transition moments, OPA infrastructure, MCD improvements
   Dmitry Ganyushin       : Spin-Orbit,Spin-Spin,Magnetic field MRCI
   Miquel Garcia          : C-PCM and meta-GGA Hessian, CCSD/C-PCM, Gaussian charge scheme
   Tiago L. C. Gouveia    : GS-ROHF, GS-ROCIS
   Yang Guo               : DLPNO-NEVPT2, F12-NEVPT2, CIM, IAO-localization
   Andreas Hansen         : Spin unrestricted coupled pair/coupled cluster methods
   Ingolf Harden          : AUTO-CI MPn and infrastructure 
   Benjamin Helmich-Paris : MC-RPA, TRAH-(SCF,CASSCF), AVAS, COSX integrals, SCF dyn. polar.
   Lee Huntington         : MR-EOM, pCC
   Robert Izsak           : Overlap fitted RIJCOSX, COSX-SCS-MP3, EOM
   Riya Kayal             : Wick's Theorem for AUTO-CI, AUTO-CI UHF-CCSDT
   Emily Kempfer          : AUTO-CI, RHF CISDT and CCSDT
   Christian Kollmar      : KDIIS, OOCD, Brueckner-CCSD(T), CCSD density, CASPT2, CASPT2-K, improved NEVPT2
   Axel Koslowski         : Symmetry handling
   Simone Kossmann        : Meta GGA functionals, TD-DFT gradient, OOMP2, (MP2 Hessian; deprecated post 5.0)
   Lucas Lang             : DCDCAS
   Marvin Lechner         : AUTO-CI (C++ implementation), FIC-MRCC
   Spencer Leger          : CASSCF response
   Dagmar Lenk            : GEPOL surface, SMD, ORCA-2-JSON
   Dimitrios Liakos       : Extrapolation schemes; Compound Job, initial MDCI parallelization
   Dimitrios Manganas     : Further ROCIS development; embedding schemes. LFT, Crystal Embedding
   Dimitrios Pantazis     : SARC Basis sets
   Anastasios Papadopoulos: AUTO-CI, single reference methods and gradients
   Taras Petrenko         : pre 6.0 DFT Hessian and TD-DFT gradient, (ASA, deprecated), ECA, 1-Electron XAS/XES, NRVS
   Peter Pinski           : DLPNO-MP2, DLPNO-MP2 Gradient
   Christoph Reimann      : Effective Core Potentials
   Marius Retegan         : Local ZFS, SOC
   Christoph Riplinger    : Optimizer, TS searches, QM/MM, DLPNO-CCSD(T), (RO)-DLPNO pert. Triples
   Michael Roemelt        : Original ROCIS implementation
   Masaaki Saitow         : Open-shell DLPNO-CCSD energy and density
   Barbara Sandhoefer     : DKH picture change effects
   Kantharuban Sivalingam : CASSCF convergence/infrastructure, NEVPT2 and variants, FIC-MRCI
   Bernardo de Souza      : ESD, SOC TD-DFT
   Georgi Stoychev        : AutoAux, RI-MP2 NMR, DLPNO-MP2 response, X2C
   Van Anh Tran           : RI-MP2 g-tensors
   Willem Van den Heuvel  : Paramagnetic NMR
   Zikuan Wang            : NOTCH, Electric field optimization 
   Frank Wennmohs         : Technical directorship and infrastructure
   Hang Xu                : AUTO-CI-Response properties 


 We gratefully acknowledge several colleagues who have allowed us to
 interface, adapt or use parts of their codes:
   Stefan Grimme, W. Hujo, H. Kruse, P. Pracht,  : VdW corrections, initial TS optimization,
                  C. Bannwarth, S. Ehlert,         DFT functionals, gCP, sTDA/sTD-DF
                  L. Wittmann, M. Mueller
   Ed Valeev, F. Pavosevic, A. Kumar             : LibInt (2-el integral package), F12 methods
   Garnet Chan, S. Sharma, J. Yang, R. Olivares  : DMRG
   Ulf Ekstrom                                   : XCFun DFT Library
   Mihaly Kallay                                 : mrcc  (arbitrary order and MRCC methods)
   Frank Weinhold                                : gennbo (NPA and NBO analysis)
   Simon Mueller                                 : openCOSMO-RS
   Christopher J. Cramer and Donald G. Truhlar   : smd solvation model
   Lars Goerigk                                  : TD-DFT with DH, B97 family of functionals
   V. Asgeirsson, H. Jonsson                     : NEB implementation
   FAccTs GmbH                                   : IRC, NEB, NEB-TS, DLPNO-Multilevel, CI-OPT
                                                   MM, QMMM, 2- and 3-layer-ONIOM, Crystal-QMMM,
                                                   LR-CPCM, SF, NACMEs, symmetry and pop. for TD-DFT,
                                                   nearIR, NL-DFT gradient (VV10), updates on ESD,
                                                   ML-optimized integration grids, MBIS, APM,
                                                   GOAT, DOCKER, SOLVATOR, interface openCOSMO-RS
   S Lehtola, MJT Oliveira, MAL Marques          : LibXC Library
   Liviu Ungur et al                             : ANISO software


 Your calculation uses the libint2 library for the computation of 2-el integrals
 For citations please refer to: http://libint.valeyev.net

 Your ORCA version has been built with support for libXC version: 6.2.2
 For citations please refer to: https://libxc.gitlab.io

 This ORCA versions uses:
   CBLAS   interface :  Fast vector & matrix operations
   LAPACKE interface :  Fast linear algebra routines
   SCALAPACK package :  Parallel linear algebra routines
   Shared memory     :  Shared parallel matrices
   BLAS/LAPACK       :  OpenBLAS 0.3.27  USE64BITINT DYNAMIC_ARCH NO_AFFINITY SkylakeX SINGLE_THREADED
        Core in use  :  SkylakeX
   Copyright (c) 2011-2014, The OpenBLAS Project


Your calculation utilizes the geometrical counterpoise correction gCP
Please cite in your paper:
H.Kruse, S. Grimme J.Chem.Phys., 136, (2012), 154101 
   

Your calculation utilizes the atom-pairwise dispersion correction
based on EEQ partial charges (D4)


================================================================================

----- Orbital basis set information -----
Your calculation utilizes the basis: def2-SV(P)
   F. Weigend and R. Ahlrichs, Phys. Chem. Chem. Phys. 7, 3297 (2005).

----- AuxJ basis set information -----
Your calculation utilizes the auxiliary basis: def2/J
   F. Weigend, Phys. Chem. Chem. Phys. 8, 1057 (2006).

================================================================================
                                        WARNINGS
                       Please study these warnings very carefully!
================================================================================


================================================================================
                                       INPUT FILE
================================================================================
NAME = sp.inp
|  1> ! pbe def2-sv(p) def2/J RI DEFGRID1 loosescf d4 GCP(DFT/SV(P)) printgap
|  2> %output
|  3>     printlevel normal
|  4> end
|  5> * xyz 0 1
|  6> C -2.5646098831 -0.6602404142 -0.3263467868
|  7> C -1.1845471614 -0.2916172858 0.226209849
|  8> H -1.2386105125 -0.2333520569 1.3233993879
|  9> C -0.7054753733 1.0606582409 -0.3160133397
| 10> H -0.7125498206 1.0162150486 -1.4189029097
| 11> C 0.7344129039 1.3377259797 0.1601534932
| 12> H 0.7362843251 1.4480315407 1.2508651314
| 13> C 1.6350293889 0.1593018726 -0.2180553759
| 14> H 1.6851972541 0.0822968821 -1.3182330001
| 15> C 1.0145723745 -1.1456024956 0.3316512957
| 16> H 1.0158438428 -1.0946884135 1.4339923399
| 17> O -0.2894995296 -1.3226360207 -0.1572830478
| 18> O 1.7709038783 -2.2488635755 -0.0195245671
| 19> O 2.9177886017 0.3585307655 0.3143699032
| 20> O 1.1824060824 2.5737498301 -0.3339603414
| 21> O -1.5816068239 2.0616527731 0.127448075
| 22> O -3.1043693221 -1.7941711691 0.2975367745
| 23> H -2.4785286477 -0.814999308 -1.409122023
| 24> H -3.2488048603 0.1659206576 -0.1291827461
| 25> H 1.5148040736 -2.5431344047 -0.9084513983
| 26> H 3.4089177591 -0.4773360613 0.2740567953
| 27> H 1.4795731708 2.4818147087 -1.2509117145
| 28> H -1.1317207115 2.9185087595 0.0416554322
| 29> H -2.4891210379 -2.5327657467 0.1792196568
| 30> *
| 31> 
| 32>                          ****END OF INPUT****
================================================================================

                       ****************************
                       * Single Point Calculation *
                       ****************************

---------------------------------
CARTESIAN COORDINATES (ANGSTROEM)
---------------------------------
  C     -2.564610   -0.660240   -0.326347
  C     -1.184547   -0.291617    0.226210
  H     -1.238611   -0.233352    1.323399
  C     -0.705475    1.060658   -0.316013
  H     -0.712550    1.016215   -1.418903
  C      0.734413    1.337726    0.160153
  H      0.736284    1.448032    1.250865
  C      1.635029    0.159302   -0.218055
  H      1.685197    0.082297   -1.318233
  C      1.014572   -1.145602    0.331651
  H      1.015844   -1.094688    1.433992
  O     -0.289500   -1.322636   -0.157283
  O      1.770904   -2.248864   -0.019525
  O      2.917789    0.358531    0.314370
  O      1.182406    2.573750   -0.333960
  O     -1.581607    2.061653    0.127448
  O     -3.104369   -1.794171    0.297537
  H     -2.478529   -0.814999   -1.409122
  H     -3.248805    0.165921   -0.129183
  H      1.514804   -2.543134   -0.908451
  H      3.408918   -0.477336    0.274057
  H      1.479573    2.481815   -1.250912
  H     -1.131721    2.918509    0.041655
  H     -2.489121   -2.532766    0.179220

----------------------------
CARTESIAN COORDINATES (A.U.)
----------------------------
  NO LB      ZA    FRAG     MASS         X           Y           Z
   0 C     6.0000    0    12.011   -4.846410   -1.247674   -0.616706
   1 C     6.0000    0    12.011   -2.238470   -0.551077    0.427475
   2 H     1.0000    0     1.008   -2.340635   -0.440971    2.500862
   3 C     6.0000    0    12.011   -1.333155    2.004354   -0.597179
   4 H     1.0000    0     1.008   -1.346524    1.920368   -2.681338
   5 C     6.0000    0    12.011    1.387839    2.527936    0.302646
   6 H     1.0000    0     1.008    1.391376    2.736383    2.363793
   7 C     6.0000    0    12.011    3.089758    0.301037   -0.412065
   8 H     1.0000    0     1.008    3.184561    0.155519   -2.491099
   9 C     6.0000    0    12.011    1.917264   -2.164875    0.626730
  10 H     1.0000    0     1.008    1.919667   -2.068661    2.709853
  11 O     8.0000    0    15.999   -0.547075   -2.499420   -0.297222
  12 O     8.0000    0    15.999    3.346523   -4.249736   -0.036896
  13 O     8.0000    0    15.999    5.513821    0.677525    0.594073
  14 O     8.0000    0    15.999    2.234424    4.863682   -0.631094
  15 O     8.0000    0    15.999   -2.988804    3.895959    0.240842
  16 O     8.0000    0    15.999   -5.866408   -3.390492    0.562263
  17 H     1.0000    0     1.008   -4.683740   -1.540125   -2.662855
  18 H     1.0000    0     1.008   -6.139351    0.313545   -0.244120
  19 H     1.0000    0     1.008    2.862565   -4.805828   -1.716724
  20 H     1.0000    0     1.008    6.441921   -0.902034    0.517892
  21 H     1.0000    0     1.008    2.795988    4.689950   -2.363881
  22 H     1.0000    0     1.008   -2.138642    5.515182    0.078717
  23 H     1.0000    0     1.008   -4.703757   -4.786234    0.338676

--------------------------------
INTERNAL COORDINATES (ANGSTROEM)
--------------------------------
 C      0   0   0     0.000000000000     0.00000000     0.00000000
 C      1   0   0     1.531592296397     0.00000000     0.00000000
 H      2   1   0     1.100064801320   109.16526290     0.00000000
 C      2   1   3     1.533676910118   111.47694666   239.85129207
 H      4   2   1     1.103807342230   108.40594029   303.82772649
 C      4   2   1     1.541680782606   109.93829994   185.04312169
 H      6   4   2     1.096276742757   109.08506241   294.89683905
 C      6   4   2     1.530632345769   109.56424627    53.90274822
 H      8   6   4     1.104009686575   109.06698857    64.22350553
 C      8   6   4     1.545936525756   109.01674808   306.17584897
 H     10   8   6     1.103516940566   108.40886458   295.38587790
 O     10   8   6     1.403923499456   110.81824557    57.16066910
 O     10   8   6     1.382948603772   111.32077088   178.13957994
 O      8   6   4     1.403082331018   109.56356030   185.01492184
 O      6   4   2     1.404493263880   110.32903208   179.89603833
 O      4   2   1     1.402231934650   108.81070365    63.34692607
 O      1   2   3     1.402273121385   112.39235519   308.60247929
 H      1   2   3     1.097161112338   108.62030950   185.63086667
 H      1   2   3     1.090659682178   108.52551248    66.60951146
 H     13  10   8     0.970759157625   109.27341157   275.47279525
 H     14   8   6     0.970312500209   108.94527075   165.43571215
 H     15   6   4     0.968276905438   110.33423707   279.40198894
 H     16   4   2     0.971576076856   108.19937017   161.49945865
 H     17   1   2     0.968530506289   108.52969339   302.09867074

---------------------------
INTERNAL COORDINATES (A.U.)
---------------------------
 C      0   0   0     0.000000000000     0.00000000     0.00000000
 C      1   0   0     2.894289989015     0.00000000     0.00000000
 H      2   1   0     2.078821204061   109.16526290     0.00000000
 C      2   1   3     2.898229338042   111.47694666   239.85129207
 H      4   2   1     2.085893581426   108.40594029   303.82772649
 C      4   2   1     2.913354465054   109.93829994   185.04312169
 H      6   4   2     2.071662810798   109.08506241   294.89683905
 C      6   4   2     2.892475945225   109.56424627    53.90274822
 H      8   6   4     2.086275956823   109.06698857    64.22350553
 C      8   6   4     2.921396654105   109.01674808   306.17584897
 H     10   8   6     2.085344801812   108.40886458   295.38587790
 O     10   8   6     2.653030926949   110.81824557    57.16066910
 O     10   8   6     2.613394118418   111.32077088   178.13957994
 O      8   6   4     2.651441348967   109.56356030   185.01492184
 O      6   4   2     2.654107625670   110.32903208   179.89603833
 O      4   2   1     2.649834332727   108.81070365    63.34692607
 O      1   2   3     2.649912164376   112.39235519   308.60247929
 H      1   2   3     2.073334027107   108.62030950   185.63086667
 H      1   2   3     2.061048104626   108.52551248    66.60951146
 H     13  10   8     1.834468949907   109.27341157   275.47279525
 H     14   8   6     1.833624889715   108.94527075   165.43571215
 H     15   6   4     1.829778173079   110.33423707   279.40198894
 H     16   4   2     1.836012703527   108.19937017   161.49945865
 H     17   1   2     1.830257409234   108.52969339   302.09867074

---------------------
BASIS SET INFORMATION
---------------------
There are 3 groups of distinct atoms

 Group   1 Type C   : 7s4p1d contracted to 3s2p1d pattern {511/31/1}
 Group   2 Type H   : 4s contracted to 2s pattern {31}
 Group   3 Type O   : 7s4p1d contracted to 3s2p1d pattern {511/31/1}

Atom   0C    basis set group =>   1
Atom   1C    basis set group =>   1
Atom   2H    basis set group =>   2
Atom   3C    basis set group =>   1
Atom   4H    basis set group =>   2
Atom   5C    basis set group =>   1
Atom   6H    basis set group =>   2
Atom   7C    basis set group =>   1
Atom   8H    basis set group =>   2
Atom   9C    basis set group =>   1
Atom  10H    basis set group =>   2
Atom  11O    basis set group =>   3
Atom  12O    basis set group =>   3
Atom  13O    basis set group =>   3
Atom  14O    basis set group =>   3
Atom  15O    basis set group =>   3
Atom  16O    basis set group =>   3
Atom  17H    basis set group =>   2
Atom  18H    basis set group =>   2
Atom  19H    basis set group =>   2
Atom  20H    basis set group =>   2
Atom  21H    basis set group =>   2
Atom  22H    basis set group =>   2
Atom  23H    basis set group =>   2
---------------------------------
AUXILIARY/J BASIS SET INFORMATION
---------------------------------
There are 3 groups of distinct atoms

 Group   1 Type C   : 12s5p4d2f1g contracted to 6s4p3d1f1g pattern {711111/2111/211/2/1}
 Group   2 Type H   : 5s2p1d contracted to 3s1p1d pattern {311/2/1}
 Group   3 Type O   : 12s5p4d2f1g contracted to 6s4p3d1f1g pattern {711111/2111/211/2/1}

Atom   0C    basis set group =>   1
Atom   1C    basis set group =>   1
Atom   2H    basis set group =>   2
Atom   3C    basis set group =>   1
Atom   4H    basis set group =>   2
Atom   5C    basis set group =>   1
Atom   6H    basis set group =>   2
Atom   7C    basis set group =>   1
Atom   8H    basis set group =>   2
Atom   9C    basis set group =>   1
Atom  10H    basis set group =>   2
Atom  11O    basis set group =>   3
Atom  12O    basis set group =>   3
Atom  13O    basis set group =>   3
Atom  14O    basis set group =>   3
Atom  15O    basis set group =>   3
Atom  16O    basis set group =>   3
Atom  17H    basis set group =>   2
Atom  18H    basis set group =>   2
Atom  19H    basis set group =>   2
Atom  20H    basis set group =>   2
Atom  21H    basis set group =>   2
Atom  22H    basis set group =>   2
Atom  23H    basis set group =>   2
------------------------------------------------------------------------------
                             ORCA STARTUP CALCULATIONS
                           -- RI-GTO INTEGRALS CHOSEN --
------------------------------------------------------------------------------
------------------------------------------------------------------------------
                   ___                                                        
                  /   \      - P O W E R E D   B Y -                         
                 /     \                                                     
                 |  |  |   _    _      __       _____    __    __             
                 |  |  |  | |  | |    /  \     |  _  \  |  |  /  |          
                  \  \/   | |  | |   /    \    | | | |  |  | /  /          
                 / \  \   | |__| |  /  /\  \   | |_| |  |  |/  /          
                |  |  |   |  __  | /  /__\  \  |    /   |      \           
                |  |  |   | |  | | |   __   |  |    \   |  |\   \          
                \     /   | |  | | |  |  |  |  | |\  \  |  | \   \       
                 \___/    |_|  |_| |__|  |__|  |_| \__\ |__|  \__/        
                                                                              
                      - O R C A' S   B I G   F R I E N D -                    
                                      &                                       
                       - I N T E G R A L  F E E D E R -                       
                                                                              
 v1 FN, 2020, v2 2021, v3 2022-2024                                           
------------------------------------------------------------------------------


----------------------
SHARK INTEGRAL PACKAGE
----------------------

Number of atoms                             ...     24
Number of basis functions                   ...    192
Number of shells                            ...     96
Maximum angular momentum                    ...      2
Integral batch strategy                     ... SHARK/LIBINT Hybrid
RI-J (if used) integral strategy            ... SPLIT-RIJ (Revised 2003 algorithm where possible)
Printlevel                                  ...      1
Contraction scheme used                     ... SEGMENTED contraction
Prescreening option                         ... SCHWARTZ
   Thresh                                   ... 1.000e-09
   Tcut                                     ... 1.000e-10
   Tpresel                                  ... 1.000e-10 
Coulomb Range Separation                    ... NOT USED
Exchange Range Separation                   ... NOT USED
Multipole approximations                    ... NOT USED
Finite Nucleus Model                        ... NOT USED
CABS basis                                  ... NOT available
Auxiliary Coulomb fitting basis             ... AVAILABLE
   # of basis functions in Aux-J            ...    720
   # of shells in Aux-J                     ...    240
   Maximum angular momentum in Aux-J        ...      4
Auxiliary J/K fitting basis                 ... NOT available
Auxiliary Correlation fitting basis         ... NOT available
Auxiliary 'external' fitting basis          ... NOT available

Checking pre-screening integrals            ... done (  0.0 sec) Dimension = 96
Check shell pair data                       ... done (  0.0 sec)
Shell pair information
Shell pair cut-off parameter TPreSel        ...   1.0e-10
Total number of shell pairs                 ...      4656
Shell pairs after pre-screening             ...      4127
Total number of primitive shell pairs       ...     18720
Primitive shell pairs kept                  ...     11060
          la=0 lb=0:   1613 shell pairs
          la=1 lb=0:   1311 shell pairs
          la=1 lb=1:    283 shell pairs
          la=2 lb=0:    599 shell pairs
          la=2 lb=1:    257 shell pairs
          la=2 lb=2:     64 shell pairs

Calculating one electron integrals          ... done (  0.0 sec)
Calculating RI/J V-Matrix + Cholesky decomp.... done (  0.1 sec)
Calculating Nuclear repulsion               ... done (  0.0 sec) ENN=    824.820099205548 Eh

Diagonalization of the overlap matrix:
Smallest eigenvalue                        ... 9.923e-04
Time for diagonalization                   ...    0.003 sec
Threshold for overlap eigenvalues          ... 1.000e-07
Number of eigenvalues below threshold      ... 0
Time for construction of square roots      ...    0.015 sec
Total time needed                          ...    0.026 sec

-------------------
DFT GRID GENERATION
-------------------

General Integration Accuracy     IntAcc      ... 4.159
Radial Grid Type                 RadialGrid  ... OptM3 with GC (2021)
Angular Grid (max. ang.)         AngularGrid ... 3 (Lebedev-194)
Angular grid pruning method      GridPruning ... 4 (adaptive)
Weight generation scheme         WeightScheme... mBecke (2022)
Basis function cutoff            BFCut       ... 1.0000e-10
Integration weight cutoff        WCut        ... 1.0000e-14
Partially contracted basis set               ... off
Rotationally invariant grid construction     ... off
Angular grids for H and He will be reduced by one unit

Total number of grid points                  ...    55738
Total number of batches                      ...      884
Average number of points per batch           ...       63
Average number of grid points per atom       ...     2322
Initializing property integral containers    ... done (  0.0 sec)

SHARK setup successfully completed in   0.9 seconds

Maximum memory used throughout the entire STARTUP-calculation: 27.8 MB
-------------------------------------------------------------------------------
                                 ORCA GUESS
                   Start orbitals & Density for SCF / CASSCF
-------------------------------------------------------------------------------

------------
SCF SETTINGS
------------
Hamiltonian:
 Density Functional     Method          .... DFT(GTOs)
 Exchange Functional    Exchange        .... PBE
   PBE kappa parameter   XKappa         ....  0.804000
   PBE mue parameter    XMuePBE         ....  0.219520
 Correlation Functional Correlation     .... PBE
   PBE beta parameter  CBetaPBE         ....  0.066725
 LDA part of GGA corr.  LDAOpt          .... PW91-LDA
 Gradients option       PostSCFGGA      .... off
   NL short-range parameter             ....  6.400000
 RI-approximation to the Coulomb term is turned on
   Number of AuxJ basis functions       .... 720


General Settings:
 Integral files         IntName         .... sp
 Hartree-Fock type      HFTyp           .... RHF
 Total Charge           Charge          ....    0
 Multiplicity           Mult            ....    1
 Number of Electrons    NEL             ....   96
 Basis Dimension        Dim             ....  192
 Nuclear Repulsion      ENuc            ....    824.8200992055 Eh

Convergence Acceleration:
 AO-DIIS                CNVDIIS         .... on
   Start iteration      DIISMaxIt       ....    12
   Startup error        DIISStart       ....  0.200000
   # of expansion vecs  DIISMaxEq       ....     5
   Bias factor          DIISBfac        ....   1.050
   Max. coefficient     DIISMaxC        ....  10.000
 MO-DIIS                CNVKDIIS        .... off
 Trust-Rad. Augm. Hess. CNVTRAH         .... auto
   Auto Start mean grad. ratio tolernc. ....  1.125000
   Auto Start start iteration           ....    50
   Auto Start num. interpolation iter.  ....    10
   Max. Number of Micro iterations      ....    24
   Max. Number of Macro iterations      .... Maxiter - #DIIS iter
   Number of Davidson start vectors     ....     2
   Converg. threshold    (grad. norm)   ....   1.000e-04
   Grad. Scal. Fac. for Micro threshold ....   0.100
   Minimum threshold for Micro iter.    ....   1.000e-02
   NR start threshold (gradient norm)   ....   1.000e-04
   Initial trust radius                 ....   0.400
   Minimum AH scaling param. (alpha)    ....   1.000
   Maximum AH scaling param. (alpha)    .... 1000.000
   Quad. conv. algorithm                .... NR
   White noise on init. David. guess    .... on
   Maximum white noise                  ....   0.010
   Pseudo random numbers                .... off
   Inactive MOs                         .... canonical
   Orbital update algorithm             .... Taylor
   Preconditioner                       .... Diag
   Full preconditioner red. dimension   ....   250
 SOSCF                  CNVSOSCF        .... on
   Start iteration      SOSCFMaxIt      ....   150
   Startup grad/error   SOSCFStart      ....  0.003300
   Hessian update       SOSCFHessUp     .... L-BFGS
 Level Shifting         CNVShift        .... on
   Level shift para.    LevelShift      ....    0.2500
   Turn off err/grad.   ShiftErr        ....    0.0010
 Zerner damping         CNVZerner       .... off
 Static damping         CNVDamp         .... on
   Fraction old density DampFac         ....    0.7000
   Max. Damping (<1)    DampMax         ....    0.9800
   Min. Damping (>=0)   DampMin         ....    0.0000
   Turn off err/grad.   DampErr         ....    0.1000

SCF Procedure:
 Maximum # iterations   MaxIter         ....   125
 SCF integral mode      SCFMode         .... Direct
   Integral package                     .... SHARK and LIBINT hybrid scheme
 Reset frequency        DirectResetFreq ....    20
 Integral Threshold     Thresh          ....  1.000e-09 Eh
 Primitive CutOff       TCut            ....  1.000e-10 Eh

Convergence Tolerance:
 Convergence Check Mode ConvCheckMode   .... Total+1el-Energy
 Convergence forced     ConvForced      .... 0
 Energy Change          TolE            ....  1.000e-05 Eh
 1-El. energy change                    ....  1.000e-02 Eh
 Orbital Gradient       TolG            ....  1.000e-04
 Orbital Rotation angle TolX            ....  1.000e-04
 DIIS Error             TolErr          ....  5.000e-04

------------------------------
INITIAL GUESS: MODEL POTENTIAL
------------------------------
Loading Hartree-Fock densities                     ... done
Calculating cut-offs                               ... done
Initializing the effective Hamiltonian             ... done
Setting up the integral package (SHARK)            ... done
Starting the Coulomb interaction                   ... done (   0.2 sec)
Making the grid                                    ... done (   0.3 sec)
Mapping shells                                     ... done
Starting the XC term evaluation                    ... done (   0.2 sec)
  promolecular density results
     # of electrons  =     95.996563777
     EX              =    -83.241030401
     EC              =     -3.268749697
     EX+EC           =    -86.509780098
Transforming the Hamiltonian                       ... done (   0.0 sec)
Diagonalizing the Hamiltonian                      ... done (   0.0 sec)
Back transforming the eigenvectors                 ... done (   0.0 sec)
Now organizing SCF variables                       ... done
                      ------------------
                      INITIAL GUESS DONE (   0.8 sec)
                      ------------------
             **** ENERGY FILE WAS UPDATED (sp.en.tmp) ****
Finished Guess after   1.0 sec
Maximum memory used throughout the entire GUESS-calculation: 21.6 MB

-------------------------------------------------------------------------------------------
                                      ORCA LEAN-SCF
                              memory conserving SCF solver
-------------------------------------------------------------------------------------------

----------------------------------------D-I-I-S--------------------------------------------
Iteration    Energy (Eh)           Delta-E    RMSDP     MaxDP     DIISErr   Damp  Time(sec)
-------------------------------------------------------------------------------------------
               ***  Starting incremental Fock matrix formation  ***
    1    -685.5227953328011381     0.00e+00  5.17e-03  1.75e-01  2.24e-01  0.700   1.2
    2    -685.6757717245292270    -1.53e-01  3.27e-03  1.11e-01  8.85e-02  0.700   1.1
                               ***Turning on AO-DIIS***
    3    -685.7236123481537788    -4.78e-02  1.10e-03  2.38e-02  2.30e-02  0.700   1.1
    4    -685.7557373696155310    -3.21e-02  1.40e-03  2.51e-02  9.85e-03  0.000   1.0
    5    -685.8300547687343851    -7.43e-02  4.57e-04  1.43e-02  5.83e-03  0.000   1.1
                              *** Initializing SOSCF ***
---------------------------------------S-O-S-C-F--------------------------------------
Iteration    Energy (Eh)           Delta-E    RMSDP     MaxDP     MaxGrad    Time(sec)
--------------------------------------------------------------------------------------
    6    -685.8304280823000454    -3.73e-04  1.44e-04  3.31e-03  1.11e-03     1.0
               *** Restarting incremental Fock matrix formation ***
    7    -685.8304566326106624    -2.86e-05  1.02e-04  2.42e-03  1.71e-04     1.2
    8    -685.8304564534086012     1.79e-07  3.86e-05  9.24e-04  1.99e-04     1.0
                 **** Energy Check signals convergence ****

               *****************************************************
               *                     SUCCESS                       *
               *           SCF CONVERGED AFTER   8 CYCLES          *
               *****************************************************

             **** ENERGY FILE WAS UPDATED (sp.en.tmp) ****

----------------
TOTAL SCF ENERGY
----------------

Total Energy       :       -685.83045645340860 Eh          -18662.39550 eV

Components:
Nuclear Repulsion  :        824.82009920554754 Eh           22444.49596 eV
Electronic Energy  :      -1510.65055565895614 Eh          -41106.89145 eV
One Electron Energy:      -2578.27493496634997 Eh          -70158.42777 eV
Two Electron Energy:       1067.62437930739384 Eh           29051.53631 eV

Virial components:
Potential Energy   :      -1366.93277704632601 Eh          -37196.13188 eV
Kinetic Energy     :        681.10232059291741 Eh           18533.73638 eV
Virial Ratio       :          2.00694188775686

DFT components:
N(Alpha)           :       48.000022376961 electrons
N(Beta)            :       48.000022376961 electrons
N(Total)           :       96.000044753922 electrons
E(X)               :      -84.601925454541 Eh       
E(C)               :       -3.280769071142 Eh       
E(XC)              :      -87.882694525683 Eh       

---------------
SCF CONVERGENCE
---------------

  Last Energy change         ...   -1.7920e-07  Tolerance :   1.0000e-05
  Last MAX-Density change    ...    9.2358e-04  Tolerance :   1.0000e-03
  Last RMS-Density change    ...    3.8626e-05  Tolerance :   1.0000e-04
  Last DIIS Error            ...    1.1077e-03  Tolerance :   5.0000e-04
  Last Orbital Gradient      ...    1.9915e-04  Tolerance :   1.0000e-04
  Last Orbital Rotation      ...    1.3859e-04  Tolerance :   1.0000e-04


----------------
ORBITAL ENERGIES
----------------

  NO   OCC          E(Eh)            E(eV) 
   0   2.0000     -18.788636      -511.2648 
   1   2.0000     -18.778966      -511.0016 
   2   2.0000     -18.765084      -510.6239 
   3   2.0000     -18.758003      -510.4312 
   4   2.0000     -18.755656      -510.3673 
   5   2.0000     -18.744265      -510.0574 
   6   2.0000      -9.999379      -272.0969 
   7   2.0000      -9.950835      -270.7760 
   8   2.0000      -9.950518      -270.7674 
   9   2.0000      -9.948721      -270.7185 
  10   2.0000      -9.947120      -270.6749 
  11   2.0000      -9.930342      -270.2184 
  12   2.0000      -1.000788       -27.2328 
  13   2.0000      -0.953822       -25.9548 
  14   2.0000      -0.943048       -25.6616 
  15   2.0000      -0.928859       -25.2755 
  16   2.0000      -0.922769       -25.1098 
  17   2.0000      -0.917152       -24.9570 
  18   2.0000      -0.711087       -19.3497 
  19   2.0000      -0.698031       -18.9944 
  20   2.0000      -0.618785       -16.8380 
  21   2.0000      -0.592761       -16.1298 
  22   2.0000      -0.569206       -15.4889 
  23   2.0000      -0.552260       -15.0278 
  24   2.0000      -0.507557       -13.8113 
  25   2.0000      -0.500553       -13.6207 
  26   2.0000      -0.475232       -12.9317 
  27   2.0000      -0.460750       -12.5376 
  28   2.0000      -0.452947       -12.3253 
  29   2.0000      -0.437285       -11.8991 
  30   2.0000      -0.427602       -11.6356 
  31   2.0000      -0.413878       -11.2622 
  32   2.0000      -0.399915       -10.8822 
  33   2.0000      -0.373932       -10.1752 
  34   2.0000      -0.362831        -9.8731 
  35   2.0000      -0.348944        -9.4952 
  36   2.0000      -0.332125        -9.0376 
  37   2.0000      -0.330301        -8.9879 
  38   2.0000      -0.312410        -8.5011 
  39   2.0000      -0.304684        -8.2909 
  40   2.0000      -0.291463        -7.9311 
  41   2.0000      -0.276653        -7.5281 
  42   2.0000      -0.265399        -7.2219 
  43   2.0000      -0.245843        -6.6897 
  44   2.0000      -0.244019        -6.6401 
  45   2.0000      -0.221838        -6.0365 
  46   2.0000      -0.219205        -5.9649 
  47   2.0000      -0.211137        -5.7453 
  48   0.0000       0.007036         0.1915 
  49   0.0000       0.017535         0.4772 
  50   0.0000       0.036157         0.9839 
  51   0.0000       0.045227         1.2307 
  52   0.0000       0.054735         1.4894 
  53   0.0000       0.059276         1.6130 
  54   0.0000       0.065388         1.7793 
  55   0.0000       0.090889         2.4732 
  56   0.0000       0.095859         2.6085 
  57   0.0000       0.103115         2.8059 
  58   0.0000       0.108891         2.9631 
*Only the first 10 virtual orbitals were printed.

                    ********************************
                    * MULLIKEN POPULATION ANALYSIS *
                    ********************************

-----------------------
MULLIKEN ATOMIC CHARGES
-----------------------
   0 C :    0.099315
   1 C :   -0.012582
   2 H :    0.065170
   3 C :    0.059340
   4 H :    0.032615
   5 C :    0.071207
   6 H :    0.070332
   7 C :    0.041054
   8 H :    0.022473
   9 C :    0.166782
  10 H :    0.063059
  11 O :   -0.320068
  12 O :   -0.386681
  13 O :   -0.402543
  14 O :   -0.408829
  15 O :   -0.414326
  16 O :   -0.431752
  17 H :    0.062547
  18 H :    0.104641
  19 H :    0.306854
  20 H :    0.303462
  21 H :    0.304022
  22 H :    0.306803
  23 H :    0.297105
Sum of atomic charges:   -0.0000000

--------------------------------
MULLIKEN REDUCED ORBITAL CHARGES
--------------------------------
  0 C s       :     3.005054  s :     3.005054
      pz      :     0.975303  p :     2.832243
      px      :     0.978419
      py      :     0.878521
      dz2     :     0.017577  d :     0.063388
      dxz     :     0.006584
      dyz     :     0.011137
      dx2y2   :     0.010491
      dxy     :     0.017599

  1 C s       :     3.071583  s :     3.071583
      pz      :     1.042899  p :     2.874989
      px      :     0.978162
      py      :     0.853928
      dz2     :     0.016408  d :     0.066010
      dxz     :     0.008752
      dyz     :     0.009497
      dx2y2   :     0.014186
      dxy     :     0.017166

  2 H s       :     0.934830  s :     0.934830

  3 C s       :     3.045719  s :     3.045719
      pz      :     1.013803  p :     2.826399
      px      :     0.910783
      py      :     0.901813
      dz2     :     0.018110  d :     0.068542
      dxz     :     0.009088
      dyz     :     0.010809
      dx2y2   :     0.014557
      dxy     :     0.015978

  4 H s       :     0.967385  s :     0.967385

  5 C s       :     3.043610  s :     3.043610
      pz      :     1.047115  p :     2.816922
      px      :     0.934705
      py      :     0.835102
      dz2     :     0.016509  d :     0.068262
      dxz     :     0.006185
      dyz     :     0.011257
      dx2y2   :     0.016361
      dxy     :     0.017950

  6 H s       :     0.929668  s :     0.929668

  7 C s       :     3.038616  s :     3.038616
      pz      :     1.001268  p :     2.852475
      px      :     0.829662
      py      :     1.021545
      dz2     :     0.018381  d :     0.067855
      dxz     :     0.014186
      dyz     :     0.005496
      dx2y2   :     0.014153
      dxy     :     0.015640

  8 H s       :     0.977527  s :     0.977527

  9 C s       :     3.041697  s :     3.041697
      pz      :     1.053901  p :     2.690459
      px      :     0.757012
      py      :     0.879546
      dz2     :     0.022052  d :     0.101062
      dxz     :     0.016051
      dyz     :     0.010929
      dx2y2   :     0.027472
      dxy     :     0.024558

 10 H s       :     0.936941  s :     0.936941

 11 O s       :     3.759704  s :     3.759704
      pz      :     1.726004  p :     4.545216
      px      :     1.238025
      py      :     1.581187
      dz2     :     0.002079  d :     0.015148
      dxz     :     0.003365
      dyz     :     0.002267
      dx2y2   :     0.003756
      dxy     :     0.003682

 12 O s       :     3.769317  s :     3.769317
      pz      :     1.406002  p :     4.601921
      px      :     1.687384
      py      :     1.508534
      dz2     :     0.005582  d :     0.015444
      dxz     :     0.002627
      dyz     :     0.001675
      dx2y2   :     0.001981
      dxy     :     0.003580

 13 O s       :     3.776350  s :     3.776350
      pz      :     1.804393  p :     4.610676
      px      :     1.315389
      py      :     1.490893
      dz2     :     0.002812  d :     0.015517
      dxz     :     0.002242
      dyz     :     0.001332
      dx2y2   :     0.003909
      dxy     :     0.005222

 14 O s       :     3.783663  s :     3.783663
      pz      :     1.336303  p :     4.609793
      px      :     1.784851
      py      :     1.488639
      dz2     :     0.006170  d :     0.015374
      dxz     :     0.001593
      dyz     :     0.002209
      dx2y2   :     0.003027
      dxy     :     0.002375

 15 O s       :     3.781356  s :     3.781356
      pz      :     1.829687  p :     4.617642
      px      :     1.584929
      py      :     1.203026
      dz2     :     0.002662  d :     0.015328
      dxz     :     0.002282
      dyz     :     0.001249
      dx2y2   :     0.002537
      dxy     :     0.006598

 16 O s       :     3.788378  s :     3.788378
      pz      :     1.784226  p :     4.627582
      px      :     1.615181
      py      :     1.228176
      dz2     :     0.002802  d :     0.015791
      dxz     :     0.002287
      dyz     :     0.002135
      dx2y2   :     0.001323
      dxy     :     0.007243

 17 H s       :     0.937453  s :     0.937453

 18 H s       :     0.895359  s :     0.895359

 19 H s       :     0.693146  s :     0.693146

 20 H s       :     0.696538  s :     0.696538

 21 H s       :     0.695978  s :     0.695978

 22 H s       :     0.693197  s :     0.693197

 23 H s       :     0.702895  s :     0.702895


------------------------
MULLIKEN OVERLAP CHARGES
------------------------
B(  0-C ,  1-C ) :   0.6571 B(  0-C ,  2-H ) :  -0.0875 B(  0-C ,  4-H ) :  -0.0537 
B(  0-C , 11-O ) :  -0.0947 B(  0-C , 16-O ) :   0.7069 B(  0-C , 17-H ) :   0.6468 
B(  0-C , 18-H ) :   0.6834 B(  0-C , 23-H ) :  -0.0994 B(  1-C ,  2-H ) :   0.6167 
B(  1-C ,  9-C ) :  -0.1307 B(  1-C , 11-O ) :   0.5309 B(  1-C , 15-O ) :  -0.1076 
B(  1-C , 16-O ) :  -0.0953 B(  1-C , 17-H ) :  -0.0562 B(  2-H , 11-O ) :  -0.0767 
B(  3-C ,  4-H ) :   0.5550 B(  3-C ,  5-C ) :   0.2686 B(  3-C ,  6-H ) :  -0.0520 
B(  3-C , 11-O ) :  -0.0632 B(  3-C , 14-O ) :  -0.1201 B(  3-C , 15-O ) :   0.6319 
B(  3-C , 22-H ) :  -0.1037 B(  4-H ,  5-C ) :  -0.0769 B(  4-H , 15-O ) :  -0.0783 
B(  5-C ,  6-H ) :   0.5804 B(  5-C ,  7-C ) :   0.0602 B(  5-C ,  8-H ) :  -0.0769 
B(  5-C ,  9-C ) :  -0.0502 B(  5-C , 13-O ) :  -0.1210 B(  5-C , 14-O ) :   0.6242 
B(  5-C , 15-O ) :  -0.0584 B(  5-C , 21-H ) :  -0.1042 B(  6-H , 14-O ) :  -0.0787 
B(  7-C ,  8-H ) :   0.5068 B(  7-C ,  9-C ) :   0.4114 B(  7-C , 10-H ) :  -0.1468 
B(  7-C , 11-O ) :  -0.1049 B(  7-C , 12-O ) :  -0.1193 B(  7-C , 13-O ) :   0.6388 
B(  7-C , 20-H ) :  -0.1032 B(  8-H , 13-O ) :  -0.0778 B(  9-C , 10-H ) :   0.6888 
B(  9-C , 11-O ) :   0.5470 B(  9-C , 12-O ) :   0.6894 B(  9-C , 19-H ) :  -0.0690 
B( 10-H , 11-O ) :  -0.0654 B( 10-H , 12-O ) :  -0.0856 B( 11-O , 12-O ) :  -0.1092 
B( 12-O , 19-H ) :   0.5248 B( 13-O , 20-H ) :   0.5275 B( 14-O , 21-H ) :   0.5383 
B( 14-O , 22-H ) :   0.0585 B( 15-O , 22-H ) :   0.5199 B( 16-O , 17-H ) :  -0.0663 
B( 16-O , 18-H ) :  -0.0585 B( 16-O , 23-H ) :   0.5308 B( 17-H , 18-H ) :  -0.0695 



                     *******************************
                     * LOEWDIN POPULATION ANALYSIS *
                     *******************************

----------------------
LOEWDIN ATOMIC CHARGES
----------------------
   0 C :   -0.124098
   1 C :   -0.069648
   2 H :    0.111843
   3 C :   -0.076296
   4 H :    0.092688
   5 C :   -0.078874
   6 H :    0.122280
   7 C :   -0.098820
   8 H :    0.089685
   9 C :   -0.003713
  10 H :    0.101973
  11 O :   -0.155328
  12 O :   -0.294509
  13 O :   -0.316126
  14 O :   -0.305933
  15 O :   -0.317700
  16 O :   -0.333777
  17 H :    0.098364
  18 H :    0.126818
  19 H :    0.290928
  20 H :    0.284811
  21 H :    0.288427
  22 H :    0.285846
  23 H :    0.281159

-------------------------------
LOEWDIN REDUCED ORBITAL CHARGES
-------------------------------
  0 C s       :     2.916303  s :     2.916303
      pz      :     1.056074  p :     3.063571
      px      :     1.051312
      py      :     0.956186
      dz2     :     0.041137  d :     0.144224
      dxz     :     0.014841
      dyz     :     0.024593
      dx2y2   :     0.023606
      dxy     :     0.040047

  1 C s       :     2.902203  s :     2.902203
      pz      :     1.089926  p :     3.013135
      px      :     0.984351
      py      :     0.938858
      dz2     :     0.038299  d :     0.154310
      dxz     :     0.019383
      dyz     :     0.021614
      dx2y2   :     0.034746
      dxy     :     0.040269

  2 H s       :     0.888157  s :     0.888157

  3 C s       :     2.895115  s :     2.895115
      pz      :     1.070268  p :     3.020606
      px      :     0.991773
      py      :     0.958564
      dz2     :     0.042367  d :     0.160575
      dxz     :     0.019968
      dyz     :     0.025152
      dx2y2   :     0.035665
      dxy     :     0.037423

  4 H s       :     0.907312  s :     0.907312

  5 C s       :     2.891756  s :     2.891756
      pz      :     1.078407  p :     3.027046
      px      :     1.031727
      py      :     0.916911
      dz2     :     0.038883  d :     0.160073
      dxz     :     0.012880
      dyz     :     0.023850
      dx2y2   :     0.040594
      dxy     :     0.043866

  6 H s       :     0.877720  s :     0.877720

  7 C s       :     2.904704  s :     2.904704
      pz      :     1.056050  p :     3.034111
      px      :     0.904715
      py      :     1.073346
      dz2     :     0.043556  d :     0.160004
      dxz     :     0.032489
      dyz     :     0.011865
      dx2y2   :     0.032679
      dxy     :     0.039414

  8 H s       :     0.910315  s :     0.910315

  9 C s       :     2.888537  s :     2.888537
      pz      :     1.079247  p :     2.888314
      px      :     0.850953
      py      :     0.958114
      dz2     :     0.051151  d :     0.226862
      dxz     :     0.034825
      dyz     :     0.022058
      dx2y2   :     0.062131
      dxy     :     0.056697

 10 H s       :     0.898027  s :     0.898027

 11 O s       :     3.470366  s :     3.470366
      pz      :     1.755986  p :     4.655336
      px      :     1.298574
      py      :     1.600776
      dz2     :     0.003618  d :     0.029625
      dxz     :     0.006600
      dyz     :     0.003226
      dx2y2   :     0.008258
      dxy     :     0.007923

 12 O s       :     3.526155  s :     3.526155
      pz      :     1.471357  p :     4.741165
      px      :     1.718589
      py      :     1.551219
      dz2     :     0.009833  d :     0.027189
      dxz     :     0.004143
      dyz     :     0.003459
      dx2y2   :     0.003132
      dxy     :     0.006623

 13 O s       :     3.534333  s :     3.534333
      pz      :     1.833350  p :     4.754531
      px      :     1.372636
      py      :     1.548544
      dz2     :     0.004297  d :     0.027262
      dxz     :     0.004291
      dyz     :     0.001627
      dx2y2   :     0.007514
      dxy     :     0.009533

 14 O s       :     3.533025  s :     3.533025
      pz      :     1.411719  p :     4.745923
      px      :     1.786905
      py      :     1.547299
      dz2     :     0.010878  d :     0.026985
      dxz     :     0.002963
      dyz     :     0.004048
      dx2y2   :     0.005043
      dxy     :     0.004053

 15 O s       :     3.530560  s :     3.530560
      pz      :     1.853499  p :     4.760188
      px      :     1.632969
      py      :     1.273720
      dz2     :     0.004099  d :     0.026952
      dxz     :     0.003086
      dyz     :     0.002556
      dx2y2   :     0.004890
      dxy     :     0.012321

 16 O s       :     3.538809  s :     3.538809
      pz      :     1.811566  p :     4.767636
      px      :     1.654399
      py      :     1.301671
      dz2     :     0.004219  d :     0.027331
      dxz     :     0.002856
      dyz     :     0.004410
      dx2y2   :     0.002711
      dxy     :     0.013135

 17 H s       :     0.901636  s :     0.901636

 18 H s       :     0.873182  s :     0.873182

 19 H s       :     0.709072  s :     0.709072

 20 H s       :     0.715189  s :     0.715189

 21 H s       :     0.711573  s :     0.711573

 22 H s       :     0.714154  s :     0.714154

 23 H s       :     0.718841  s :     0.718841


---------------------------------
LOEWDIN BOND ORDERS (THRESH 0.050000)
---------------------------------
B(  0-C ,  1-C ) :   1.0654 B(  0-C ,  3-C ) :   0.0588 B(  0-C , 11-O ) :   0.0555 
B(  0-C , 16-O ) :   1.2567 B(  0-C , 17-H ) :   0.9025 B(  0-C , 18-H ) :   0.9023 
B(  1-C ,  2-H ) :   0.8633 B(  1-C ,  3-C ) :   1.0142 B(  1-C ,  5-C ) :   0.0581 
B(  1-C ,  9-C ) :   0.0704 B(  1-C , 11-O ) :   1.1162 B(  1-C , 15-O ) :   0.0642 
B(  1-C , 16-O ) :   0.0856 B(  3-C ,  4-H ) :   0.8640 B(  3-C ,  5-C ) :   1.0166 
B(  3-C ,  7-C ) :   0.0609 B(  3-C , 11-O ) :   0.0660 B(  3-C , 14-O ) :   0.0840 
B(  3-C , 15-O ) :   1.2284 B(  5-C ,  6-H ) :   0.8641 B(  5-C ,  7-C ) :   1.0273 
B(  5-C ,  9-C ) :   0.0590 B(  5-C , 13-O ) :   0.0615 B(  5-C , 14-O ) :   1.2227 
B(  5-C , 15-O ) :   0.0748 B(  7-C ,  8-H ) :   0.8619 B(  7-C ,  9-C ) :   1.0048 
B(  7-C , 11-O ) :   0.0721 B(  7-C , 12-O ) :   0.0809 B(  7-C , 13-O ) :   1.2348 
B(  7-C , 14-O ) :   0.0700 B(  9-C , 10-H ) :   0.8696 B(  9-C , 11-O ) :   1.1690 
B(  9-C , 12-O ) :   1.2851 B(  9-C , 13-O ) :   0.0851 B( 11-O , 12-O ) :   0.0717 
B( 12-O , 19-H ) :   0.8692 B( 13-O , 20-H ) :   0.8697 B( 14-O , 21-H ) :   0.8808 
B( 15-O , 22-H ) :   0.8647 B( 16-O , 23-H ) :   0.8856 

------------------------------------------
LOEWDIN REDUCED ORBITAL POPULATIONS PER MO
-------------------------------------------
THRESHOLD FOR PRINTING IS 0.1%%
                      0         1         2         3         4         5   
                 -18.78864 -18.77897 -18.76508 -18.75800 -18.75566 -18.74426
                   2.00000   2.00000   2.00000   2.00000   2.00000   2.00000
                  --------  --------  --------  --------  --------  --------
11 O  s              99.9       0.0       0.0       0.0       0.0       0.0
12 O  s               0.0      99.9       0.0       0.0       0.0       0.0
13 O  s               0.0       0.0       0.0      99.9       0.0       0.0
14 O  s               0.0       0.0      99.9       0.0       0.0       0.0
15 O  s               0.0       0.0       0.0       0.0      99.9       0.0
16 O  s               0.0       0.0       0.0       0.0       0.0      99.9

                      6         7         8         9        10        11   
                  -9.99938  -9.95084  -9.95052  -9.94872  -9.94712  -9.93034
                   2.00000   2.00000   2.00000   2.00000   2.00000   2.00000
                  --------  --------  --------  --------  --------  --------
 0 C  s               0.0       0.0       0.0       0.0       0.0      99.6
 1 C  s               0.0       0.0       0.0      99.6       0.0       0.0
 3 C  s               0.0       0.0       0.0       0.0      99.5       0.0
 5 C  s               0.0       0.1      99.4       0.0       0.0       0.0
 7 C  s               0.0      99.4       0.1       0.0       0.0       0.0
 9 C  s              99.6       0.0       0.0       0.0       0.0       0.0
11 O  px              0.1       0.0       0.0       0.0       0.0       0.0

                     12        13        14        15        16        17   
                  -1.00079  -0.95382  -0.94305  -0.92886  -0.92277  -0.91715
                   2.00000   2.00000   2.00000   2.00000   2.00000   2.00000
                  --------  --------  --------  --------  --------  --------
 0 C  s               0.4       0.0       1.9       1.6       0.1       7.1
 0 C  pz              0.1       0.0       0.3       0.2       0.0       1.2
 0 C  px              0.4       0.0       0.2       0.0       0.0       1.4
 0 C  py              0.0       0.0       0.4       1.0       0.0       5.1
 0 C  dyz             0.0       0.0       0.0       0.0       0.0       0.3
 0 C  dx2y2           0.0       0.0       0.0       0.0       0.0       0.2
 0 C  dxy             0.0       0.0       0.0       0.0       0.0       0.2
 1 C  s               4.1       0.2       4.6       0.8       0.1       0.2
 1 C  pz              0.3       0.0       0.3       0.0       0.0       0.0
 1 C  px              2.0       0.0       0.5       0.1       0.1       2.6
 1 C  py              1.6       0.6       0.7       1.6       0.7       0.1
 1 C  dxy             0.2       0.0       0.1       0.0       0.0       0.1
 2 H  s               0.5       0.0       0.6       0.1       0.0       0.0
 3 C  s               0.6       4.7       2.0       1.5       3.1       0.0
 3 C  pz              0.1       0.3       0.2       0.1       0.3       0.0
 3 C  px              0.0       0.1       0.6       0.7       3.0       0.0
 3 C  py              0.3       2.0       0.1       2.4       1.7       0.1
 3 C  dxy             0.0       0.1       0.0       0.1       0.3       0.0
 4 H  s               0.1       0.6       0.3       0.1       0.3       0.0
 5 C  s               0.5       9.6       0.1       0.0       1.4       0.0
 5 C  pz              0.0       1.3       0.0       0.0       0.4       0.0
 5 C  px              0.0       0.2       1.2       0.9       1.0       0.0
 5 C  py              0.2       3.2       0.0       0.4       3.3       0.2
 5 C  dyz             0.0       0.2       0.0       0.0       0.1       0.0
 5 C  dx2y2           0.0       0.1       0.0       0.0       0.2       0.0
 5 C  dxy             0.0       0.1       0.0       0.0       0.1       0.0
 6 H  s               0.1       1.3       0.0       0.0       0.1       0.0
 7 C  s               2.1       2.4       3.3       3.1       1.1       0.2
 7 C  pz              0.2       0.2       0.4       0.4       0.2       0.0
 7 C  px              0.1       0.2       3.4       2.6       2.3       0.0
 7 C  py              1.0       1.4       0.0       0.1       0.1       0.0
 7 C  dxz             0.0       0.0       0.1       0.1       0.1       0.0
 7 C  dx2y2           0.0       0.0       0.1       0.2       0.1       0.0
 8 H  s               0.4       0.3       0.4       0.3       0.1       0.0
 9 C  s              15.9       0.2       0.4       0.1       0.0       0.0
 9 C  pz              1.7       0.0       0.0       0.0       0.0       0.0
 9 C  px              0.7       0.0       7.8       1.6       0.3       2.4
 9 C  py              1.9       1.0       0.7       3.2       0.2       0.9
 9 C  dz2             0.2       0.0       0.0       0.0       0.0       0.0
 9 C  dxz             0.0       0.0       0.2       0.1       0.0       0.1
 9 C  dx2y2           0.1       0.0       0.3       0.1       0.0       0.1
 9 C  dxy             0.1       0.0       0.1       0.2       0.0       0.1
10 H  s               1.8       0.0       0.1       0.0       0.0       0.0
11 O  s              28.6       0.3      13.7       4.3       0.6       6.6
11 O  pz              0.5       0.0       0.2       0.1       0.0       0.1
11 O  px              0.9       0.1       0.2       0.1       0.0       0.0
11 O  py              0.6       0.0       0.8       0.3       0.0       0.3
12 O  s              21.5       2.1      14.6      14.8       0.1       6.4
12 O  pz              0.2       0.0       0.2       0.3       0.0       0.1
12 O  px              1.2       0.1       0.2       0.3       0.0       0.1
12 O  py              0.9       0.0       0.2       0.1       0.0       0.0
13 O  s               1.2       5.3      17.2      20.9      12.6       0.9
13 O  pz              0.0       0.1       0.2       0.2       0.1       0.0
13 O  px              0.1       0.2       0.2       0.2       0.1       0.0
13 O  py              0.1       0.1       0.7       0.8       0.5       0.0
14 O  s               0.2      34.2       0.3       0.1      23.3       0.5
14 O  pz              0.0       0.3       0.0       0.0       0.4       0.0
14 O  py              0.0       1.8       0.0       0.0       0.8       0.0
15 O  s               0.2      12.4       5.7      13.5      26.1       0.0
15 O  pz              0.0       0.1       0.0       0.1       0.2       0.0
15 O  px              0.0       0.8       0.3       0.7       1.2       0.0
16 O  s               0.2       0.0       4.2       6.9       0.5      46.9
16 O  pz              0.0       0.0       0.1       0.1       0.0       0.7
16 O  px              0.0       0.0       0.2       0.3       0.0       2.0
17 H  s               0.1       0.0       0.3       0.2       0.0       0.7
18 H  s               0.1       0.0       0.3       0.1       0.1       0.8
19 H  s               4.5       0.4       2.6       2.9       0.0       1.2
20 H  s               0.4       0.9       3.7       3.8       2.6       0.1
21 H  s               0.1       6.9       0.1       0.0       4.7       0.1
22 H  s               0.1       3.1       1.1       2.7       4.6       0.0
23 H  s               0.1       0.0       1.0       1.5       0.1       9.2

                     18        19        20        21        22        23   
                  -0.71109  -0.69803  -0.61878  -0.59276  -0.56921  -0.55226
                   2.00000   2.00000   2.00000   2.00000   2.00000   2.00000
                  --------  --------  --------  --------  --------  --------
 0 C  s               1.9       5.8      12.1       2.3       6.1       2.9
 0 C  pz              0.0       0.0       0.0       0.1       0.2       1.1
 0 C  px              0.8       2.8       0.0       0.0       1.4       3.1
 0 C  py              0.7       1.2       1.5       0.0       0.2       0.3
 0 C  dx2y2           0.0       0.1       0.0       0.0       0.0       0.0
 1 C  s               6.7      13.3       0.9       0.1       1.4       5.2
 1 C  pz              0.1       0.4       0.0       0.1       0.0       3.6
 1 C  px              0.0       1.5       5.7       0.8       1.6       0.4
 1 C  py              3.8       0.1       0.0       6.3       0.2       2.0
 1 C  dyz             0.0       0.0       0.0       0.1       0.0       0.0
 1 C  dxy             0.2       0.0       0.0       0.1       0.0       0.0
 2 H  s               1.4       2.1       0.3       0.1       0.3       3.9
 3 C  s              11.7       0.8       2.3       8.8       0.2       2.9
 3 C  pz              0.2       0.0       0.0       0.1       0.4       3.2
 3 C  px              2.1       2.0       3.2       0.2       1.6       0.0
 3 C  py              3.3       2.2       0.2       0.3       1.6       0.3
 3 C  dxy             0.1       0.0       0.0       0.0       0.0       0.0
 4 H  s               2.4       0.2       0.4       2.5       0.3       3.0
 5 C  s              12.1       2.9       4.4       1.3       6.4       0.4
 5 C  pz              0.0       0.0       0.1       0.1       3.1       3.0
 5 C  px              1.0       0.5       1.7       6.0       0.4       0.4
 5 C  py              4.7       1.8       0.2       0.3       3.9       0.4
 5 C  dxy             0.0       0.1       0.0       0.1       0.0       0.0
 6 H  s               2.5       0.6       1.3       0.5       4.3       1.4
 7 C  s               6.1       8.7       2.2       5.7       4.6       0.2
 7 C  pz              0.0       0.1       0.0       0.5       2.1       3.1
 7 C  px              3.3       3.2       0.0       0.0       0.1       0.0
 7 C  py              0.7       0.2       3.9       3.3       0.6       0.0
 8 H  s               1.2       1.7       0.6       2.0       3.4       1.3
 9 C  s               0.1       8.9       8.2       4.3       0.4       0.5
 9 C  pz              0.0       0.0       0.6       1.8       0.9       7.3
 9 C  px              1.6       0.2       1.7       0.0       1.1       4.2
 9 C  py              2.3       2.5       0.8       0.9       2.5       0.0
 9 C  dxz             0.1       0.0       0.0       0.0       0.0       0.1
 9 C  dx2y2           0.2       0.0       0.0       0.0       0.0       0.0
 9 C  dxy             0.0       0.1       0.0       0.0       0.0       0.2
10 H  s               0.1       1.8       3.0       2.4       0.4       3.0
11 O  s               4.5       0.0       1.6       0.8       0.2       0.8
11 O  pz              0.0       0.1       0.2       0.4       0.1       2.0
11 O  px              0.8       9.6       0.7       4.1       2.3      10.2
11 O  py              1.0       0.7       0.0       0.0       1.9       1.8
12 O  s               0.1       2.6       1.1       0.5       0.1       0.5
12 O  pz              0.0       1.0       4.1       4.9       1.2       5.3
12 O  px              0.1       0.3       0.2       0.5       0.6       0.3
12 O  py              0.0       1.7       5.0       3.5       0.2       1.6
13 O  s               1.7       2.4       1.0       0.5       0.6       0.1
13 O  pz              0.1       0.1       0.1       0.6       0.7       0.2
13 O  px              1.3       2.0       1.1       5.2       2.7       0.2
13 O  py              0.3       0.3       0.0       1.9       0.2       0.0
14 O  s               2.9       0.8       0.8       0.4       0.2       0.1
14 O  pz              1.2       0.4       2.1       1.0      11.3       1.9
14 O  px              0.3       0.0       0.9       0.0       3.0       0.1
14 O  py              1.0       0.3       1.1       0.8       2.8       0.1
15 O  s               3.8       0.3       0.5       1.4       0.2       0.2
15 O  pz              0.0       0.0       0.0       0.3       0.0       0.7
15 O  px              0.2       0.0       0.4       0.3       0.2       0.1
15 O  py              2.8       0.7       0.2       7.9       0.3       3.2
15 O  dxy             0.1       0.0       0.0       0.1       0.0       0.0
16 O  s               0.4       2.1       1.8       0.7       0.6       0.0
16 O  pz              0.0       0.0       0.3       0.1       0.5       0.5
16 O  px              0.0       0.0       0.1       0.0       0.2       0.5
16 O  py              0.3       1.2       5.6       1.7       6.2       3.3
17 H  s               0.4       1.3       2.9       0.8       1.8       1.6
18 H  s               0.4       1.2       4.2       0.5       2.7       2.1
19 H  s               0.0       1.4       3.0       2.8       0.4       1.7
20 H  s               0.9       1.3       0.4       2.4       1.0       0.0
21 H  s               1.3       0.4       1.5       0.5       5.2       0.5
22 H  s               1.9       0.3       0.1       2.8       0.1       1.1
23 H  s               0.2       0.8       2.3       0.6       2.1       1.1

                     24        25        26        27        28        29   
                  -0.50756  -0.50055  -0.47523  -0.46075  -0.45295  -0.43728
                   2.00000   2.00000   2.00000   2.00000   2.00000   2.00000
                  --------  --------  --------  --------  --------  --------
 0 C  s               0.1       0.1       0.1       0.6       0.4       0.0
 0 C  pz              2.9       0.2       0.3      10.7       1.3       0.7
 0 C  px              0.7       0.9       2.0       1.4       4.7       0.0
 0 C  py              0.7       0.2       0.9       0.5       3.6       0.2
 0 C  dyz             0.0       0.0       0.0       0.1       0.1       0.0
 1 C  s               0.8       0.1       0.9       0.7       1.1       0.4
 1 C  pz             10.6       1.0       0.3       8.5       0.0       0.3
 1 C  px              0.2       1.2       2.1       0.0       3.4       0.0
 1 C  py              4.0       0.0       0.4       0.0       2.3       0.0
 1 C  dxy             0.0       0.0       0.0       0.0       0.2       0.0
 2 H  s               5.3       0.5       0.8       4.3       0.7       0.6
 3 C  s               0.5       0.4       0.8       0.1       0.2       0.4
 3 C  pz              8.2       0.3       1.7       0.2       0.4      12.1
 3 C  px              3.1       6.2       2.3       2.1       1.0       0.1
 3 C  py              0.2       0.8       0.0       0.2       4.1       0.1
 3 C  dxy             0.0       0.0       0.0       0.0       0.2       0.1
 4 H  s               3.7       0.3       1.6       0.0       0.2       6.2
 5 C  s               0.0       0.1       0.1       0.0       0.3       2.1
 5 C  pz              3.4       0.1       0.1       4.9       0.7       4.9
 5 C  px              0.9       3.1       0.2       0.6       0.3       0.1
 5 C  py              0.3       1.9       6.0       0.0       1.3       6.0
 5 C  dz2             0.0       0.0       0.0       0.0       0.0       0.1
 5 C  dx2y2           0.0       0.0       0.3       0.1       0.0       0.1
 6 H  s               0.7       0.0       0.0       1.3       0.0       4.5
 7 C  s               0.0       0.2       0.7       0.1       0.2       0.0
 7 C  pz              1.9       0.1       7.0      10.5       0.5       0.0
 7 C  px              0.1       7.2       0.1       1.0       0.3       2.1
 7 C  py              0.8       3.5       7.6       2.0       5.0       1.2
 7 C  dxz             0.0       0.1       0.0       0.0       0.0       0.0
 7 C  dx2y2           0.0       0.0       0.1       0.0       0.0       0.0
 7 C  dxy             0.1       0.0       0.0       0.0       0.0       0.2
 8 H  s               0.7       0.0       4.2       3.9       0.0       0.0
 9 C  s               0.0       0.1       0.0       0.8       0.0       0.9
 9 C  pz              0.2       0.1      11.6       0.8       0.1       3.8
 9 C  px              7.0       0.1       0.5       0.1       3.1       1.4
 9 C  py              0.5       6.4       0.7       7.5       4.3       1.8
 9 C  dz2             0.0       0.0       0.0       0.1       0.0       0.1
 9 C  dxy             0.2       0.0       0.0       0.1       0.0       0.1
10 H  s               0.2       0.1       3.0       1.4       0.1       3.6
11 O  s               0.5       1.5       0.0       0.0       0.5       1.3
11 O  pz              3.0       0.3       1.4       1.0       0.0       3.9
11 O  px              8.7       0.2       0.9       0.0       6.5       1.0
11 O  py              0.2       3.8       0.0       0.9       2.2       1.1
12 O  s               0.1       0.0       1.0       0.0       0.1       0.1
12 O  pz              5.6       3.7       1.9       4.0       0.4       2.6
12 O  px              0.2       1.0       0.0       0.9       3.7       0.1
12 O  py              5.5       1.2       2.2       2.1       0.0       3.6
13 O  s               0.2       0.0       0.8       0.0       0.6       0.0
13 O  pz              0.0       1.0       0.4       2.0       0.0       0.4
13 O  px              1.0      13.1       3.0       0.1       1.0       2.9
13 O  py              1.3       6.5       4.3       0.4       1.3       0.2
13 O  dx2y2           0.0       0.1       0.0       0.0       0.0       0.0
14 O  s               0.2       0.0       0.6       0.7       0.4       0.3
14 O  pz              0.1       2.4      10.9       0.5       0.9       7.0
14 O  px              1.1       0.0       1.7       0.2       0.3       4.4
14 O  py              0.4       1.0       0.9       0.9       0.3       1.2
15 O  s               0.2       0.0       0.1       0.1       0.0       0.6
15 O  pz              0.6       0.6       0.2       0.1       0.4       2.0
15 O  px              0.3       0.0       0.2       0.3       0.7       0.1
15 O  py              4.4      12.4       1.4       0.6      13.4       4.1
15 O  dxy             0.0       0.1       0.0       0.0       0.1       0.0
16 O  s               0.1       0.0       0.0       0.3       0.4       0.1
16 O  pz              0.2       0.0       0.4       0.4       0.3       0.2
16 O  px              0.2       0.2       0.5       0.6       1.8       0.0
16 O  py              0.3       2.3       3.1       9.3      13.8       0.0
17 H  s               1.3       0.0       0.1       5.3       1.2       0.3
18 H  s               0.3       0.1       0.0       0.0       0.1       0.0
19 H  s               3.0       1.4       0.0       1.9       0.1       1.7
20 H  s               0.7       5.8       1.7       0.0       0.0       0.9
21 H  s               0.2       0.8       3.6       0.0       0.2       3.6
22 H  s               1.2       3.6       0.3       0.2       3.6       1.3
23 H  s               0.1       0.8       1.0       2.7       4.4       0.0

                     30        31        32        33        34        35   
                  -0.42760  -0.41388  -0.39991  -0.37393  -0.36283  -0.34894
                   2.00000   2.00000   2.00000   2.00000   2.00000   2.00000
                  --------  --------  --------  --------  --------  --------
 0 C  s               0.1       0.7       0.3       0.2       0.1       0.1
 0 C  pz              0.1       0.6      16.5       2.3       0.9       3.7
 0 C  px              0.9       2.9       4.5       6.2       0.4       3.2
 0 C  py              0.0       0.6       0.0      27.8       0.1       0.1
 0 C  dxy             0.1       0.1       0.0       0.5       0.0       0.1
 1 C  s               0.5       0.1       0.0       0.4       0.1       0.0
 1 C  pz              1.0       3.0       0.1       0.0       1.3      11.2
 1 C  px              1.8       3.0       9.1       0.3       0.4       1.6
 1 C  py              4.4       2.6       1.7       0.1       0.1       2.5
 1 C  dz2             0.0       0.0       0.0       0.0       0.0       0.2
 1 C  dxz             0.1       0.1       0.0       0.0       0.0       0.0
 1 C  dxy             0.1       0.1       0.0       0.3       0.0       0.2
 2 H  s               0.1       1.2       0.0       0.2       0.6       5.9
 3 C  s               0.5       0.2       0.0       0.0       0.2       0.1
 3 C  pz              0.3       1.7       6.8       0.0       1.8       8.0
 3 C  px              0.6       5.0       0.2       0.7       0.7       0.5
 3 C  py              5.5       8.8       0.7       0.7       0.8       2.9
 3 C  dz2             0.0       0.0       0.0       0.0       0.1       0.2
 3 C  dx2y2           0.2       0.0       0.0       0.0       0.0       0.0
 3 C  dxy             0.2       0.0       0.0       0.0       0.0       0.2
 4 H  s               0.0       0.3       3.0       0.0       2.3       5.0
 5 C  s               0.5       0.0       0.3       0.1       0.3       0.1
 5 C  pz              4.3       0.2       0.2       0.0      16.3       3.6
 5 C  px              2.3      13.3       1.3       1.2       0.0       1.7
 5 C  py              0.8       0.3       0.9       0.0       0.3       0.2
 5 C  dz2             0.0       0.0       0.0       0.0       0.3       0.1
 5 C  dyz             0.0       0.0       0.0       0.0       0.3       0.0
 5 C  dx2y2           0.0       0.2       0.0       0.0       0.0       0.0
 6 H  s               0.7       0.1       0.4       0.1      10.1       2.6
 7 C  s               0.5       0.1       0.0       0.0       0.3       0.0
 7 C  pz              3.0       0.0       7.7       0.1       7.2       0.0
 7 C  px              4.0       2.5       2.7       0.2       0.8       0.2
 7 C  py              2.0       3.0       0.0       0.2       0.0       0.0
 7 C  dz2             0.1       0.0       0.1       0.0       0.4       0.0
 7 C  dxz             0.1       0.0       0.0       0.0       0.1       0.0
 7 C  dx2y2           0.1       0.1       0.1       0.0       0.0       0.0
 7 C  dxy             0.2       0.0       0.0       0.0       0.0       0.0
 8 H  s               2.4       0.0       3.6       0.0       7.4       0.0
 9 C  s               0.2       0.1       0.1       0.3       0.2       0.3
 9 C  pz              8.3       0.0       1.9       0.3       3.4       4.5
 9 C  px              0.7       0.0       0.7       0.4       0.7       0.1
 9 C  py              0.2       0.1       0.4       0.2       0.7       0.2
 9 C  dz2             0.1       0.0       0.0       0.0       0.1       0.2
 9 C  dxz             0.0       0.0       0.0       0.0       0.0       0.1
 9 C  dxy             0.0       0.3       0.1       0.0       0.0       0.1
10 H  s               4.5       0.1       0.4       0.0       2.1       4.0
11 O  s               0.0       0.1       0.4       1.7       0.0       0.5
11 O  pz              4.2       0.4       2.9       0.1       0.0       8.0
11 O  px              1.6       0.1       0.1       1.1       0.1       0.0
11 O  py              1.6       5.8       4.0       0.5       2.3       1.4
12 O  s               0.2       0.7       0.7       0.5       0.0       0.0
12 O  pz              0.1       2.3       1.7       0.6       0.9       0.3
12 O  px              0.5       0.4       0.7       3.4       0.0       0.0
12 O  py              4.1       0.0       0.9       0.3       3.4       4.8
13 O  s               0.2       0.1       0.0       0.3       0.6       0.0
13 O  pz              0.1       0.8       4.4       0.1       4.2       0.3
13 O  px              9.0       3.8       0.1       0.7       0.8       0.4
13 O  py              1.5       0.2       0.2       1.3       0.7       0.2
14 O  s               1.1       0.0       0.1       0.1       1.3       0.0
14 O  pz              0.6       3.2       0.5       0.7       2.1       0.1
14 O  px              0.1       2.5       0.4       0.6       2.1       2.0
14 O  py              4.7       3.0       0.0       0.1      15.5       1.0
15 O  s               0.5       2.4       0.0       0.1       0.2       0.2
15 O  pz              0.7       0.0       2.3       0.0       0.5       9.5
15 O  px              0.2      10.5       0.1       0.0       0.0       0.1
15 O  py              7.5       0.0       0.1       0.0       0.8       0.0
16 O  s               0.6       1.7       0.0       1.0       0.0       0.0
16 O  pz              0.0       0.3       3.4       9.5       0.2       0.7
16 O  px              1.4       4.2       1.6       5.1       0.0       0.6
16 O  py              0.7       0.9       2.0       6.4       0.7       1.5
16 O  dxy             0.0       0.0       0.0       0.1       0.0       0.0
17 H  s               0.2       1.4       7.8       1.8       0.6       2.3
18 H  s               0.0       0.4       0.4      19.1       0.3       0.8
19 H  s               0.3       0.6       0.2       0.1       0.1       0.4
20 H  s               2.9       0.7       0.1       0.0       0.3       0.0
21 H  s               0.0       0.6       0.2       0.1       0.2       0.1
22 H  s               2.7       0.0       0.0       0.0       0.4       0.0
23 H  s               0.5       0.8       0.1       1.3       0.1       0.2

                     36        37        38        39        40        41   
                  -0.33212  -0.33030  -0.31241  -0.30468  -0.29146  -0.27665
                   2.00000   2.00000   2.00000   2.00000   2.00000   2.00000
                  --------  --------  --------  --------  --------  --------
 0 C  s               0.5       0.0       0.2       0.1       0.1       0.1
 0 C  pz              1.5       0.5       0.7       1.1       0.1       2.0
 0 C  px              1.8       0.1       1.3       0.1       0.1       6.0
 0 C  py              0.1       1.5       0.1       0.2       0.1       0.5
 0 C  dz2             0.0       0.0       0.0       0.0       0.0       0.2
 0 C  dx2y2           0.0       0.1       0.0       0.1       0.0       0.3
 0 C  dxy             0.0       0.0       0.0       0.2       0.0       0.3
 1 C  s               0.0       0.1       0.1       0.9       0.1       0.2
 1 C  pz              0.3       3.1       3.2       0.0       0.9       0.0
 1 C  px              1.2       0.1       0.1       0.2       0.2       2.1
 1 C  py              0.3       2.0       0.4       2.1       0.4       1.3
 1 C  dz2             0.1       0.1       0.1       0.1       0.1       0.1
 1 C  dx2y2           0.3       0.0       0.2       0.0       0.0       0.1
 2 H  s               0.6       2.3       2.4       0.8       1.5       0.5
 3 C  s               0.1       0.1       0.1       0.1       0.1       1.0
 3 C  pz              0.2       0.5       0.0       0.8       0.4       0.4
 3 C  px              0.1       0.1       0.3       3.3       0.1       0.0
 3 C  py              1.9       0.9       0.1       0.2       0.1       0.7
 3 C  dz2             0.1       0.1       0.0       0.0       0.1       0.0
 3 C  dx2y2           0.0       0.0       0.0       0.6       0.0       0.1
 4 H  s               0.6       0.9       0.0       0.5       1.3       0.1
 5 C  s               0.2       0.1       0.5       0.3       0.1       0.1
 5 C  pz              0.0       0.0       3.1       0.0       1.6       0.3
 5 C  px              0.1       0.3       0.0       3.9       0.7       0.7
 5 C  py              0.1       0.1       2.0       0.1       3.2       0.1
 5 C  dz2             0.1       0.0       0.5       0.0       0.3       0.1
 5 C  dx2y2           0.0       0.0       0.1       0.0       0.0       0.1
 5 C  dxy             0.1       0.0       0.0       0.0       0.1       0.2
 6 H  s               0.2       0.0       4.6       0.1       2.8       0.8
 7 C  s               0.0       0.2       0.8       0.1       1.3       0.1
[...]
 5 C  px              0.1       0.1       0.1       0.3       0.1       0.0
 5 C  py              0.3       1.6       0.1       0.3       1.2       0.0
 5 C  dz2             0.0       0.2       0.0       0.2       0.5       0.0
 5 C  dxz             0.1       0.1       0.1       0.4       0.2       0.0
 5 C  dyz             0.1       1.3       0.0       0.2       2.1       0.0
 5 C  dx2y2           0.6       2.5       0.3       1.4       0.6       0.1
 5 C  dxy             0.3       2.6       0.4       0.4       0.4       0.0
 7 C  s               0.0       0.2       1.0       0.2       0.6       0.1
 7 C  pz              0.0       0.1       0.2       0.1       0.1       0.0
 7 C  px              0.0       0.5       1.9       0.4       0.5       0.2
 7 C  py              0.1       0.2       0.1       0.0       0.1       0.0
 7 C  dz2             0.0       0.0       0.5       0.0       0.1       0.0
 7 C  dxz             0.0       0.3       1.6       0.8       1.3       0.6
 7 C  dyz             0.1       0.1       0.3       0.0       0.0       0.0
 7 C  dx2y2           0.0       1.7       5.5       0.1       0.8       0.0
 7 C  dxy             0.0       0.4       0.7       0.3       0.0       0.0
 9 C  s               0.4       0.5       0.2       1.1       0.1       0.2
 9 C  px              0.1       0.1       0.3       0.0       0.1       3.2
 9 C  py              0.4       0.2       0.4       0.2       0.0       0.5
 9 C  dz2             0.2       0.3       0.1       0.8       0.1       0.0
 9 C  dxz             0.1       0.5       0.1       0.1       0.2       2.2
 9 C  dyz             0.1       0.0       0.0       0.0       0.0       0.4
 9 C  dx2y2           0.0       0.3       0.1       0.2       0.1       5.7
 9 C  dxy             1.5       1.2       5.5       1.5       0.2       1.3
11 O  s               0.0       0.3       0.8       0.2       0.4       0.0
11 O  px              0.0       0.3       0.0       1.0       0.0       5.1
11 O  py              0.0       0.0       0.0       0.1       0.0       0.7
11 O  dz2             0.0       1.6       1.2       0.7       1.7       0.0
11 O  dxz             0.0       0.9       0.0       3.4       0.0      11.8
11 O  dyz             0.3       0.0       0.0       0.2       0.0       1.3
11 O  dx2y2           0.1       0.1       2.3       0.0       0.1      16.7
11 O  dxy             0.6       4.7       7.7       9.1       1.0      17.4
12 O  s               0.6       0.8       0.6       0.8       0.1       1.7
12 O  pz              0.1       0.1       0.2       0.1       0.0       0.2
12 O  px              0.1       0.1       0.1       0.1       0.0       0.4
12 O  py              0.4       0.5       0.6       0.5       0.1       0.6
12 O  dz2             1.6       1.4       0.8       1.4       0.3       3.6
12 O  dxz             0.6       0.3       1.2       0.6       0.1       0.6
12 O  dyz             1.1       0.8       3.0       1.0       0.1       0.6
12 O  dx2y2           1.5       3.5       2.1       2.9       0.4       0.0
12 O  dxy             4.4       2.5       5.6       2.9       0.5       9.7
13 O  s               0.0       0.5       2.4       0.9       1.2       0.3
13 O  pz              0.0       0.1       0.3       0.0       0.1       0.0
13 O  px              0.0       0.6       2.4       0.5       0.7       0.2
13 O  py              0.0       0.0       0.1       0.0       0.0       0.0
13 O  dz2             0.0       0.2       1.2       1.2       1.7       0.7
13 O  dxz             0.1       3.5      13.4       1.4       2.7       0.2
13 O  dyz             0.0       0.1       0.3       0.0       0.1       0.0
13 O  dx2y2           0.3       4.7      19.6       3.7       5.2       0.7
13 O  dxy             0.1       1.9       1.8       0.2       0.9       0.5
14 O  s               0.4       2.1       0.0       0.7       2.5       0.0
14 O  pz              0.1       0.6       0.0       0.2       0.5       0.0
14 O  px              0.1       0.3       0.0       0.1       0.2       0.0
14 O  py              0.2       1.3       0.0       0.4       1.0       0.0
14 O  dz2             0.6       3.7       0.0       0.8       4.4       0.0
14 O  dxz             0.2       0.6       0.1       0.3       0.3       0.0
14 O  dyz             1.8       8.3       0.6       2.9       4.0       0.0
14 O  dx2y2           2.1       9.7       0.1       3.6       6.2       0.0
14 O  dxy             1.1       6.9       0.7       1.2       4.8       0.1
15 O  s               0.9       0.0       0.0       1.6       2.5       0.3
15 O  pz              0.1       0.0       0.0       0.1       0.1       0.0
15 O  px              0.2       0.0       0.0       0.4       0.4       0.0
15 O  py              0.6       0.0       0.0       1.2       1.8       0.1
15 O  dz2             1.0       0.2       0.1       1.5       4.1       0.3
15 O  dxz             1.5       0.0       0.0       3.2       2.0       0.1
15 O  dyz             2.1       0.1       0.0       3.4       3.3       0.1
15 O  dx2y2           0.1       0.5       0.0       0.0       0.2       0.2
15 O  dxy             9.5       0.0       0.1      14.7      17.5       1.0
16 O  s               2.4       0.8       0.4       0.3       0.3       0.0
16 O  pz              0.3       0.1       0.0       0.1       0.0       0.0
16 O  px              0.1       0.0       0.0       0.0       0.0       0.0
16 O  py              2.2       0.7       0.3       0.3       0.2       0.0
16 O  dz2             1.3       0.3       0.2       0.0       0.1       0.0
16 O  dxz             2.9       0.8       0.4       0.7       0.3       0.0
16 O  dyz            14.5       4.6       2.0       2.6       1.2       0.0
16 O  dx2y2           6.3       1.9       0.8       1.5       0.4       0.0
16 O  dxy            15.9       4.5       2.0       1.7       1.3       0.0
19 H  s               0.1       0.0       0.0       0.1       0.0       0.1
20 H  s               0.0       0.2       0.4       0.0       0.1       0.0
21 H  s               0.0       0.2       0.0       0.1       0.3       0.0
22 H  s               0.1       0.0       0.0       0.3       0.3       0.0
23 H  s               0.4       0.1       0.1       0.1       0.0       0.0



                      *****************************
                      * MAYER POPULATION ANALYSIS *
                      *****************************

  NA   - Mulliken gross atomic population
  ZA   - Total nuclear charge
  QA   - Mulliken gross atomic charge
  VA   - Mayer's total valence
  BVA  - Mayer's bonded valence
  FA   - Mayer's free valence

  ATOM       NA         ZA         QA         VA         BVA        FA
  0 C      5.9007     6.0000     0.0993     3.9533     3.9533    -0.0000
  1 C      6.0126     6.0000    -0.0126     4.0427     4.0427    -0.0000
  2 H      0.9348     1.0000     0.0652     0.9836     0.9836     0.0000
  3 C      5.9407     6.0000     0.0593     4.0058     4.0058    -0.0000
  4 H      0.9674     1.0000     0.0326     0.9770     0.9770    -0.0000
  5 C      5.9288     6.0000     0.0712     3.9725     3.9725     0.0000
  6 H      0.9297     1.0000     0.0703     0.9873     0.9873    -0.0000
  7 C      5.9589     6.0000     0.0411     4.0293     4.0293     0.0000
  8 H      0.9775     1.0000     0.0225     0.9853     0.9853     0.0000
  9 C      5.8332     6.0000     0.1668     4.1575     4.1575     0.0000
 10 H      0.9369     1.0000     0.0631     0.9756     0.9756    -0.0000
 11 O      8.3201     8.0000    -0.3201     2.1182     2.1182     0.0000
 12 O      8.3867     8.0000    -0.3867     2.0437     2.0437    -0.0000
 13 O      8.4025     8.0000    -0.4025     2.0239     2.0239    -0.0000
 14 O      8.4088     8.0000    -0.4088     2.0339     2.0339     0.0000
 15 O      8.4143     8.0000    -0.4143     2.0214     2.0214     0.0000
 16 O      8.4318     8.0000    -0.4318     2.0174     2.0174    -0.0000
 17 H      0.9375     1.0000     0.0625     0.9647     0.9647    -0.0000
 18 H      0.8954     1.0000     0.1046     0.9747     0.9747    -0.0000
 19 H      0.6931     1.0000     0.3069     0.8955     0.8955    -0.0000
 20 H      0.6965     1.0000     0.3035     0.9006     0.9006    -0.0000
 21 H      0.6960     1.0000     0.3040     0.8840     0.8840     0.0000
 22 H      0.6932     1.0000     0.3068     0.9031     0.9031     0.0000
 23 H      0.7029     1.0000     0.2971     0.8929     0.8929     0.0000

  Mayer bond orders larger than 0.100000
B(  0-C ,  1-C ) :   1.0572 B(  0-C , 16-O ) :   1.0814 B(  0-C , 17-H ) :   0.9042 
B(  0-C , 18-H ) :   0.9125 B(  1-C ,  2-H ) :   0.8693 B(  1-C ,  3-C ) :   0.9965 
B(  1-C , 11-O ) :   0.9660 B(  3-C ,  4-H ) :   0.8613 B(  3-C ,  5-C ) :   0.9981 
B(  3-C , 15-O ) :   1.0806 B(  5-C ,  6-H ) :   0.8687 B(  5-C ,  7-C ) :   1.0055 
B(  5-C , 14-O ) :   1.0486 B(  7-C ,  8-H ) :   0.8514 B(  7-C ,  9-C ) :   0.9830 
B(  7-C , 13-O ) :   1.1035 B(  9-C , 10-H ) :   0.8800 B(  9-C , 11-O ) :   1.0193 
B(  9-C , 12-O ) :   1.1166 B( 12-O , 19-H ) :   0.8393 B( 13-O , 20-H ) :   0.8326 
B( 14-O , 21-H ) :   0.8460 B( 15-O , 22-H ) :   0.8266 B( 16-O , 23-H ) :   0.8478 


-------
TIMINGS
-------

Total SCF time: 0 days 0 hours 0 min 9 sec 

Total time                  ....       9.057 sec
Sum of individual times     ....       8.687 sec  ( 95.9%)

SCF preparation             ....       0.165 sec  (  1.8%)
Fock matrix formation       ....       7.764 sec  ( 85.7%)
  Startup                   ....       0.056 sec  (  0.7% of F)
  Split-RI-J                ....       3.479 sec  ( 44.8% of F)
  XC integration            ....       3.815 sec  ( 49.1% of F)
    XC Preparation          ....       0.000 sec  (  0.0% of XC)
    Basis function eval.    ....       1.267 sec  ( 33.2% of XC)
    Density eval.           ....       0.717 sec  ( 18.8% of XC)
    XC-Functional eval.     ....       0.272 sec  (  7.1% of XC)
    XC-Potential eval.      ....       0.940 sec  ( 24.6% of XC)
Diagonalization             ....       0.000 sec  (  0.0%)
Density matrix formation    ....       0.163 sec  (  1.8%)
Total Energy calculation    ....       0.028 sec  (  0.3%)
Population analysis         ....       0.111 sec  (  1.2%)
Orbital Transformation      ....       0.057 sec  (  0.6%)
Orbital Orthonormalization  ....       0.000 sec  (  0.0%)
DIIS solution               ....       0.311 sec  (  3.4%)
  MO trafo                  ....       0.000 sec  (  0.0 % of DIIS)
  Orb grad                  ....       0.000 sec  (  0.0 % of DIIS)
  Energy W gradient         ....       0.000 sec  (  0.0 % of DIIS)
  DIIS error                ....       0.006 sec  (  2.0 % of DIIS)
  DIIS work                 ....       0.256 sec  ( 82.2 % of DIIS)
  Form Q                    ....       0.000 sec  (  0.0 % of DIIS)
  Form QpQm                 ....       0.000 sec  (  0.0 % of DIIS)
  Exp/Cayley                ....       0.000 sec  (  0.0 % of DIIS)
  Orb update                ....       0.000 sec  (  0.0 % of DIIS)
  Wake-sleep                ....       0.018 sec  (  5.6 % of DIIS)
SOSCF solution              ....       0.087 sec  (  1.0%)
  MO trafo                  ....       0.049 sec  ( 55.6 % of SOSCF)
  Orb grad                  ....       0.001 sec  (  1.4 % of SOSCF)
  Rot update                ....       0.018 sec  ( 20.8 % of SOSCF)
  Step                      ....       0.019 sec  ( 22.2 % of SOSCF)
Finished LeanSCF after   9.2 sec

Maximum memory used throughout the entire LEANSCF-calculation: 17.9 MB


-------------------------------------------------------------------------------
                          DFT DISPERSION CORRECTION                            
                                                                               
                                DFTD4 V3.4.0                                   
-------------------------------------------------------------------------------
The PBE functional is recognized
Active option DFTDOPT                   ...         5   

-------------------------   ----------------
Dispersion correction           -0.023632312
-------------------------   ----------------

------------------   -----------------
gCP correction             0.153740211
------------------   -----------------

-------------------------   --------------------
FINAL SINGLE POINT ENERGY      -685.700348554434
-------------------------   --------------------


------------------------------------------------------------------------------
                              ORCA PROPERTY CALCULATIONS
------------------------------------------------------------------------------

GBWName                                 ... sp.gbw
Number of atoms                         ...     24
Number of basis functions               ...    192
Max core memory                         ...   1024 MB

Electric properties:
Dipole moment                           ... YES
Quadrupole moment                       ...  NO
Static polarizability (Dipole/Dipole)   ...  NO
Static polarizability (Dipole/Quad.)    ...  NO
Static polarizability (Quad./Quad.)     ...  NO
Static polarizability (Velocity)        ...  NO

Atomic electric properties:
Dipole moment                           ...  NO
Quadrupole moment                       ...  NO
Static polarizability                   ...  NO

Choice of electric origin               ... Center of mass
Position of electric origin             ...    -0.000005     0.000002    -0.000003

General magnetic properties:
Magnetizability                         ...  NO

EPR properties:
g-Tensor (aka g-matrix)                 ...  NO
Zero-Field splitting spin-orbit         ...  NO
Zero-field splitting spin-spin          ...  NO
Hyperfine couplings                     ...  NO (   0 nuclei)
Quadrupole couplings                    ...  NO (   0 nuclei)
Contact density                         ...  NO (   0 nuclei)

NMR properties:
Chemical shifts                         ...  NO (   0 nuclei)
Spin-rotation constants                 ...  NO (   0 nuclei)
Spin-spin couplings                     ...  NO (   0 nuclei,    0 pairs)

Choice of magnetic origin               ... GIAO
Position of magnetic origin             ...     0.000000     0.000000     0.000000

Properties with geometric perturbations:
SCF Hessian                             ...  NO
IR spectrum                             ...  NO
VCD spectrum                            ...  NO
X-ray spectroscopy properties:
SCF XES/XAS/RIXS spectra                ...  NO


-------------
DIPOLE MOMENT
-------------

Method             : SCF
Type of density    : Electron Density
Multiplicity       :   1
Irrep              :   0
Energy             :  -685.8304564534086012 Eh
Relativity type    : 
Basis              : AO
                                X                 Y                 Z
Electronic contribution:      2.098263026      -0.692720497       0.692077983
Nuclear contribution   :     -1.355254781       0.385251642      -1.808797121
                        -----------------------------------------
Total Dipole Moment    :      0.743008245      -0.307468854      -1.116719138
                        -----------------------------------------
Magnitude (a.u.)       :      1.376103187
Magnitude (Debye)      :      3.497776328



--------------------
Rotational spectrum 
--------------------
 
Rotational constants in cm-1:             0.039122             0.026006             0.016335 
Rotational constants in MHz :          1172.857376           779.626224           489.711707 

Dipole components along the rotational axes: 
x,y,z [a.u.] :     0.620211    -0.466729    -1.136293 
x,y,z [Debye]:     1.576452    -1.186331    -2.888227 

 

Dipole moment calculation done in   0.0 sec 

Maximum memory used throughout the entire PROP-calculation: 11.7 MB

--------------------------------
SUGGESTED CITATIONS FOR THIS RUN
--------------------------------

Below you find a list of papers that are relevant to this ORCA run
We neither can nor want to force you to cite these papers, but we appreciate if you do
You receive ORCA, which is the product of decades of hard work by many enthusiastic individuals, for free
The only thing we kindly ask in return is that you cite our papers,
We deeply appreciate it, if you show your appreciation for ORCA by not just citing the generic ORCA reference.

Please note that relegating all ORCA citations to the supporting information does *not* help us.
SI sections are not indexed - citations you put there will not count into any citation statistics
But we need these citations in order to attract the funding resources that allow us to do what we are doing

Therefore, if you are a happy ORCA user, please consider citing a few of the papers listed below in the main body of your paper

In addition to the list printed below, the program has created the file sp.bibtex that contains the list in bibtex format
You can import this file easily into all common literature databanks and citation aid programs


List of essential papers. We consider these as the minimum necessary citations

  1. Neese,F.
     Software update: the ORCA program system, version 5.0
     WIRES Comput. Molec. Sci., 2022 12(1)e1606
     doi.org/10.1002/wcms.1606

List of papers to cite with high priority. The work reported in these papers was absolutely
necessary for this run to complete.
Our perspective: the developers of density functionals and basis sets usually get cited in chemistry papers
Good! But without the algorithms to do something with them, the functionals or basis sets would not do anything.
Hence, in our opinion, the algorithm design and method developments papers are equally worthy of getting cited

  1. Neese,F.
     An improvement of the resolution of the identity approximation for the formation of the Coulomb matrix
     J. Comp. Chem., 2003 24(14)1740-1747
     doi.org/10.1002/jcc.10318
  2. Neese,F.
     The SHARK Integral Generation and Digestion System
     J. Comp. Chem., 2022  1-16
     doi.org/10.1002/jcc.26942
  3. Caldeweyher,E.; Bannwarth,C.; Grimme,S.
     Extension of the D3 dispersion coefficient model
     J. Chem. Phys., 2017 147 034112-XXXX
     doi.org/10.1063/1.4993215
  4. Caldeweyher,E.; Ehlert,S.; Hansen,A.; Neugebauer,H.; Spicher,S.; Bannwarth,C.; Grimme,S.
     A generally applicable atomic-charge dependent London dispersion correction
     J. Chem. Phys., 2019 150 154122-XXXX
     doi.org/10.1063/1.5090222
  5. Caldeweyher,E.; Mewes,J.; Ehlert,S.; Grimme,S.
     Extension and evaluation of the D4 London-dispersion model for periodic systems
     Phys. Chem. Chem. Phys., 2020 22(16)8499-8512
     doi.org/10.1039/D0CP00502A

List of suggested additional citations. These are papers that are important in the 'surrounding' of 
of this run, or papers that preceded the highly important papers. If you like your results we are grateful for a citation.

  1. Neese,F.
     The ORCA program system
     WIRES Comput. Molec. Sci., 2012 2(1)73-78
     doi.org/10.1002/wcms.81
  2. Neese,F.
     Software update: the ORCA program system, version 4.0
     WIRES Comput. Molec. Sci., 2018 8(1)1-6
     doi.org/10.1002/wcms.1327
  3. Neese,F.; Wennmohs,F.; Becker,U.; Riplinger,C.
     The ORCA quantum chemistry program package
     J. Chem. Phys., 2020 152 Art. No. L224108
     doi.org/10.1063/5.0004608

List of optional additional citations

  1. Neese,F.
     Approximate second-order SCF convergence for spin unrestricted wavefunctions
     Chem. Phys. Lett., 2000 325(1-3)93-98
     doi.org/10.1016/s0009-2614(00)00662-x

Timings for individual modules:

Sum of individual times          ...       11.210 sec (=   0.187 min)
Startup calculation              ...        0.936 sec (=   0.016 min)   8.4 %
SCF iterations                   ...       10.172 sec (=   0.170 min)  90.7 %
Property calculations            ...        0.102 sec (=   0.002 min)   0.9 %
                             ****ORCA TERMINATED NORMALLY****
TOTAL RUN TIME: 0 days 0 hours 0 minutes 11 seconds 936 msec
