      -----------------------------------------------------------      
     |                   =====================                   |     
     |                           x T B                           |     
     |                   =====================                   |     
     |                         S. Grimme                         |     
     |          Mulliken Center for Theoretical Chemistry        |     
     |                    University of Bonn                     |     
      -----------------------------------------------------------      

   * xtb version 6.7.1 (edcfbbe) compiled by 'albert@albert-system' on 2024-07-22

   xtb is free software: you can redistribute it and/or modify it under
   the terms of the GNU Lesser General Public License as published by
   the Free Software Foundation, either version 3 of the License, or
   (at your option) any later version.
   
   xtb is distributed in the hope that it will be useful,
   but WITHOUT ANY WARRANTY; without even the implied warranty of
   MERCHANTABILITY or FITNESS FOR A PARTICULAR PURPOSE.  See the
   GNU Lesser General Public License for more details.
   
   Cite this work as:
   * C. Bannwarth, E. Caldeweyher, S. Ehlert, A. Hansen, P. Pracht,
     J. Seibert, S. Spicher, S. Grimme, WIREs Comput. Mol. Sci., 2020, 11,
     e01493. DOI: 10.1002/wcms.1493
   
   for GFN2-xTB:
   * C. Bannwarth, S. Ehlert and S. Grimme., J. Chem. Theory Comput., 2019,
     15, 1652-1671. DOI: 10.1021/acs.jctc.8b01176
   for GFN1-xTB:
   * S. Grimme, C. Bannwarth, P. Shushkov, J. Chem. Theory Comput., 2017,
     13, 1989-2009. DOI: 10.1021/acs.jctc.7b00118
   for GFN0-xTB:
   * P. Pracht, E. Caldeweyher, S. Ehlert, S. Grimme, ChemRxiv, 2019, preprint.
     DOI: 10.26434/chemrxiv.8326202.v1
   for GFN-FF:
   * S. Spicher and S. Grimme, Angew. Chem. Int. Ed., 2020, 59, 15665-15673.
     DOI: 10.1002/anie.202004239
   
   for ALPB and GBSA implicit solvation:
   * S. Ehlert, M. Stahn, S. Spicher, S. Grimme, J. Chem. Theory Comput.,
     2021, 17, 4250-4261. DOI: 10.1021/acs.jctc.1c00471
   
   for ddCOSMO and CPCM-X implicit solvation:
   * M. Stahn, S. Ehlert, S. Grimme, J. Phys. Chem. A,
     2023, XX, XXXX-XXXX. DOI: 10.1021/acs.jpca.3c04382
   
   for DFT-D4:
   * E. Caldeweyher, C. Bannwarth and S. Grimme, J. Chem. Phys., 2017,
     147, 034112. DOI: 10.1063/1.4993215
   * E. Caldeweyher, S. Ehlert, A. Hansen, H. Neugebauer, S. Spicher,
     C. Bannwarth and S. Grimme, J. Chem. Phys., 2019, 150, 154122.
     DOI: 10.1063/1.5090222
   * E. Caldeweyher, J.-M. Mewes, S. Ehlert and S. Grimme, Phys. Chem. Chem. Phys.
     2020, 22, 8499-8512. DOI: 10.1039/D0CP00502A
   
   for sTDA-xTB:
   * S. Grimme and C. Bannwarth, J. Chem. Phys., 2016, 145, 054103.
     DOI: 10.1063/1.4959605
   
   in the mass-spec context:
   * V. Asgeirsson, C. Bauer and S. Grimme, Chem. Sci., 2017, 8, 4879.
     DOI: 10.1039/c7sc00601b
   * J. Koopman and S. Grimme, ACS Omega 2019, 4, 12, 15120-15133.
     DOI: 10.1021/acsomega.9b02011
   
   for metadynamics refer to:
   * S. Grimme, J. Chem. Theory Comput., 2019, 155, 2847-2862
     DOI: 10.1021/acs.jctc.9b00143
   
   for SPH calculations refer to:
   * S. Spicher and S. Grimme, J. Chem. Theory Comput., 2021, 17, 1701-1714
     DOI: 10.1021/acs.jctc.0c01306
   
   for ONIOM refer to:
   * C. Plett, A. Katbashev, S. Ehlert, S. Grimme, M. Bursch,
     Phys. Chem. Chem. Phys., 2023, 25, 17860-17868. DOI: 10.1039/D3CP02178E
   
   for DIPRO refer to:
   * J. Kohn, N. Gildemeister, S. Grimme, D. Fazzi, A. Hansen,
     J. Chem. Phys., 2023, just accepted.
   
   for PTB refer to:
   * S. Grimme, M. Mueller, A. Hansen, J. Chem. Phys., 2023, 158, 124111.
     DOI: 10.1063/5.0137838
   
   with help from (in alphabetical order)
   P. Atkinson, C. Bannwarth, F. Bohle, G. Brandenburg, E. Caldeweyher
   M. Checinski, S. Dohm, S. Ehlert, S. Ehrlich, I. Gerasimov, C. Hölzer
   A. Katbashev, J. Kohn, J. Koopman, C. Lavigne, S. Lehtola, F. März, M. Müller,
   F. Musil, H. Neugebauer, J. Pisarek, C. Plett, P. Pracht, F. Pultar,
   J. Seibert, P. Shushkov, S. Spicher, M. Stahn, M. Steiner, T. Strunk,
   J. Stückrath, T. Rose, and J. Unsleber
   
 * started run on 2025/04/06 at 18:00:41.718     
   ID    Z sym.   atoms
    1    6 C      1, 2, 4, 6, 8, 10
    2    1 H      3, 5, 7, 9, 11, 18-24
    3    8 O      12-17

           -------------------------------------------------
          |                Calculation Setup                |
           -------------------------------------------------

          program call               : /srv/scratch/z5358697/.xtb/bin/xtb solv.coord --gfn2 --sp --chrg 0 --norestart --parallel 1 --alpb water reference -I xtb_sp-xcontrol-inp
          hostname                   : k155
          coordinate file            : solv.coord
          omp threads                :                     1


           -------------------------------------------------
          |                 G F N 2 - x T B                 |
           -------------------------------------------------

        Reference                      10.1021/acs.jctc.8b01176
      * Hamiltonian:
        H0-scaling (s, p, d)           1.850000    2.230000    2.230000
        zeta-weighting                 0.500000
      * Dispersion:
        s8                             2.700000
        a1                             0.520000
        a2                             5.000000
        s9                             5.000000
      * Repulsion:
        kExp                           1.500000    1.000000
        rExp                           1.000000
      * Coulomb:
        alpha                          2.000000
        third order                    shell-resolved
        anisotropic                    true
        a3                             3.000000
        a5                             4.000000
        cn-shift                       1.200000
        cn-exp                         4.000000
        max-rad                        5.000000

      * Solvation model:               ALPB
        Solvent                        water
        Parameter file                 internal GFN2-xTB/ALPB
        Dielectric constant                8.0200E+01
        Reference state                gsolv=reference [X=1]
        Free energy shift                  2.8945E-03 Eh       1.8164E+00 kcal/mol
        Temperature                        2.9815E+02 K
        Density                            1.0000E+00 kg/L
        Solvent mass                       1.8000E+01 g/mol
        Interaction kernel             P16
        Born radius scaling (c1)           1.4744E+00
        Born radii integrator          GBOBC
        Born offset                        0.0000E+00 a0       0.0000E+00 AA
        H-bond correction              true
        Ion screening                  false
        Surface tension                    1.0000E-05 Eh       1.5569E+01 dyn/cm
        Grid points                               974 per atom

          ...................................................
          :                      SETUP                      :
          :.................................................:
          :  # basis functions                  60          :
          :  # atomic orbitals                  60          :
          :  # shells                           36          :
          :  # electrons                        72          :
          :  max. iterations                   250          :
          :  Hamiltonian                  GFN2-xTB          :
          :  restarted?                      false          :
          :  GBSA solvation                   true          :
          :  PC potential                    false          :
          :  electronic temp.          300.0000000     K    :
          :  accuracy                    1.0000000          :
          :  -> integral cutoff          0.2500000E+02      :
          :  -> integral neglect         0.1000000E-07      :
          :  -> SCF convergence          0.1000000E-05 Eh   :
          :  -> wf. convergence          0.1000000E-03 e    :
          :  Broyden damping             0.4000000          :
          :  net charge                          0          :
          :  unpaired electrons                  0          :
          ...................................................

 iter      E             dE          RMSdq      gap      omega  full diag
   1    -43.6533164 -0.436533E+02  0.485E+00    9.88       0.0  T
   2    -43.6837866 -0.304702E-01  0.264E+00    9.84       1.0  T
   3    -43.6857544 -0.196787E-02  0.575E-01    9.88       1.0  T
   4    -43.6861670 -0.412585E-03  0.179E-01    9.89       1.0  T
   5    -43.6862282 -0.611769E-04  0.792E-02    9.90       1.0  T
   6    -43.6862457 -0.175535E-04  0.226E-02    9.90       1.0  T
   7    -43.6862466 -0.859529E-06  0.643E-03    9.90       3.2  T
   8    -43.6862469 -0.250073E-06  0.213E-03    9.90       9.6  T
   9    -43.6862469 -0.912689E-08  0.856E-04    9.90      23.9  T
  10    -43.6862469 -0.264318E-08  0.266E-04    9.90      76.6  T

   *** convergence criteria satisfied after 10 iterations ***

         #    Occupation            Energy/Eh            Energy/eV
      -------------------------------------------------------------
         1        2.0000           -0.7330161             -19.9464
       ...           ...                  ...                  ...
        30        2.0000           -0.4627298             -12.5915
        31        2.0000           -0.4596086             -12.5066
        32        2.0000           -0.4393598             -11.9556
        33        2.0000           -0.4308240             -11.7233
        34        2.0000           -0.4233554             -11.5201
        35        2.0000           -0.4166128             -11.3366
        36        2.0000           -0.4023408             -10.9483 (HOMO)
        37                         -0.0385600              -1.0493 (LUMO)
        38                          0.0056599               0.1540
        39                          0.0239189               0.6509
        40                          0.0359655               0.9787
        41                          0.0545023               1.4831
       ...                                ...                  ...
        60                          0.2905228               7.9055
      -------------------------------------------------------------
                  HL-Gap            0.3637809 Eh            9.8990 eV
             Fermi-level           -0.2204504 Eh           -5.9988 eV

 SCC (total)                   0 d,  0 h,  0 min,  0.025 sec
 SCC setup                      ...        0 min,  0.001 sec (  5.938%)
 Dispersion                     ...        0 min,  0.000 sec (  0.556%)
 classical contributions        ...        0 min,  0.000 sec (  0.108%)
 integral evaluation            ...        0 min,  0.004 sec ( 14.562%)
 iterations                     ...        0 min,  0.012 sec ( 49.053%)
 molecular gradient             ...        0 min,  0.007 sec ( 29.178%)
 printout                       ...        0 min,  0.000 sec (  0.552%)

         :::::::::::::::::::::::::::::::::::::::::::::::::::::
         ::                     SUMMARY                     ::
         :::::::::::::::::::::::::::::::::::::::::::::::::::::
         :: total energy             -43.385394427272 Eh    ::
         :: total w/o Gsasa/hb       -43.368435100657 Eh    ::
         :: gradient norm              0.000063539580 Eh/a0 ::
         :: HOMO-LUMO gap              9.898981653282 eV    ::
         ::.................................................::
         :: SCC energy               -43.686078982900 Eh    ::
         :: -> isotropic ES            0.167061979254 Eh    ::
         :: -> anisotropic ES         -0.009159983185 Eh    ::
         :: -> anisotropic XC         -0.009790616524 Eh    ::
         :: -> dispersion             -0.019799861962 Eh    ::
         :: -> Gsolv                  -0.033545093440 Eh    ::
         ::    -> Gelec               -0.016585766826 Eh    ::
         ::    -> Gsasa                0.004669892018 Eh    ::
         ::    -> Ghb                 -0.024523767792 Eh    ::
         ::    -> Gshift               0.002894549160 Eh    ::
         :: repulsion energy           0.300684555629 Eh    ::
         :: add. restraining           0.000000000000 Eh    ::
         :: total charge               0.000000000000 e     ::
         :::::::::::::::::::::::::::::::::::::::::::::::::::::

           -------------------------------------------------
          |                Property Printout                |
           -------------------------------------------------

    * Orbital Energies and Occupations

         #    Occupation            Energy/Eh            Energy/eV
      -------------------------------------------------------------
         1        2.0000           -0.7330161             -19.9464
       ...           ...                  ...                  ...
        24        2.0000           -0.5175545             -14.0834
        25        2.0000           -0.5056095             -13.7583
        26        2.0000           -0.5015302             -13.6473
        27        2.0000           -0.4946773             -13.4609
        28        2.0000           -0.4873115             -13.2604
        29        2.0000           -0.4678991             -12.7322
        30        2.0000           -0.4627298             -12.5915
        31        2.0000           -0.4596086             -12.5066
        32        2.0000           -0.4393598             -11.9556
        33        2.0000           -0.4308240             -11.7233
        34        2.0000           -0.4233554             -11.5201
        35        2.0000           -0.4166128             -11.3366
        36        2.0000           -0.4023408             -10.9483 (HOMO)
        37                         -0.0385600              -1.0493 (LUMO)
        38                          0.0056599               0.1540
        39                          0.0239189               0.6509
        40                          0.0359655               0.9787
        41                          0.0545023               1.4831
        42                          0.0561376               1.5276
        43                          0.0730345               1.9874
        44                          0.0834641               2.2712
        45                          0.0966244               2.6293
        46                          0.1038728               2.8265
        47                          0.1128347               3.0704
       ...                                ...                  ...
        60                          0.2905228               7.9055
      -------------------------------------------------------------
                  HL-Gap            0.3637809 Eh            9.8990 eV
             Fermi-level           -0.2204504 Eh           -5.9988 eV

     #   Z          covCN         q      C6AA      α(0)
     1   6 C        3.675     0.070    19.624     6.347
     2   6 C        3.756     0.101    18.967     6.210
     3   1 H        0.923     0.042     2.424     2.435
     4   6 C        3.725     0.091    19.170     6.252
     5   1 H        0.923     0.046     2.367     2.406
     6   6 C        3.728     0.099    19.036     6.229
     7   1 H        0.924     0.065     2.138     2.287
     8   6 C        3.725     0.085    19.272     6.268
     9   1 H        0.924     0.064     2.159     2.298
    10   6 C        3.631     0.242    17.205     5.972
    11   1 H        0.922     0.014     2.826     2.629
    12   8 O        1.700    -0.372    20.293     6.082
    13   8 O        1.657    -0.497    22.829     6.450
    14   8 O        1.655    -0.499    22.869     6.456
    15   8 O        1.655    -0.487    22.607     6.418
    16   8 O        1.655    -0.503    22.947     6.467
    17   8 O        1.656    -0.513    23.175     6.499
    18   1 H        0.924     0.048     2.344     2.395
    19   1 H        0.924     0.046     2.377     2.411
    20   1 H        0.804     0.396     0.492     1.102
    21   1 H        0.804     0.357     0.571     1.188
    22   1 H        0.804     0.350     0.588     1.204
    23   1 H        0.804     0.371     0.541     1.156
    24   1 H        0.805     0.383     0.517     1.130

 Mol. C6AA /au·bohr⁶  :       4729.378100
 Mol. C8AA /au·bohr⁸  :     100770.450148
 Mol. α(0) /au        :         98.288187


Wiberg/Mayer (AO) data.
largest (>0.10) Wiberg bond orders for each atom

 ---------------------------------------------------------------------------
     #   Z sym  total        # sym  WBO       # sym  WBO       # sym  WBO
 ---------------------------------------------------------------------------
     1   6 C    3.958 --    17 O    1.004     2 C    0.986    18 H    0.969
                            19 H    0.968
     2   6 C    3.940 --     1 C    0.986    12 O    0.963     4 C    0.960
                             3 H    0.956
     3   1 H    0.998 --     2 C    0.956
     4   6 C    3.956 --    16 O    0.996     6 C    0.962     2 C    0.960
                             5 H    0.959
     5   1 H    0.998 --     4 C    0.959
     6   6 C    3.958 --    15 O    1.007     8 C    0.970     4 C    0.962
                             7 H    0.957
     7   1 H    0.995 --     6 C    0.957
     8   6 C    3.958 --    14 O    1.006     6 C    0.970     9 H    0.957
                            10 C    0.948
     9   1 H    0.996 --     8 C    0.957
    10   6 C    3.924 --    13 O    1.025     8 C    0.948    11 H    0.946
                            12 O    0.944
    11   1 H    1.000 --    10 C    0.946
    12   8 O    2.056 --     2 C    0.963    10 C    0.944
    13   8 O    1.939 --    10 C    1.025    20 H    0.826
    14   8 O    1.927 --     8 C    1.006    21 H    0.838
    15   8 O    1.941 --     6 C    1.007    22 H    0.855
    16   8 O    1.934 --     4 C    0.996    23 H    0.843
    17   8 O    1.901 --     1 C    1.004    24 H    0.841
    18   1 H    0.997 --     1 C    0.969
    19   1 H    0.998 --     1 C    0.968
    20   1 H    0.843 --    13 O    0.826
    21   1 H    0.872 --    14 O    0.838
    22   1 H    0.877 --    15 O    0.855
    23   1 H    0.862 --    16 O    0.843
    24   1 H    0.853 --    17 O    0.841
 ---------------------------------------------------------------------------

Topologies differ in total number of bonds
Writing topology from bond orders to xtbtopo.mol

molecular dipole:
                 x           y           z       tot (Debye)
 q only:       -1.882      -1.078      -0.207
   full:       -2.333      -1.486      -0.230       7.054
molecular quadrupole (traceless):
                xx          xy          yy          xz          yz          zz
 q only:        6.273      -1.943       0.346      -1.354       4.909      -6.620
  q+dip:        5.970      -0.663       2.945       0.683       2.730      -8.915
   full:        6.478      -1.308       2.118      -0.134       4.279      -8.596


           -------------------------------------------------
          | TOTAL ENERGY              -43.385394427272 Eh   |
          | GRADIENT NORM               0.000063539580 Eh/α |
          | HOMO-LUMO GAP               9.898981653282 eV   |
           -------------------------------------------------

------------------------------------------------------------------------
 * finished run on 2025/04/06 at 18:00:41.788     
------------------------------------------------------------------------
 total:
 * wall-time:     0 d,  0 h,  0 min,  0.070 sec
 *  cpu-time:     0 d,  0 h,  0 min,  0.030 sec
 * ratio c/w:     0.425 speedup
 SCF:
 * wall-time:     0 d,  0 h,  0 min,  0.025 sec
 *  cpu-time:     0 d,  0 h,  0 min,  0.021 sec
 * ratio c/w:     0.838 speedup

