22
 energy: -2301.485309850869 gnorm: 0.021569793342 xtb: 6.7.1 (edcfbbe)
C           -5.06371765634387       -0.68370685380297        0.03495510651549
C           -4.30801638910900       -1.37770600341050       -0.89582743939696
C           -2.92968137349822       -1.26393408606008       -0.89512154979665
C           -2.29381962121645       -0.44056556439523        0.03043405501349
C           -3.05796398775506        0.24982104551070        0.96664969552835
C           -4.43546746326547        0.12430821665508        0.96831827082909
C           -0.82349660456491       -0.33473693784833        0.02334793411035
C           -0.05488644222432       -1.49426429736215        0.06535908162896
C            1.32706514938806       -1.43454243973568        0.06821043733023
C            1.97893832197692       -0.20479801539075        0.02343372431038
C            1.22227081094162        0.96266617582658       -0.03494592621549
C           -0.16865102157473        0.89752091719772       -0.03543713601570
Cl          -1.06076291187005        2.36705434214890       -0.16700596257400
Cl           2.01993507699509        2.48777296720240       -0.11353072525031
Cl           3.69942642503931       -0.11956088535298        0.03262306741446
Cl           2.25390267169876       -2.88481787467834        0.13108078585809
H           -6.13903154722037       -0.77425156654309        0.03516127841558
H           -4.79335854202406       -2.00998268539068       -1.62322354991929
H           -2.33902817063649       -1.79522838739551       -1.62516760362015
H           -2.57017234623891        0.86725259058430        1.70466701315538
H           -5.01963520952433        0.65925266559213        1.70131567925390
H           -0.54477698344141       -2.45324262328710        0.11089466654914
22
 energy: -2301.486594764430 gnorm: 0.009850905669 xtb: 6.7.1 (edcfbbe)
C           -5.07499983473894       -0.68950519353309        0.03477275980522
C           -4.31350244949913       -1.38473404556249       -0.89904991653776
C           -2.92923834060116       -1.26422311363084       -0.89927459395556
C           -2.29413620099813       -0.43934247175295        0.03316238726242
C           -3.06349013763263        0.24159224334090        0.98049050552877
C           -4.44604027111617        0.11785055274476        0.97758191186037
C           -0.82059380310430       -0.32278663120860        0.02487576564064
C           -0.05194347147929       -1.48539540627690        0.06573701293950
C            1.33232796115611       -1.43283548982843        0.06535402040902
C            1.99408330414513       -0.20255536733435        0.02393759725547
C            1.23804913815638        0.97323937627646       -0.03355188271812
C           -0.15960667058492        0.91158608954267       -0.03729449169699
Cl          -1.05973253730408        2.38363951788340       -0.19960098830578
Cl           2.04332793492412        2.50034325822163       -0.11736906008484
Cl           3.71992010264894       -0.12688132109450        0.03584983409042
Cl           2.23165188083280       -2.91097109322475        0.13232440492483
H           -6.15510343112447       -0.77960332528545        0.03169280700558
H           -4.79837042745080       -2.01716976327490       -1.63382342947429
H           -2.33467262272788       -1.79645142093862       -1.63351470136827
H           -2.57720087684709        0.86168140556419        1.72378145014796
H           -5.03309989740643        0.65330846196186        1.71490721882999
H           -0.54855736436684       -2.44647781278885        0.11520043907139
22
 energy: -2301.486794917148 gnorm: 0.004386662349 xtb: 6.7.1 (edcfbbe)
C           -5.08054864477748       -0.69707793789929        0.03672475958111
C           -4.31548534389693       -1.38599673270591       -0.90169256419581
C           -2.92912138831230       -1.25938393262194       -0.90245387717526
C           -2.29575592695202       -0.43281303961566        0.03243632599986
C           -3.06884966801642        0.24159096844115        0.98502506228714
C           -4.45274008573244        0.10932127892018        0.98486851760210
C           -0.82010011349546       -0.31342674026099        0.02382613898052
C           -0.05258300174039       -1.47791956546871        0.06895408186325
C            1.33229635728968       -1.42956020933912        0.06758828495132
C            2.00094682286969       -0.20327908386235        0.02531643855693
C            1.24753311987233        0.97665940576263       -0.03661418195068
C           -0.15211485652578        0.91846833817928       -0.04555039301994
Cl          -1.05275110606197        2.39586659309580       -0.22280275345339
Cl           2.05806381184186        2.50501194549702       -0.12111686433209
Cl           3.73043942305903       -0.14313252377040        0.04100659930844
Cl           2.22277588030169       -2.92070271025590        0.13436451229223
H           -6.16222751172383       -0.78961476620729        0.03210953792950
H           -4.79814159760161       -2.02012761225127       -1.63905928062088
H           -2.33306062438922       -1.78805756209143       -1.64082853595518
H           -2.58449293739761        0.85842746170752        1.73490438287716
H           -5.04184863714993        0.63847953283645        1.72767922397949
H           -0.55316198998600       -2.43842726566494        0.12150265053046
22
 energy: -2301.486836266547 gnorm: 0.001976044204 xtb: 6.7.1 (edcfbbe)
C           -5.08113556950314       -0.70233453719952        0.03869316831288
C           -4.31493302544596       -1.38505889909146       -0.90314014880910
C           -2.92888850164211       -1.25284449821582       -0.90594181835393
C           -2.29681339554732       -0.42695042989732        0.03035959504677
C           -3.07100637378158        0.24231534750219        0.98601406675822
C           -4.45457696315939        0.10392098166843        0.98805522993524
C           -0.82049845062498       -0.30878083174063        0.02205766456478
C           -0.05489347174136       -1.47461262344711        0.07140916939151
C            1.32979863670257       -1.42855919575733        0.07000971760029
C            2.00181861853328       -0.20490528497882        0.02568384138444
C            1.25095626528289        0.97600642477394       -0.03983849764533
C           -0.14849979906756        0.92034547697443       -0.05072725773862
Cl          -1.04848551181200        2.40057113699642       -0.23227198055194
Cl           2.06850650915757        2.50202773044735       -0.12475925622695
Cl           3.73214563381316       -0.14601807798736        0.04448716603353
Cl           2.21670255258552       -2.92505930683117        0.13883189840677
H           -6.16246442529653       -0.80003087124973        0.03623177712422
H           -4.79588254242822       -2.01939142396725       -1.64151591673655
H           -2.33252724124262       -1.77842696134836       -1.64626297688995
H           -2.58822446389646        0.85930423297594        1.73698020741983
H           -5.04454158200690        0.62653072804301        1.73497767553282
H           -0.55748470532093       -2.43374507947104        0.12685451031831
22
 energy: -2301.486870238628 gnorm: 0.003231940626 xtb: 6.7.1 (edcfbbe)
C           -5.07958705254000       -0.71438256157267        0.04423663565717
C           -4.31236274302478       -1.38132741697053       -0.90705785623736
C           -2.92793765026353       -1.23731909002669       -0.91482675314246
C           -2.29845610893370       -0.41434025959667        0.02476105686649
C           -3.07351867866134        0.24452344249845        0.98624777656137
C           -4.45557024907693        0.09202445404275        0.99453189924379
C           -0.82154799518601       -0.30003518339155        0.01761827294182
C           -0.06122193224228       -1.46904637838566        0.07648335029934
C            1.32283772742276       -1.42733605970162        0.07643825826337
C            2.00140924068950       -0.20917620866426        0.02683628182346
C            1.25571391945742        0.97404616735443       -0.04694364995495
C           -0.14224105727591        0.92313086014579       -0.06058727424243
Cl          -1.03696572014643        2.40963515424005       -0.24650935638608
Cl           2.07838467542747        2.49858568181108       -0.13644343541715
Cl           3.73276826373250       -0.15981027261473        0.05166913156229
Cl           2.20626757949987       -2.92988031272850        0.15366014404647
H           -6.15940782784270       -0.82507429177229        0.04889092895317
H           -4.79011482883245       -2.01494036920350       -1.64747283918019
H           -2.33120201154839       -1.75402763876181       -1.66028660515045
H           -2.59366220275534        0.86258352110202        1.73773342865581
H           -5.04684512313995        0.60153435984524        1.74900365220612
H           -0.56766714824976       -2.42506744858616        0.13820432090987
22
 energy: -2301.486884491768 gnorm: 0.002947035131 xtb: 6.7.1 (edcfbbe)
C           -5.07796129793996       -0.71861374163665        0.04678561445961
C           -4.31131592350207       -1.37948530586340       -0.90906898703523
C           -2.92760597298160       -1.23182041014312       -0.91904890128693
C           -2.29852855850561       -0.41075047108758        0.02215208385261
C           -3.07293780868985        0.24511611551171        0.98557290868783
C           -4.45431990865064        0.08802423370806        0.99686830455753
C           -0.82185262151136       -0.29769222269791        0.01588050881884
C           -0.06376605756794       -1.46783275435876        0.07802318971366
C            1.32029584044110       -1.42772716350544        0.07990990381235
C            2.00029961760035       -0.21028510277615        0.02774596827178
C            1.25641837991374        0.97362155154460       -0.04933004940869
C           -0.14162271100548        0.92437773605772       -0.06325032686899
Cl          -1.03669692826566        2.41023073433523       -0.24884907222075
Cl           2.08264098421076        2.49552947622469       -0.14232112625683
Cl           3.73106156220278       -0.16163711175711        0.05319261441837
Cl           2.20196962583120       -2.93075612287614        0.16271626910836
H           -6.15714380559712       -0.83389032400425        0.05488998615894
H           -4.78884884124784       -2.01191041373911       -1.65046477162838
H           -2.33071238960756       -1.74445164586173       -1.66701086636367
H           -2.59324913233198        0.86298677749273        1.73713402369372
H           -5.04548291784884        0.59421542149512        1.75339251033562
H           -0.57156734912165       -2.42295041416322        0.14126726021904
22
 energy: -2301.486897159459 gnorm: 0.001288702205 xtb: 6.7.1 (edcfbbe)
C           -5.07626977173893       -0.72162773719843        0.04874634037458
C           -4.31066025529052       -1.37784847961613       -0.91115100860783
C           -2.92748576678726       -1.22747366830641       -0.92337874603977
C           -2.29832399822978       -0.40871841371003        0.01989161032991
C           -3.07175579978523        0.24418321970523        0.98572432023631
C           -4.45266355738394        0.08467669572460        0.99899793428689
C           -0.82194201666748       -0.29604855577936        0.01455931335950
C           -0.06565909211945       -1.46711859779066        0.07915472216039
C            1.31846265441700       -1.42868002189083        0.08379540449732
C            1.99922793984000       -0.21123009103293        0.02864135395960
C            1.25667577038912        0.97355134864227       -0.05143637498018
C           -0.14174975834710        0.92598069788051       -0.06456520414489
Cl          -1.03556363456071        2.41084681481139       -0.25048432936815
Cl           2.08305550908375        2.49389718481752       -0.14955266958059
Cl           3.72906247164264       -0.16368179256503        0.05380297803605
Cl           2.19815016943250       -2.93045188771894        0.17374450573539
H           -6.15487070207062       -0.84058375721991        0.06010818790973
H           -4.78875592620989       -2.00827452787359       -1.65388174571211
H           -2.33025522157533       -1.73575585712040       -1.67411045008038
H           -2.59139948788929        0.86167061162809        1.73722330872222
H           -5.04326703897869        0.58846333991090        1.75734765723454
H           -0.57493771226850       -2.42147880114010        0.14300913903109
22
 energy: -2301.486901957649 gnorm: 0.000789499775 xtb: 6.7.1 (edcfbbe)
C           -5.07549232868211       -0.72499265107665        0.05094322801325
C           -4.31085090184315       -1.37520290971764       -0.91417211907849
C           -2.92788961712280       -1.22191024000441       -0.92894729296258
C           -2.29834005670035       -0.40627865087594        0.01704317925293
C           -3.07090823039116        0.24217241449919        0.98666892281459
C           -4.45159175041310        0.07958406306886        1.00271314973362
C           -0.82189924274387       -0.29373069753487        0.01226307897100
C           -0.06715202147636       -1.46538882372542        0.08083139220815
C            1.31717718439045       -1.42915235660009        0.08861217827749
C            1.99896959789223       -0.21189776884982        0.02990875260823
C            1.25773795098486        0.97388452463024       -0.05471696933125
C           -0.14135363776143        0.92818314130427       -0.06827924173813
Cl          -1.03361909130967        2.41225170469681       -0.25581914892540
Cl           2.08518124713357        2.49256133555246       -0.15862170583843
Cl           3.72852473790449       -0.16714929286191        0.05595303044496
Cl           2.19388918488553       -2.93034195140270        0.18811532923095
H           -6.15377688656423       -0.84716908601512        0.06505287987909
H           -4.78973158269613       -2.00367920148378       -1.65828404178736
H           -2.33046577193579       -1.72564283786308       -1.68280746890609
H           -2.58952127015780        0.85761824344848        1.73943477076055
H           -5.04155073372102        0.57945970909076        1.76441397426697
H           -0.57826052814068       -2.41888252128380        0.14587900781106
22
 energy: -2301.486901957649 gnorm: 0.000789499775 xtb: 6.7.1 (edcfbbe)
C           -5.07549232868211       -0.72499265107665        0.05094322801325
C           -4.31085090184315       -1.37520290971764       -0.91417211907849
C           -2.92788961712280       -1.22191024000441       -0.92894729296258
C           -2.29834005670035       -0.40627865087594        0.01704317925293
C           -3.07090823039116        0.24217241449919        0.98666892281459
C           -4.45159175041310        0.07958406306886        1.00271314973362
C           -0.82189924274387       -0.29373069753487        0.01226307897100
C           -0.06715202147636       -1.46538882372542        0.08083139220815
C            1.31717718439045       -1.42915235660009        0.08861217827749
C            1.99896959789223       -0.21189776884982        0.02990875260823
C            1.25773795098486        0.97388452463024       -0.05471696933125
C           -0.14135363776143        0.92818314130427       -0.06827924173813
Cl          -1.03361909130967        2.41225170469681       -0.25581914892540
Cl           2.08518124713357        2.49256133555246       -0.15862170583843
Cl           3.72852473790449       -0.16714929286191        0.05595303044496
Cl           2.19388918488553       -2.93034195140270        0.18811532923095
H           -6.15377688656423       -0.84716908601512        0.06505287987909
H           -4.78973158269613       -2.00367920148378       -1.65828404178736
H           -2.33046577193579       -1.72564283786308       -1.68280746890609
H           -2.58952127015780        0.85761824344848        1.73943477076055
H           -5.04155073372102        0.57945970909076        1.76441397426697
H           -0.57826052814068       -2.41888252128380        0.14587900781106
