
                                 *****************
                                 * O   R   C   A *
                                 *****************

                                            #,                                       
                                            ###                                      
                                            ####                                     
                                            #####                                    
                                            ######                                   
                                           ########,                                 
                                     ,,################,,,,,                         
                               ,,#################################,,                 
                          ,,##########################################,,             
                       ,#########################################, ''#####,          
                    ,#############################################,,   '####,        
                  ,##################################################,,,,####,       
                ,###########''''           ''''###############################       
              ,#####''   ,,,,##########,,,,          '''####'''          '####       
            ,##' ,,,,###########################,,,                        '##       
           ' ,,###''''                  '''############,,,                           
         ,,##''                                '''############,,,,        ,,,,,,###''
      ,#''                                            '''#######################'''  
     '                                                          ''''####''''         
             ,#######,   #######,   ,#######,      ##                                
            ,#'     '#,  ##    ##  ,#'     '#,    #''#        ,####,   ,####,        
            ##       ##  ##   ,#'  ##            #'  '#       #'       #'  '#        
            ##       ##  #######   ##           ,######,      #####,   #    #        
            '#,     ,#'  ##    ##  '#,     ,#' ,#      #,     #,   #   #,  ,#        
             '#######'   ##     ##  '#######'  #'      '#     '####' # '####'        



                #########################################################
                #                        -***-                          #
                #          Department of theory and spectroscopy        #
                #                                                       #
                #                      Frank Neese                      #
                #                                                       #
                #     Directorship, Architecture, Infrastructure        #
                #                    SHARK, DRIVERS                     #
                #        Core code/Algorithms in most modules           #
                #                                                       #
                #        Max Planck Institute fuer Kohlenforschung      #
                #                Kaiser Wilhelm Platz 1                 #
                #                 D-45470 Muelheim/Ruhr                 #
                #                      Germany                          #
                #                                                       #
                #                  All rights reserved                  #
                #                        -***-                          #
                #########################################################


                         Program Version 6.0.0  -   RELEASE  -


 With contributions from (in alphabetic order):
   Daniel Aravena         : Magnetic Suceptibility
   Michael Atanasov       : Ab Initio Ligand Field Theory (pilot matlab implementation)
   Alexander A. Auer      : GIAO ZORA, VPT2 properties, NMR spectrum
   Ute Becker             : All parallelization in ORCA, NUMFREQ, NUMCALC
   Giovanni Bistoni       : ED, misc. LED, open-shell LED, HFLD
   Martin Brehm           : Molecular dynamics
   Dmytro Bykov           : pre 5.0 version of the SCF Hessian
   Marcos Casanova-Páez   : Triplet and SCS-CIS(D). UHF-(DLPNO)-IP/EA/STEOM-CCSD. UHF-CVS-IP/STEOM-CCSD
   Vijay G. Chilkuri      : MRCI spin determinant printing, contributions to CSF-ICE
   Pauline Colinet        : FMM embedding
   Dipayan Datta          : RHF DLPNO-CCSD density
   Achintya Kumar Dutta   : EOM-CC, STEOM-CC
   Nicolas Foglia         : Exact transition moments, OPA infrastructure, MCD improvements
   Dmitry Ganyushin       : Spin-Orbit,Spin-Spin,Magnetic field MRCI
   Miquel Garcia          : C-PCM and meta-GGA Hessian, CCSD/C-PCM, Gaussian charge scheme
   Tiago L. C. Gouveia    : GS-ROHF, GS-ROCIS
   Yang Guo               : DLPNO-NEVPT2, F12-NEVPT2, CIM, IAO-localization
   Andreas Hansen         : Spin unrestricted coupled pair/coupled cluster methods
   Ingolf Harden          : AUTO-CI MPn and infrastructure 
   Benjamin Helmich-Paris : MC-RPA, TRAH-(SCF,CASSCF), AVAS, COSX integrals, SCF dyn. polar.
   Lee Huntington         : MR-EOM, pCC
   Robert Izsak           : Overlap fitted RIJCOSX, COSX-SCS-MP3, EOM
   Riya Kayal             : Wick's Theorem for AUTO-CI, AUTO-CI UHF-CCSDT
   Emily Kempfer          : AUTO-CI, RHF CISDT and CCSDT
   Christian Kollmar      : KDIIS, OOCD, Brueckner-CCSD(T), CCSD density, CASPT2, CASPT2-K, improved NEVPT2
   Axel Koslowski         : Symmetry handling
   Simone Kossmann        : Meta GGA functionals, TD-DFT gradient, OOMP2, (MP2 Hessian; deprecated post 5.0)
   Lucas Lang             : DCDCAS
   Marvin Lechner         : AUTO-CI (C++ implementation), FIC-MRCC
   Spencer Leger          : CASSCF response
   Dagmar Lenk            : GEPOL surface, SMD, ORCA-2-JSON
   Dimitrios Liakos       : Extrapolation schemes; Compound Job, initial MDCI parallelization
   Dimitrios Manganas     : Further ROCIS development; embedding schemes. LFT, Crystal Embedding
   Dimitrios Pantazis     : SARC Basis sets
   Anastasios Papadopoulos: AUTO-CI, single reference methods and gradients
   Taras Petrenko         : pre 6.0 DFT Hessian and TD-DFT gradient, (ASA, deprecated), ECA, 1-Electron XAS/XES, NRVS
   Peter Pinski           : DLPNO-MP2, DLPNO-MP2 Gradient
   Christoph Reimann      : Effective Core Potentials
   Marius Retegan         : Local ZFS, SOC
   Christoph Riplinger    : Optimizer, TS searches, QM/MM, DLPNO-CCSD(T), (RO)-DLPNO pert. Triples
   Michael Roemelt        : Original ROCIS implementation
   Masaaki Saitow         : Open-shell DLPNO-CCSD energy and density
   Barbara Sandhoefer     : DKH picture change effects
   Kantharuban Sivalingam : CASSCF convergence/infrastructure, NEVPT2 and variants, FIC-MRCI
   Bernardo de Souza      : ESD, SOC TD-DFT
   Georgi Stoychev        : AutoAux, RI-MP2 NMR, DLPNO-MP2 response, X2C
   Van Anh Tran           : RI-MP2 g-tensors
   Willem Van den Heuvel  : Paramagnetic NMR
   Zikuan Wang            : NOTCH, Electric field optimization 
   Frank Wennmohs         : Technical directorship and infrastructure
   Hang Xu                : AUTO-CI-Response properties 


 We gratefully acknowledge several colleagues who have allowed us to
 interface, adapt or use parts of their codes:
   Stefan Grimme, W. Hujo, H. Kruse, P. Pracht,  : VdW corrections, initial TS optimization,
                  C. Bannwarth, S. Ehlert,         DFT functionals, gCP, sTDA/sTD-DF
                  L. Wittmann, M. Mueller
   Ed Valeev, F. Pavosevic, A. Kumar             : LibInt (2-el integral package), F12 methods
   Garnet Chan, S. Sharma, J. Yang, R. Olivares  : DMRG
   Ulf Ekstrom                                   : XCFun DFT Library
   Mihaly Kallay                                 : mrcc  (arbitrary order and MRCC methods)
   Frank Weinhold                                : gennbo (NPA and NBO analysis)
   Simon Mueller                                 : openCOSMO-RS
   Christopher J. Cramer and Donald G. Truhlar   : smd solvation model
   Lars Goerigk                                  : TD-DFT with DH, B97 family of functionals
   V. Asgeirsson, H. Jonsson                     : NEB implementation
   FAccTs GmbH                                   : IRC, NEB, NEB-TS, DLPNO-Multilevel, CI-OPT
                                                   MM, QMMM, 2- and 3-layer-ONIOM, Crystal-QMMM,
                                                   LR-CPCM, SF, NACMEs, symmetry and pop. for TD-DFT,
                                                   nearIR, NL-DFT gradient (VV10), updates on ESD,
                                                   ML-optimized integration grids, MBIS, APM,
                                                   GOAT, DOCKER, SOLVATOR, interface openCOSMO-RS
   S Lehtola, MJT Oliveira, MAL Marques          : LibXC Library
   Liviu Ungur et al                             : ANISO software


 Your calculation uses the libint2 library for the computation of 2-el integrals
 For citations please refer to: http://libint.valeyev.net

 Your ORCA version has been built with support for libXC version: 6.2.2
 For citations please refer to: https://libxc.gitlab.io

 This ORCA versions uses:
   CBLAS   interface :  Fast vector & matrix operations
   LAPACKE interface :  Fast linear algebra routines
   SCALAPACK package :  Parallel linear algebra routines
   Shared memory     :  Shared parallel matrices
   BLAS/LAPACK       :  OpenBLAS 0.3.27  USE64BITINT DYNAMIC_ARCH NO_AFFINITY SkylakeX SINGLE_THREADED
        Core in use  :  SkylakeX
   Copyright (c) 2011-2014, The OpenBLAS Project


Your calculation utilizes the geometrical counterpoise correction gCP
Please cite in your paper:
H.Kruse, S. Grimme J.Chem.Phys., 136, (2012), 154101 
   

Your calculation utilizes the atom-pairwise dispersion correction
based on EEQ partial charges (D4)


Your calculation utilizes the SMD solvation module
Please cite in your paper:
A.V. Marenich, C.J. Cramer, D.G. Truhlar J. Phys. Chem. B, 113, (2009), 6378 

================================================================================

----- Orbital basis set information -----
Your calculation utilizes the basis: def2-mTZVPP
   Stefan Grimme, Andreas Hansen, Sebastian Ehlert, and Jan-Michael Mewes 
   J. Chem. Phys. 154, 064103 (2021). DOI: 10.1063/5.0040021

----- AuxJ basis set information -----
Your calculation utilizes the auxiliary basis: def2/J
   F. Weigend, Phys. Chem. Chem. Phys. 8, 1057 (2006).

================================================================================
                                        WARNINGS
                       Please study these warnings very carefully!
================================================================================

Using LibXC functional ID 497 : Re-regularized SCAN exchange by Furness et al
[ 1]  J. W. Furness, A. D. Kaplan, J. Ning, J. P. Perdew, and J. Sun.,  J. Phys. Chem. Lett. 11, 8208-8215 (2020)
[ 2]  J. W. Furness, A. D. Kaplan, J. Ning, J. P. Perdew, and J. Sun.,  J. Phys. Chem. Lett. 11, 9248-9248 (2020)
Using LibXC functional ID 498 : Re-regularized SCAN correlation by Furness et al
[ 1]  J. W. Furness, A. D. Kaplan, J. Ning, J. P. Perdew, and J. Sun.,  J. Phys. Chem. Lett. 11, 8208-8215 (2020)
[ 2]  J. W. Furness, A. D. Kaplan, J. Ning, J. P. Perdew, and J. Sun.,  J. Phys. Chem. Lett. 11, 9248-9248 (2020)
Using LibXC functional ID 497 : Re-regularized SCAN exchange by Furness et al
[ 1]  J. W. Furness, A. D. Kaplan, J. Ning, J. P. Perdew, and J. Sun.,  J. Phys. Chem. Lett. 11, 8208-8215 (2020)
[ 2]  J. W. Furness, A. D. Kaplan, J. Ning, J. P. Perdew, and J. Sun.,  J. Phys. Chem. Lett. 11, 9248-9248 (2020)
Using LibXC functional ID 498 : Re-regularized SCAN correlation by Furness et al
[ 1]  J. W. Furness, A. D. Kaplan, J. Ning, J. P. Perdew, and J. Sun.,  J. Phys. Chem. Lett. 11, 8208-8215 (2020)
[ 2]  J. W. Furness, A. D. Kaplan, J. Ning, J. P. Perdew, and J. Sun.,  J. Phys. Chem. Lett. 11, 9248-9248 (2020)

================================================================================
                                       INPUT FILE
================================================================================
NAME = sp_solv.inp
|  1> ! r2scan-3c def2/J RI DEFGRID2 scfconv6 printgap
|  2> %output
|  3>     printlevel normal
|  4> end
|  5> %cpcm
|  6>     smd true
|  7>     smdsolvent "water"
|  8> end
|  9> * xyz 0 1
| 10> C -1.4773761728 -1.4057696628 0.3665423608
| 11> C -1.0426980448 -1.90007e-05 1.77316e-05
| 12> C -1.4772673443 1.0203418262 1.0341450466
| 13> C -1.4773924844 0.3854745297 -1.400638122
| 14> Br 1.0038017672 -8.1529e-06 -1.17706e-05
| 15> H -1.1076030216 -1.6826113869 1.3514302506
| 16> H -2.5644460873 -1.4511087654 0.3781856388
| 17> H -1.1073700187 -2.128286544 -0.3576492228
| 18> H -1.1069122867 0.7546868019 2.0218912526
| 19> H -1.1077115418 2.0117088636 0.7811679977
| 20> H -2.5643310664 1.0529496443 1.0678934848
| 21> H -2.5644674332 0.3984528981 -1.4456122703
| 22> H -1.1079514482 -0.3292200299 -2.1328188779
| 23> H -1.1070713408 1.3737448468 -1.6643537361
| 24> *
| 25> 
| 26>                          ****END OF INPUT****
================================================================================

                       ****************************
                       * Single Point Calculation *
                       ****************************

---------------------------------
CARTESIAN COORDINATES (ANGSTROEM)
---------------------------------
  C     -1.477376   -1.405770    0.366542
  C     -1.042698   -0.000019    0.000018
  C     -1.477267    1.020342    1.034145
  C     -1.477392    0.385475   -1.400638
  Br     1.003802   -0.000008   -0.000012
  H     -1.107603   -1.682611    1.351430
  H     -2.564446   -1.451109    0.378186
  H     -1.107370   -2.128287   -0.357649
  H     -1.106912    0.754687    2.021891
  H     -1.107712    2.011709    0.781168
  H     -2.564331    1.052950    1.067893
  H     -2.564467    0.398453   -1.445612
  H     -1.107951   -0.329220   -2.132819
  H     -1.107071    1.373745   -1.664354

----------------------------
CARTESIAN COORDINATES (A.U.)
----------------------------
  NO LB      ZA    FRAG     MASS         X           Y           Z
   0 C     6.0000    0    12.011   -2.791836   -2.656520    0.692665
   1 C     6.0000    0    12.011   -1.970414   -0.000036    0.000034
   2 C     6.0000    0    12.011   -2.791631    1.928167    1.954251
   3 C     6.0000    0    12.011   -2.791867    0.728441   -2.646822
   4 Br   35.0000    0    79.900    1.896910   -0.000015   -0.000022
   5 H     1.0000    0     1.008   -2.093066   -3.179675    2.553833
   6 H     1.0000    0     1.008   -4.846101   -2.742198    0.714667
   7 H     1.0000    0     1.008   -2.092626   -4.021879   -0.675859
   8 H     1.0000    0     1.008   -2.091761    1.426151    3.820821
   9 H     1.0000    0     1.008   -2.093271    3.801579    1.476194
  10 H     1.0000    0     1.008   -4.845883    1.989786    2.018026
  11 H     1.0000    0     1.008   -4.846141    0.752967   -2.731811
  12 H     1.0000    0     1.008   -2.093725   -0.622136   -4.030444
  13 H     1.0000    0     1.008   -2.092062    2.596002   -3.145173

--------------------------------
INTERNAL COORDINATES (ANGSTROEM)
--------------------------------
 C      0   0   0     0.000000000000     0.00000000     0.00000000
 C      1   0   0     1.516383956248     0.00000000     0.00000000
 C      2   1   0     1.516379239099   112.13622988     0.00000000
 C      2   1   3     1.516377702956   112.13325359   232.80733931
 Br     2   1   3     2.046499812241   106.65826750   116.40223677
 H      1   2   3     1.087831640938   110.93567266   303.97110214
 H      1   2   3     1.088077294662   109.12343541    63.60812207
 H      1   2   3     1.087836682342   110.93509304   183.24127032
 H      3   2   1     1.087831801380   110.93657844    56.06878125
 H      3   2   1     1.087831550046   110.93277514   176.79554912
 H      3   2   1     1.088076175085   109.12527839   296.43146504
 H      4   2   1     1.088082283823   109.12391433    63.62683735
 H      4   2   1     1.087825193706   110.93609246   303.98882559
 H      4   2   1     1.087824385725   110.93391167   183.25871688

---------------------------
INTERNAL COORDINATES (A.U.)
---------------------------
 C      0   0   0     0.000000000000     0.00000000     0.00000000
 C      1   0   0     2.865550391181     0.00000000     0.00000000
 C      2   1   0     2.865541477060   112.13622988     0.00000000
 C      2   1   3     2.865538574172   112.13325359   232.80733931
 Br     2   1   3     3.867324178258   106.65826750   116.40223677
 H      1   2   3     2.055703881187   110.93567266   303.97110214
 H      1   2   3     2.056168099448   109.12343541    63.60812207
 H      1   2   3     2.055713408059   110.93509304   183.24127032
 H      3   2   1     2.055704184378   110.93657844    56.06878125
 H      3   2   1     2.055703709425   110.93277514   176.79554912
 H      3   2   1     2.056165983756   109.12527839   296.43146504
 H      4   2   1     2.056177527598   109.12391433    63.62683735
 H      4   2   1     2.055691697683   110.93609246   303.98882559
 H      4   2   1     2.055690170822   110.93391167   183.25871688

---------------------
BASIS SET INFORMATION
---------------------
There are 3 groups of distinct atoms

 Group   1 Type C   : 11s6p1d contracted to 5s3p1d pattern {62111/411/1}
 Group   2 Type Br  : 17s13p7d contracted to 6s5p3d pattern {842111/64111/511}
 Group   3 Type H   : 4s1p contracted to 2s1p pattern {31/1}

Atom   0C    basis set group =>   1
Atom   1C    basis set group =>   1
Atom   2C    basis set group =>   1
Atom   3C    basis set group =>   1
Atom   4Br   basis set group =>   2
Atom   5H    basis set group =>   3
Atom   6H    basis set group =>   3
Atom   7H    basis set group =>   3
Atom   8H    basis set group =>   3
Atom   9H    basis set group =>   3
Atom  10H    basis set group =>   3
Atom  11H    basis set group =>   3
Atom  12H    basis set group =>   3
Atom  13H    basis set group =>   3
---------------------------------
AUXILIARY/J BASIS SET INFORMATION
---------------------------------
There are 3 groups of distinct atoms

 Group   1 Type C   : 12s5p4d2f1g contracted to 6s4p3d1f1g pattern {711111/2111/211/2/1}
 Group   2 Type Br  : 19s5p5d3f1g contracted to 8s4p3d2f1g pattern {121111111/2111/311/21/1}
 Group   3 Type H   : 5s2p1d contracted to 3s1p1d pattern {311/2/1}

Atom   0C    basis set group =>   1
Atom   1C    basis set group =>   1
Atom   2C    basis set group =>   1
Atom   3C    basis set group =>   1
Atom   4Br   basis set group =>   2
Atom   5H    basis set group =>   3
Atom   6H    basis set group =>   3
Atom   7H    basis set group =>   3
Atom   8H    basis set group =>   3
Atom   9H    basis set group =>   3
Atom  10H    basis set group =>   3
Atom  11H    basis set group =>   3
Atom  12H    basis set group =>   3
Atom  13H    basis set group =>   3

Checking for AutoStart:
The File: sp_solv.gbw exists
Trying to determine its content:
     ... Fine, the file contains calculation information
     ... Fine, the calculation information was read
     ... Fine, the file contains a basis set
     ... Fine, the basis set was read
     ... Fine, the file contains a geometry
     ... Fine, the geometry was read
     ... Fine, the file contains a set of orbitals
     ... Fine, the orbitals can be read
     => possible old guess file was deleted
     => GBW file was renamed to GES file
     => GES file is set as startup file
     => Guess is set to MORead
     ... now leaving AutoStart

------------------------------------------------------------------------------
                             ORCA STARTUP CALCULATIONS
                           -- RI-GTO INTEGRALS CHOSEN --
------------------------------------------------------------------------------
------------------------------------------------------------------------------
                   ___                                                        
                  /   \      - P O W E R E D   B Y -                         
                 /     \                                                     
                 |  |  |   _    _      __       _____    __    __             
                 |  |  |  | |  | |    /  \     |  _  \  |  |  /  |          
                  \  \/   | |  | |   /    \    | | | |  |  | /  /          
                 / \  \   | |__| |  /  /\  \   | |_| |  |  |/  /          
                |  |  |   |  __  | /  /__\  \  |    /   |      \           
                |  |  |   | |  | | |   __   |  |    \   |  |\   \          
                \     /   | |  | | |  |  |  |  | |\  \  |  | \   \       
                 \___/    |_|  |_| |__|  |__|  |_| \__\ |__|  \__/        
                                                                              
                      - O R C A' S   B I G   F R I E N D -                    
                                      &                                       
                       - I N T E G R A L  F E E D E R -                       
                                                                              
 v1 FN, 2020, v2 2021, v3 2022-2024                                           
------------------------------------------------------------------------------


----------------------
SHARK INTEGRAL PACKAGE
----------------------

Number of atoms                             ...     14
Number of basis functions                   ...    157
Number of shells                            ...     77
Maximum angular momentum                    ...      2
Integral batch strategy                     ... SHARK/LIBINT Hybrid
RI-J (if used) integral strategy            ... SPLIT-RIJ (Revised 2003 algorithm where possible)
Printlevel                                  ...      1
Contraction scheme used                     ... SEGMENTED contraction
Prescreening option                         ... SCHWARTZ
   Thresh                                   ... 1.000e-10
   Tcut                                     ... 1.000e-11
   Tpresel                                  ... 1.000e-11 
Coulomb Range Separation                    ... NOT USED
Exchange Range Separation                   ... NOT USED
Multipole approximations                    ... NOT USED
Finite Nucleus Model                        ... NOT USED
CABS basis                                  ... NOT available
Auxiliary Coulomb fitting basis             ... AVAILABLE
   # of basis functions in Aux-J            ...    353
   # of shells in Aux-J                     ...    123
   Maximum angular momentum in Aux-J        ...      4
Auxiliary J/K fitting basis                 ... NOT available
Auxiliary Correlation fitting basis         ... NOT available
Auxiliary 'external' fitting basis          ... NOT available

Checking pre-screening integrals            ... done (  0.0 sec) Dimension = 77
Check shell pair data                       ... done (  0.0 sec)
Shell pair information
Shell pair cut-off parameter TPreSel        ...   1.0e-11
Total number of shell pairs                 ...      3003
Shell pairs after pre-screening             ...      2857
Total number of primitive shell pairs       ...     12116
Primitive shell pairs kept                  ...      8324
          la=0 lb=0:    928 shell pairs
          la=1 lb=0:   1091 shell pairs
          la=1 lb=1:    336 shell pairs
          la=2 lb=0:    295 shell pairs
          la=2 lb=1:    179 shell pairs
          la=2 lb=2:     28 shell pairs

Calculating one electron integrals          ... done (  0.0 sec)
Calculating RI/J V-Matrix + Cholesky decomp.... done (  0.0 sec)
Calculating Nuclear repulsion               ... done (  0.0 sec) ENN=    347.677008422234 Eh

Diagonalization of the overlap matrix:
Smallest eigenvalue                        ... 4.040e-04
Time for diagonalization                   ...    0.002 sec
Threshold for overlap eigenvalues          ... 1.000e-07
Number of eigenvalues below threshold      ... 0
Time for construction of square roots      ...    0.013 sec
Total time needed                          ...    0.026 sec

-------------------
DFT GRID GENERATION
-------------------

General Integration Accuracy     IntAcc      ... 4.388
Radial Grid Type                 RadialGrid  ... OptM3 with GC (2021)
Angular Grid (max. ang.)         AngularGrid ... 4 (Lebedev-302)
Angular grid pruning method      GridPruning ... 4 (adaptive)
Weight generation scheme         WeightScheme... mBecke (2022)
Basis function cutoff            BFCut       ... 1.0000e-10
Integration weight cutoff        WCut        ... 1.0000e-14
Partially contracted basis set               ... off
Rotationally invariant grid construction     ... off
Angular grids for H and He will be reduced by one unit
Core-polarized basis detected: some atoms will have their core
                               angular grid increased.

Total number of grid points                  ...    64251
Total number of batches                      ...     1011
Average number of points per batch           ...       63
Average number of grid points per atom       ...     4589
Initializing property integral containers    ... done (  0.0 sec)

SHARK setup successfully completed in   0.9 seconds

Maximum memory used throughout the entire STARTUP-calculation: 32.5 MB
-------------------------------------------------------------------------------
                                 ORCA GUESS
                   Start orbitals & Density for SCF / CASSCF
-------------------------------------------------------------------------------

------------
SCF SETTINGS
------------
Hamiltonian:
 Density Functional     Method          .... DFT(GTOs)
  Functional kind                       .... Exchange
  Functional name                       .... Re-regularized SCAN exchange by Furness et al
  Functional family                     .... MGGA
  Functional refs                              
    [ 0] J. W. Furness, A. D. Kaplan, J. Ning, J. P. Perdew, and J. Sun.,  J. Phys. Chem. Lett. 11, 8208-8215 (2020), doi: 10.1021/acs.jpclett.0c02405
    [ 1] J. W. Furness, A. D. Kaplan, J. Ning, J. P. Perdew, and J. Sun.,  J. Phys. Chem. Lett. 11, 9248-9248 (2020), doi: 10.1021/acs.jpclett.0c03077
  Functional external parameters        .... 6
    Parameter  0 _c1        =  6.670000e-01 : c1 parameter        
    Parameter  1 _c2        =  8.000000e-01 : c2 parameter        
    Parameter  2 _d         =  1.240000e+00 : d parameter         
    Parameter  3 _k1        =  6.500000e-02 : k1 parameter        
    Parameter  4 _eta       =  1.000000e-03 : eta parameter       
    Parameter  5 _dp2       =  3.610000e-01 : dp2 parameter       
  Functional kind                       .... Correlation
  Functional name                       .... Re-regularized SCAN correlation by Furness et al
  Functional family                     .... MGGA
  Functional refs                              
    [ 0] J. W. Furness, A. D. Kaplan, J. Ning, J. P. Perdew, and J. Sun.,  J. Phys. Chem. Lett. 11, 8208-8215 (2020), doi: 10.1021/acs.jpclett.0c02405
    [ 1] J. W. Furness, A. D. Kaplan, J. Ning, J. P. Perdew, and J. Sun.,  J. Phys. Chem. Lett. 11, 9248-9248 (2020), doi: 10.1021/acs.jpclett.0c03077
  Functional external parameters        .... 1
    Parameter  0 _eta       =  1.000000e-03 : Regularization parameter
 Gradients option       PostSCFGGA      .... off
 RI-approximation to the Coulomb term is turned on
   Number of AuxJ basis functions       .... 353


General Settings:
 Integral files         IntName         .... sp_solv
 Hartree-Fock type      HFTyp           .... RHF
 Total Charge           Charge          ....    0
 Multiplicity           Mult            ....    1
 Number of Electrons    NEL             ....   68
 Basis Dimension        Dim             ....  157
 Nuclear Repulsion      ENuc            ....    347.6770084222 Eh

Convergence Acceleration:
 AO-DIIS                CNVDIIS         .... on
   Start iteration      DIISMaxIt       ....    12
   Startup error        DIISStart       ....  0.200000
   # of expansion vecs  DIISMaxEq       ....     5
   Bias factor          DIISBfac        ....   1.050
   Max. coefficient     DIISMaxC        ....  10.000
 MO-DIIS                CNVKDIIS        .... off
 Trust-Rad. Augm. Hess. CNVTRAH         .... auto
   Auto Start mean grad. ratio tolernc. ....  1.125000
   Auto Start start iteration           ....     1
   Auto Start num. interpolation iter.  ....    10
   Max. Number of Micro iterations      ....    24
   Max. Number of Macro iterations      .... Maxiter - #DIIS iter
   Number of Davidson start vectors     ....     2
   Converg. threshold    (grad. norm)   ....   3.330e-04
   Grad. Scal. Fac. for Micro threshold ....   0.100
   Minimum threshold for Micro iter.    ....   1.000e-02
   NR start threshold (gradient norm)   ....   1.000e-04
   Initial trust radius                 ....   0.400
   Minimum AH scaling param. (alpha)    ....   1.000
   Maximum AH scaling param. (alpha)    .... 1000.000
   Quad. conv. algorithm                .... NR
   White noise on init. David. guess    .... on
   Maximum white noise                  ....   0.010
   Pseudo random numbers                .... off
   Inactive MOs                         .... canonical
   Orbital update algorithm             .... Taylor
   Preconditioner                       .... Diag
   Full preconditioner red. dimension   ....   250
   COSX micro iterations for RIJONX calc.... off
 SOSCF                  CNVSOSCF        .... on
   Start iteration      SOSCFMaxIt      ....   150
   Startup grad/error   SOSCFStart      ....  0.003300
   Hessian update       SOSCFHessUp     .... L-BFGS
 Level Shifting         CNVShift        .... on
   Level shift para.    LevelShift      ....    0.2500
   Turn off err/grad.   ShiftErr        ....    0.0010
 Zerner damping         CNVZerner       .... off
 Static damping         CNVDamp         .... on
   Fraction old density DampFac         ....    0.7000
   Max. Damping (<1)    DampMax         ....    0.9800
   Min. Damping (>=0)   DampMin         ....    0.0000
   Turn off err/grad.   DampErr         ....    0.1000

SCF Procedure:
 Maximum # iterations   MaxIter         ....   125
 SCF integral mode      SCFMode         .... Direct
   Integral package                     .... SHARK and LIBINT hybrid scheme
 Reset frequency        DirectResetFreq ....    20
 Integral Threshold     Thresh          ....  1.000e-10 Eh
 Primitive CutOff       TCut            ....  1.000e-11 Eh

Convergence Tolerance:
 Convergence Check Mode ConvCheckMode   .... Total+1el-Energy
 Convergence forced     ConvForced      .... 0
 Energy Change          TolE            ....  1.000e-06 Eh
 1-El. energy change                    ....  1.000e-03 Eh
 Orbital Gradient       TolG            ....  3.330e-04
 Orbital Rotation angle TolX            ....  3.330e-04
 DIIS Error             TolErr          ....  1.000e-06

---------------------
INITIAL GUESS: MOREAD
---------------------
Guess MOs are being read from file: sp_solv.ges
Input Geometry matches current geometry (good)
Atom 0: N(Shells)= 9 and 6 - projection required
Input basis set needs projection
NBasis(read)= 106
NBasis(calc)= 157
Basis set overlap was calculated
Using GuessMode=FMatrix for the initial guess
C*T matrix was formed
Effective Fockian was calculated
Effective Fockian was diagonalized
Initial density was built
                      ------------------
                      INITIAL GUESS DONE (   0.0 sec)
                      ------------------
             **** ENERGY FILE WAS UPDATED (sp_solv.en.tmp) ****
Finished Guess after   0.3 sec
Maximum memory used throughout the entire GUESS-calculation: 11.7 MB

-------------------------------------------------------------------------------------------
                                      ORCA LEAN-SCF
                              memory conserving SCF solver
-------------------------------------------------------------------------------------------

--------------------
CPCM SOLVATION MODEL
--------------------
CPCM parameters:
  Epsilon                                         ...      78.3550
  Refrac                                          ...       1.3328
  Rsolv                                           ...       1.3000
  Surface type                                    ... GAUSSIAN VDW
  Discretization scheme                           ... Constant charge density
    Threshold for H atoms                         ...       5.0000 (charges/Ang^2)
    Threshold for non-H atoms                     ...       5.0000 (charges/Ang^2)
  Epsilon function type                           ...         CPCM
Solvent:                                          ... WATER
SMD-CDS solvent descriptors:
  Soln                                            ...       1.3328
  Soln25                                          ...       1.3323
  Sola                                            ...       0.0000
  Solb                                            ...       0.0000
  Solg                                            ...       0.0000
  Solc                                            ...       0.0000
  Solh                                            ...       0.0000
Radii:
  Scheme                                          ... Element-dependent radii
  Radius for C  used is    3.4960 Bohr (=   1.8500 Ang.)
  Radius for Br used is    5.7826 Bohr (=   3.0600 Ang.)
  Radius for H  used is    2.2677 Bohr (=   1.2000 Ang.)
Calculating surface                               ...        done! (  0.0s)
Cavity surface points                             ...         1222
Cavity Volume                                     ...    1135.9414
Cavity Surface-area                               ...     582.7314
Calculating surface distance matrix               ...        done! (  0.0s)
Performing Cholesky decomposition & store         ...        done! (  0.1s)
Overall time for CPCM initialization              ...                 0.1s

----------------------------------------D-I-I-S--------------------------------------------
Iteration    Energy (Eh)           Delta-E    RMSDP     MaxDP     DIISErr   Damp  Time(sec)
-------------------------------------------------------------------------------------------
               ***  Starting incremental Fock matrix formation  ***
    1    -2731.8499054455660371     0.00e+00  2.94e-03  6.19e-02  3.27e-01  0.700   1.9
    2    -2731.8794612608971875    -2.96e-02  2.47e-03  5.13e-02  2.29e-01  0.700   1.8
                               ***Turning on AO-DIIS***
    3    -2731.9004331027190347    -2.10e-02  1.88e-03  3.87e-02  1.60e-01  0.700   1.8
    4    -2731.9151560638383671    -1.47e-02  1.37e-03  2.77e-02  1.12e-01  0.700   1.7
    5    -2731.9255289766697388    -1.04e-02  9.81e-04  1.96e-02  7.84e-02  0.700   1.7
    6    -2731.9328131645297617    -7.28e-03  2.32e-03  4.61e-02  5.49e-02  0.000   1.7
                              *** Initializing SOSCF ***
---------------------------------------S-O-S-C-F--------------------------------------
Iteration    Energy (Eh)           Delta-E    RMSDP     MaxDP     MaxGrad    Time(sec)
--------------------------------------------------------------------------------------
    7    -2731.9498669096192316    -1.71e-02  4.20e-05  9.94e-04  9.57e-04     1.7
               *** Restarting incremental Fock matrix formation ***
    8    -2731.9498674436326837    -5.34e-07  5.20e-05  1.38e-03  3.94e-04     1.9
    9    -2731.9498624281468437     5.02e-06  3.23e-05  8.33e-04  7.79e-04     1.6
   10    -2731.9498695772417705    -7.15e-06  4.48e-06  1.49e-04  8.25e-05     1.6
                  *** Gradient check signals convergence ***

               *****************************************************
               *                     SUCCESS                       *
               *           SCF CONVERGED AFTER  10 CYCLES          *
               *****************************************************


SMD CDS free energy correction energy :                 2.20942     Kcal/mol
Total Energy after SMD CDS correction =             -2731.946348642 Eh
             **** ENERGY FILE WAS UPDATED (sp_solv.en.tmp) ****

----------------
TOTAL SCF ENERGY
----------------

Total Energy       :      -2731.94634864246609 Eh          -74340.03952 eV

Components:
Nuclear Repulsion  :        347.67700842223371 Eh            9460.77238 eV
Electronic Energy  :      -3079.62045255929070 Eh          -83800.73286 eV
One Electron Energy:      -4485.97556631966108 Eh         -122069.60106 eV
Two Electron Energy:       1406.35511376037039 Eh           38268.86820 eV
CPCM Dielectric    :         -0.00642544018499 Eh              -0.17485 eV
SMD CDS (Gcds)     :          0.00352093477549 Eh               0.09581 eV

Virial components:
Potential Energy   :      -5459.61280113811154 Eh         -148563.61715 eV
Kinetic Energy     :       2727.66645249564590 Eh           74223.57763 eV
Virial Ratio       :          2.00156906873379

DFT components:
N(Alpha)           :       34.000074181693 electrons
N(Beta)            :       34.000074181693 electrons
N(Total)           :       68.000148363387 electrons
E(X)               :     -113.587832066353 Eh       
E(C)               :       -2.738093777462 Eh       
E(XC)              :     -116.325925843816 Eh       

CPCM Solvation Model Properties:
Surface-charge          :         -0.02382628111862
Corrected charge        :          0.00000000000000
Outlying charge corr.   :          0.00004220958628 Eh               0.00115 eV
Free-energy (cav+disp)  :          0.00352093477549 Eh               0.09581 eV

---------------
SCF CONVERGENCE
---------------

  Last Energy change         ...    7.1491e-06  Tolerance :   1.0000e-06
  Last MAX-Density change    ...    1.4887e-04  Tolerance :   1.0000e-05
  Last RMS-Density change    ...    4.4778e-06  Tolerance :   1.0000e-06
  Last DIIS Error            ...    9.5732e-04  Tolerance :   1.0000e-06
  Last Orbital Gradient      ...    8.2539e-05  Tolerance :   3.3300e-04
  Last Orbital Rotation      ...    3.5872e-05  Tolerance :   3.3300e-04


----------------
ORBITAL ENERGIES
----------------

  NO   OCC          E(Eh)            E(eV) 
   0   2.0000    -482.198030    -13121.2755 
   1   2.0000     -62.270072     -1694.4548 
   2   2.0000     -56.050246     -1525.2047 
   3   2.0000     -56.047977     -1525.1430 
   4   2.0000     -56.047977     -1525.1430 
   5   2.0000     -10.100096      -274.8376 
   6   2.0000     -10.019924      -272.6560 
   7   2.0000     -10.019872      -272.6546 
   8   2.0000     -10.019865      -272.6544 
   9   2.0000      -8.601901      -234.0696 
  10   2.0000      -6.408132      -174.3741 
  11   2.0000      -6.396329      -174.0530 
  12   2.0000      -6.396328      -174.0529 
  13   2.0000      -2.505965       -68.1908 
  14   2.0000      -2.503082       -68.1123 
  15   2.0000      -2.503082       -68.1123 
  16   2.0000      -2.494310       -67.8736 
  17   2.0000      -2.494304       -67.8735 
  18   2.0000      -0.800286       -21.7769 
  19   2.0000      -0.691965       -18.8293 
  20   2.0000      -0.658948       -17.9309 
  21   2.0000      -0.658914       -17.9300 
  22   2.0000      -0.508734       -13.8434 
  23   2.0000      -0.428152       -11.6506 
  24   2.0000      -0.412503       -11.2248 
  25   2.0000      -0.412478       -11.2241 
  26   2.0000      -0.361122        -9.8266 
  27   2.0000      -0.361091        -9.8258 
  28   2.0000      -0.334094        -9.0912 
  29   2.0000      -0.312877        -8.5138 
  30   2.0000      -0.312867        -8.5136 
  31   2.0000      -0.295942        -8.0530 
  32   2.0000      -0.242698        -6.6041 
  33   2.0000      -0.242695        -6.6041 
  34   0.0000      -0.032158        -0.8751 
  35   0.0000       0.093895         2.5550 
  36   0.0000       0.138077         3.7573 
  37   0.0000       0.141052         3.8382 
  38   0.0000       0.141055         3.8383 
  39   0.0000       0.156211         4.2507 
  40   0.0000       0.156220         4.2510 
  41   0.0000       0.176388         4.7998 
  42   0.0000       0.177431         4.8281 
  43   0.0000       0.177447         4.8286 
  44   0.0000       0.193671         5.2701 
*Only the first 10 virtual orbitals were printed.

                    ********************************
                    * MULLIKEN POPULATION ANALYSIS *
                    ********************************

-----------------------
MULLIKEN ATOMIC CHARGES
-----------------------
   0 C :   -0.480506
   1 C :    0.167869
   2 C :   -0.480235
   3 C :   -0.480428
   4 Br:   -0.282714
   5 H :    0.172159
   6 H :    0.174439
   7 H :    0.172214
   8 H :    0.172082
   9 H :    0.171990
  10 H :    0.174387
  11 H :    0.174443
  12 H :    0.172155
  13 H :    0.172145
Sum of atomic charges:   -0.0000000

--------------------------------
MULLIKEN REDUCED ORBITAL CHARGES
--------------------------------
  0 C s       :     3.326851  s :     3.326851
      pz      :     1.104522  p :     3.126891
      px      :     1.082679
      py      :     0.939690
      dz2     :     0.005788  d :     0.026764
      dxz     :     0.002276
      dyz     :     0.006958
      dx2y2   :     0.008264
      dxy     :     0.003478

  1 C s       :     3.031531  s :     3.031531
      pz      :     1.002920  p :     2.746899
      px      :     0.740948
      py      :     1.003032
      dz2     :     0.012623  d :     0.053700
      dxz     :     0.008013
      dyz     :     0.012828
      dx2y2   :     0.012223
      dxy     :     0.008013

  2 C s       :     3.326737  s :     3.326737
      pz      :     1.020771  p :     3.126732
      px      :     1.082700
      py      :     1.023262
      dz2     :     0.007487  d :     0.026766
      dxz     :     0.002890
      dyz     :     0.005767
      dx2y2   :     0.007757
      dxy     :     0.002866

  3 C s       :     3.326824  s :     3.326824
      pz      :     0.940970  p :     3.126840
      px      :     1.082677
      py      :     1.103193
      dz2     :     0.007394  d :     0.026765
      dxz     :     0.003467
      dyz     :     0.006924
      dx2y2   :     0.006692
      dxy     :     0.002288

  4 Brs       :     7.990143  s :     7.990143
      pz      :     5.969449  p :    17.260465
      px      :     5.321575
      py      :     5.969441
      dz2     :     2.005001  d :    10.032106
      dxz     :     2.006376
      dyz     :     2.000649
      dx2y2   :     2.013706
      dxy     :     2.006375

  5 H s       :     0.809612  s :     0.809612
      pz      :     0.009885  p :     0.018229
      px      :     0.004434
      py      :     0.003910

  6 H s       :     0.807192  s :     0.807192
      pz      :     0.003673  p :     0.018369
      px      :     0.011269
      py      :     0.003428

  7 H s       :     0.809558  s :     0.809558
      pz      :     0.006880  p :     0.018227
      px      :     0.004435
      py      :     0.006912

  8 H s       :     0.809689  s :     0.809689
      pz      :     0.009949  p :     0.018229
      px      :     0.004436
      py      :     0.003843

  9 H s       :     0.809781  s :     0.809781
      pz      :     0.003799  p :     0.018229
      px      :     0.004432
      py      :     0.009997

 10 H s       :     0.807242  s :     0.807242
      pz      :     0.003549  p :     0.018371
      px      :     0.011270
      py      :     0.003552

 11 H s       :     0.807188  s :     0.807188
      pz      :     0.003429  p :     0.018369
      px      :     0.011269
      py      :     0.003671

 12 H s       :     0.809618  s :     0.809618
      pz      :     0.007008  p :     0.018228
      px      :     0.004432
      py      :     0.006788

 13 H s       :     0.809626  s :     0.809626
      pz      :     0.003862  p :     0.018230
      px      :     0.004437
      py      :     0.009930


------------------------
MULLIKEN OVERLAP CHARGES
------------------------
B(  0-C ,  1-C ) :   0.5219 B(  0-C ,  2-C ) :  -0.2455 B(  0-C ,  3-C ) :  -0.2455 
B(  0-C ,  4-Br) :  -0.1509 B(  0-C ,  5-H ) :   0.8086 B(  0-C ,  6-H ) :   0.7926 
B(  0-C ,  7-H ) :   0.8086 B(  1-C ,  2-C ) :   0.5225 B(  1-C ,  3-C ) :   0.5221 
B(  1-C ,  4-Br) :   0.5002 B(  1-C ,  5-H ) :  -0.0680 B(  1-C ,  7-H ) :  -0.0679 
B(  1-C ,  8-H ) :  -0.0680 B(  1-C ,  9-H ) :  -0.0680 B(  1-C , 12-H ) :  -0.0679 
B(  1-C , 13-H ) :  -0.0679 B(  2-C ,  3-C ) :  -0.2456 B(  2-C ,  4-Br) :  -0.1508 
B(  2-C ,  8-H ) :   0.8086 B(  2-C ,  9-H ) :   0.8086 B(  2-C , 10-H ) :   0.7925 
B(  3-C ,  4-Br) :  -0.1509 B(  3-C , 11-H ) :   0.7926 B(  3-C , 12-H ) :   0.8086 
B(  3-C , 13-H ) :   0.8086 


                     *******************************
                     * LOEWDIN POPULATION ANALYSIS *
                     *******************************

----------------------
LOEWDIN ATOMIC CHARGES
----------------------
   0 C :   -0.425764
   1 C :   -0.245022
   2 C :   -0.425771
   3 C :   -0.425758
   4 Br:    0.016104
   5 H :    0.165191
   6 H :    0.171697
   7 H :    0.165227
   8 H :    0.165172
   9 H :    0.165152
  10 H :    0.171684
  11 H :    0.171701
  12 H :    0.165212
  13 H :    0.165177

-------------------------------
LOEWDIN REDUCED ORBITAL CHARGES
-------------------------------
  0 C s       :     2.974045  s :     2.974045
      pz      :     1.157339  p :     3.388393
      px      :     1.162036
      py      :     1.069018
      dz2     :     0.013896  d :     0.063327
      dxz     :     0.005610
      dyz     :     0.016235
      dx2y2   :     0.019530
      dxy     :     0.008056

  1 C s       :     2.964340  s :     2.964340
      pz      :     1.129635  p :     3.176592
      px      :     0.917305
      py      :     1.129651
      dz2     :     0.025135  d :     0.104089
      dxz     :     0.014328
      dyz     :     0.025129
      dx2y2   :     0.025168
      dxy     :     0.014329

  2 C s       :     2.974051  s :     2.974051
      pz      :     1.112505  p :     3.388386
      px      :     1.162045
      py      :     1.113836
      dz2     :     0.017501  d :     0.063334
      dxz     :     0.006861
      dyz     :     0.013769
      dx2y2   :     0.018394
      dxy     :     0.006809

  3 C s       :     2.974042  s :     2.974042
      pz      :     1.069709  p :     3.388387
      px      :     1.162039
      py      :     1.156639
      dz2     :     0.017391  d :     0.063330
      dxz     :     0.008033
      dyz     :     0.016168
      dx2y2   :     0.016104
      dxy     :     0.005635

  4 Brs       :     7.728835  s :     7.728835
      pz      :     5.941545  p :    17.208697
      px      :     5.325611
      py      :     5.941542
      dz2     :     2.007392  d :    10.046364
      dxz     :     2.008795
      dyz     :     2.000795
      dx2y2   :     2.020587
      dxy     :     2.008795

  5 H s       :     0.790657  s :     0.790657
      pz      :     0.024849  p :     0.044153
      px      :     0.010268
      py      :     0.009036

  6 H s       :     0.783761  s :     0.783761
      pz      :     0.008219  p :     0.044542
      px      :     0.028618
      py      :     0.007706

  7 H s       :     0.790623  s :     0.790623
      pz      :     0.016935  p :     0.044150
      px      :     0.010270
      py      :     0.016946

  8 H s       :     0.790678  s :     0.790678
      pz      :     0.024978  p :     0.044150
      px      :     0.010274
      py      :     0.008899

  9 H s       :     0.790700  s :     0.790700
      pz      :     0.008782  p :     0.044148
      px      :     0.010263
      py      :     0.025103

 10 H s       :     0.783773  s :     0.783773
      pz      :     0.007959  p :     0.044543
      px      :     0.028619
      py      :     0.007965

 11 H s       :     0.783758  s :     0.783758
      pz      :     0.007709  p :     0.044542
      px      :     0.028618
      py      :     0.008215

 12 H s       :     0.790638  s :     0.790638
      pz      :     0.017196  p :     0.044150
      px      :     0.010262
      py      :     0.016692

 13 H s       :     0.790669  s :     0.790669
      pz      :     0.008911  p :     0.044154
      px      :     0.010276
      py      :     0.024968


---------------------------------
LOEWDIN BOND ORDERS (THRESH 0.050000)
---------------------------------
B(  0-C ,  1-C ) :   1.1273 B(  0-C ,  2-C ) :   0.0721 B(  0-C ,  3-C ) :   0.0721 
B(  0-C ,  4-Br) :   0.1034 B(  0-C ,  5-H ) :   0.9174 B(  0-C ,  6-H ) :   0.9017 
B(  0-C ,  7-H ) :   0.9174 B(  1-C ,  2-C ) :   1.1273 B(  1-C ,  3-C ) :   1.1273 
B(  1-C ,  4-Br) :   1.1351 B(  2-C ,  3-C ) :   0.0721 B(  2-C ,  4-Br) :   0.1034 
B(  2-C ,  8-H ) :   0.9174 B(  2-C ,  9-H ) :   0.9174 B(  2-C , 10-H ) :   0.9017 
B(  3-C ,  4-Br) :   0.1034 B(  3-C , 11-H ) :   0.9017 B(  3-C , 12-H ) :   0.9174 
B(  3-C , 13-H ) :   0.9174 

------------------------------------------
LOEWDIN REDUCED ORBITAL POPULATIONS PER MO
-------------------------------------------
THRESHOLD FOR PRINTING IS 0.1%%
                      0         1         2         3         4         5   
                 -482.19803 -62.27007 -56.05025 -56.04798 -56.04798 -10.10010
                   2.00000   2.00000   2.00000   2.00000   2.00000   2.00000
                  --------  --------  --------  --------  --------  --------
 1 C  s               0.0       0.0       0.0       0.0       0.0      99.7
 4 Br s             100.0     100.0       0.0       0.0       0.0       0.0
 4 Br pz              0.0       0.0       0.0      60.6      39.4       0.0
 4 Br px              0.0       0.0     100.0       0.0       0.0       0.0
 4 Br py              0.0       0.0       0.0      39.4      60.6       0.0

                      6         7         8         9        10        11   
                 -10.01992 -10.01987 -10.01986  -8.60190  -6.40813  -6.39633
                   2.00000   2.00000   2.00000   2.00000   2.00000   2.00000
                  --------  --------  --------  --------  --------  --------
 0 C  s               0.2      17.4      82.1       0.0       0.0       0.0
 1 C  px              0.0       0.0       0.0       0.1       0.0       0.0
 2 C  s              99.3       0.1       0.3       0.0       0.0       0.0
 3 C  s               0.2      82.2      17.3       0.0       0.0       0.0
 4 Br s               0.0       0.0       0.0      99.8       0.0       0.0
 4 Br pz              0.0       0.0       0.0       0.0       0.0      35.1
 4 Br px              0.0       0.0       0.0       0.0     100.0       0.0
 4 Br py              0.0       0.0       0.0       0.0       0.0      64.9

                     12        13        14        15        16        17   
                  -6.39633  -2.50596  -2.50308  -2.50308  -2.49431  -2.49430
                   2.00000   2.00000   2.00000   2.00000   2.00000   2.00000
                  --------  --------  --------  --------  --------  --------
 4 Br pz             64.9       0.0       0.0       0.0       0.0       0.0
 4 Br py             35.1       0.0       0.0       0.0       0.0       0.0
 4 Br dz2             0.0      25.0       0.0       0.0       0.0      75.0
 4 Br dxz             0.0       0.0      33.1      66.9       0.0       0.0
 4 Br dyz             0.0       0.0       0.0       0.0     100.0       0.0
 4 Br dx2y2           0.0      75.0       0.0       0.0       0.0      25.0
 4 Br dxy             0.0       0.0      66.9      33.1       0.0       0.0

                     18        19        20        21        22        23   
                  -0.80029  -0.69197  -0.65895  -0.65891  -0.50873  -0.42815
                   2.00000   2.00000   2.00000   2.00000   2.00000   2.00000
                  --------  --------  --------  --------  --------  --------
 0 C  s              10.4       2.9       8.4      21.6       3.4       0.1
 0 C  pz              0.2       0.0       0.5       0.5       0.6       0.3
 0 C  px              0.4       0.7       0.0       0.0       1.4      10.8
 0 C  py              3.5       0.1       0.4       0.4       9.6       3.8
 0 C  dx2y2           0.1       0.0       0.0       0.0       0.2       0.0
 1 C  s              30.8       0.9       0.0       0.0      16.6       0.0
 1 C  pz              0.0       0.0       8.6       9.6       0.0       0.0
 1 C  px              0.2      15.1       0.0       0.0       0.3      16.0
 1 C  py              0.0       0.0       9.6       8.6       0.0       0.0
 1 C  dz2             0.0       0.1       0.0       0.2       0.0       0.0
 1 C  dyz             0.0       0.0       0.3       0.0       0.0       0.0
 1 C  dx2y2           0.0       0.3       0.0       0.1       0.0       0.0
 2 C  s              10.4       2.9      30.0       0.0       3.4       0.1
 2 C  pz              1.9       0.1       0.4       0.5       5.2       2.1
 2 C  px              0.4       0.7       0.0       0.0       1.4      10.8
 2 C  py              1.9       0.1       0.4       0.5       5.0       2.0
 2 C  dyz             0.1       0.0       0.0       0.0       0.2       0.1
 3 C  s              10.4       2.9       6.6      23.4       3.4       0.1
 3 C  pz              3.5       0.1       0.4       0.4       9.5       3.8
 3 C  px              0.4       0.7       0.0       0.0       1.4      10.8
 3 C  py              0.3       0.0       0.5       0.4       0.7       0.3
 3 C  dz2             0.1       0.0       0.0       0.0       0.2       0.0
 4 Br s              11.1      66.3       0.0       0.0       4.5       4.3
 4 Br pz              0.0       0.0       0.1       0.1       0.0       0.0
 4 Br px              2.0       0.6       0.0       0.0       5.3      11.3
 4 Br py              0.0       0.0       0.1       0.1       0.0       0.0
 4 Br dz2             0.1       0.0       0.0       0.0       0.1       0.1
 4 Br dx2y2           0.2       0.0       0.0       0.0       0.4       0.2
 5 H  s               1.2       0.5       1.5       5.4       2.6       2.1
 5 H  pz              0.1       0.0       0.1       0.4       0.1       0.1
 6 H  s               1.2       0.7       1.9       4.7       3.0       3.2
 6 H  px              0.1       0.1       0.2       0.4       0.1       0.1
 7 H  s               1.2       0.5       2.4       4.5       2.6       2.1
 7 H  pz              0.0       0.0       0.1       0.2       0.1       0.1
 7 H  py              0.0       0.0       0.1       0.2       0.0       0.0
 8 H  s               1.2       0.5       6.8       0.1       2.6       2.1
 8 H  pz              0.1       0.0       0.5       0.0       0.1       0.1
 9 H  s               1.2       0.5       6.9       0.0       2.6       2.1
 9 H  py              0.1       0.0       0.5       0.0       0.1       0.1
10 H  s               1.2       0.7       6.6       0.0       3.0       3.2
10 H  px              0.1       0.1       0.6       0.0       0.1       0.1
11 H  s               1.2       0.7       1.5       5.1       3.0       3.2
11 H  px              0.1       0.1       0.1       0.5       0.1       0.1
12 H  s               1.2       0.5       1.9       5.0       2.6       2.1
12 H  pz              0.0       0.0       0.1       0.2       0.0       0.0
12 H  py              0.0       0.0       0.1       0.2       0.1       0.1
13 H  s               1.2       0.5       1.1       5.8       2.6       2.1
13 H  py              0.1       0.0       0.1       0.4       0.1       0.1

                     24        25        26        27        28        29   
                  -0.41250  -0.41248  -0.36112  -0.36109  -0.33409  -0.31288
                   2.00000   2.00000   2.00000   2.00000   2.00000   2.00000
                  --------  --------  --------  --------  --------  --------
 0 C  s               0.7       0.1       0.0       0.0       0.0       0.5
 0 C  pz              0.4      22.7       3.2       0.5      17.2       0.6
 0 C  px              2.8       0.2       8.2      25.8       0.0       0.1
 0 C  py             10.0       0.1       0.0       1.2       1.2      18.5
 0 C  dxz             0.0       0.1       0.0       0.0       0.1       0.0
 0 C  dyz             0.0       0.0       0.0       0.0       0.2       0.3
 0 C  dx2y2           0.1       0.0       0.0       0.2       0.0       0.0
 0 C  dxy             0.1       0.0       0.0       0.0       0.0       0.1
 1 C  pz              4.3      11.7       0.4       0.4       0.0       1.9
 1 C  py             11.7       4.3       0.4       0.4       0.0      17.3
 1 C  dz2             0.0       0.0       0.0       0.1       0.0       0.1
 1 C  dxz             0.0       0.0       0.2       0.1       0.0       0.0
 1 C  dyz             0.0       0.1       0.1       0.0       0.0       0.6
 1 C  dxy             0.0       0.0       0.1       0.2       0.0       0.1
 2 C  s               0.0       0.7       0.0       0.0       0.0       0.5
 2 C  pz             14.8       1.7       0.5       1.9       9.1       4.0
 2 C  px              0.2       2.9      34.0       0.0       0.0       0.1
 2 C  py              8.4       8.3       0.5       1.9       9.3      16.1
 2 C  dz2             0.0       0.0       0.1       0.0       0.2       0.0
 2 C  dyz             0.0       0.1       0.0       0.0       0.0       0.1
 2 C  dx2y2           0.0       0.0       0.3       0.0       0.1       0.1
 3 C  s               0.4       0.4       0.0       0.0       0.0       0.0
 3 C  pz              9.1       1.1       0.0       1.2       1.3       1.2
 3 C  px              1.6       1.4       8.8      25.3       0.0       0.0
 3 C  py              7.1      15.9       3.1       0.5      17.1       9.7
 3 C  dyz             0.0       0.0       0.0       0.0       0.2       0.4
 3 C  dx2y2           0.0       0.0       0.1       0.2       0.0       0.0
 4 Br pz              0.4       1.2       1.6       1.5       0.0       0.1
 4 Br py              1.2       0.4       1.5       1.6       0.0       1.2
 4 Br dxz             0.0       0.1       0.1       0.1       0.0       0.0
 4 Br dxy             0.1       0.0       0.1       0.1       0.0       0.1
 5 H  s               0.0       6.8       2.9       0.9       7.0       0.0
 5 H  px              0.0       0.1       0.0       0.1       0.1       0.0
 5 H  py              0.1       0.1       0.0       0.0       0.1       0.2
 6 H  s               2.5       0.2       3.8      12.0       0.0       0.3
 6 H  pz              0.0       0.1       0.0       0.0       0.1       0.0
 6 H  px              0.1       0.0       0.1       0.2       0.0       0.0
 6 H  py              0.1       0.0       0.0       0.0       0.0       0.2
 7 H  s               2.6       4.3       0.0       3.8       7.0       6.9
 7 H  py              0.0       0.2       0.0       0.1       0.1       0.0
 8 H  s               6.7       0.1       2.8       1.0       7.0       0.2
 8 H  pz              0.2       0.0       0.1       0.0       0.1       0.0
 8 H  px              0.1       0.0       0.1       0.0       0.1       0.0
 8 H  py              0.0       0.1       0.0       0.0       0.0       0.2
 9 H  s               4.7       2.2       2.8       1.0       7.0       6.3
 9 H  pz              0.0       0.1       0.0       0.0       0.0       0.1
 9 H  px              0.0       0.1       0.1       0.0       0.1       0.0
 9 H  py              0.1       0.0       0.1       0.0       0.1       0.0
10 H  s               0.1       2.6      15.8       0.0       0.0       0.3
10 H  px              0.0       0.1       0.3       0.0       0.0       0.0
10 H  py              0.0       0.0       0.0       0.0       0.1       0.1
11 H  s               1.4       1.3       4.1      11.7       0.0       0.0
11 H  px              0.1       0.0       0.1       0.2       0.0       0.0
11 H  py              0.0       0.1       0.0       0.0       0.1       0.1
12 H  s               5.6       1.3       0.0       3.8       7.1       5.6
12 H  pz              0.1       0.1       0.0       0.1       0.1       0.0
13 H  s               1.0       5.9       2.9       0.9       7.0       4.8
13 H  pz              0.1       0.0       0.0       0.0       0.1       0.0
13 H  px              0.0       0.1       0.0       0.1       0.1       0.0
13 H  py              0.0       0.1       0.1       0.1       0.0       0.0

                     30        31        32        33        34        35   
                  -0.31287  -0.29594  -0.24270  -0.24270  -0.03216   0.09390
                   2.00000   2.00000   2.00000   2.00000   0.00000   0.00000
                  --------  --------  --------  --------  --------  --------
 0 C  s               0.2       0.2       0.2       0.3       0.1      13.1
 0 C  pz             11.0       0.0       0.1       0.0       0.0       0.2
 0 C  px              0.0       5.7       0.7       1.0       0.8       0.7
 0 C  py              3.3       0.5       0.3       0.5       0.3       3.3
 0 C  dz2             0.2       0.0       0.0       0.0       0.1       0.2
 0 C  dyz             0.2       0.0       0.0       0.0       0.0       0.2
 0 C  dx2y2           0.0       0.3       0.0       0.1       0.2       0.4
 0 C  dxy             0.0       0.0       0.0       0.0       0.6       0.1
 1 C  s               0.0       0.2       0.0       0.0       7.4       6.6
 1 C  pz             17.3       0.0       0.7       1.4       0.0       0.0
 1 C  px              0.0      14.1       0.0       0.0      36.8       1.9
 1 C  py              1.9       0.0       1.4       0.7       0.0       0.0
 1 C  dz2             0.4       0.2       0.0       0.0       0.1       0.0
 1 C  dxz             0.1       0.0       0.1       0.1       0.0       0.0
 1 C  dyz             0.2       0.0       0.1       0.0       0.0       0.0
 1 C  dx2y2           0.1       0.6       0.0       0.0       0.2       0.1
 1 C  dxy             0.0       0.0       0.1       0.1       0.0       0.0
 2 C  s               0.1       0.2       0.5       0.0       0.1      13.1
 2 C  pz             12.8       0.3       0.4       0.0       0.2       1.8
 2 C  px              0.0       5.7       1.6       0.0       0.8       0.7
 2 C  py              0.5       0.2       0.4       0.1       0.2       1.7
 2 C  dz2             0.4       0.1       0.0       0.0       0.1       0.0
 2 C  dxz             0.1       0.0       0.0       0.0       0.3       0.0
 2 C  dyz             0.0       0.0       0.0       0.0       0.0       0.7
 2 C  dx2y2           0.1       0.2       0.1       0.0       0.2       0.1
 2 C  dxy             0.0       0.0       0.0       0.0       0.3       0.0
 3 C  s               0.7       0.2       0.1       0.4       0.1      13.1
 3 C  pz             20.5       0.5       0.1       0.7       0.3       3.2
 3 C  px              0.2       5.7       0.2       1.5       0.8       0.7
 3 C  py              2.0       0.0       0.1       0.0       0.0       0.2
 3 C  dz2             0.1       0.1       0.0       0.0       0.0       0.6
 3 C  dxz             0.1       0.0       0.0       0.0       0.6       0.1
 3 C  dyz             0.0       0.0       0.0       0.0       0.0       0.2
 3 C  dx2y2           0.1       0.2       0.0       0.0       0.2       0.0
 4 Br s               0.0       0.4       0.0       0.0       2.9       2.0
 4 Br pz              1.2       0.0      32.1      58.6       0.0       0.0
 4 Br px              0.0      47.2       0.0       0.0      29.9       0.7
 4 Br py              0.1       0.0      58.6      32.1       0.0       0.0
 4 Br dz2             0.0       0.0       0.0       0.0       2.5       0.1
 4 Br dxz             0.1       0.0       0.0       0.0       0.0       0.0
 4 Br dx2y2           0.0       0.1       0.0       0.0       7.6       0.3
 5 H  s               7.9       0.5       0.1       0.0       0.3       2.5
 5 H  pz              0.0       0.0       0.0       0.0       0.0       0.9
 5 H  px              0.0       0.0       0.0       0.0       0.0       0.3
 5 H  py              0.0       0.0       0.0       0.0       0.0       0.2
 6 H  s               0.1       4.5       0.4       0.6       1.2       2.5
 6 H  px              0.0       0.0       0.0       0.0       0.0       1.2
 6 H  py              0.0       0.0       0.0       0.0       0.2       0.1
 7 H  s               1.0       0.5       0.0       0.1       0.3       2.5
 7 H  pz              0.0       0.0       0.0       0.0       0.0       1.1
 7 H  px              0.0       0.0       0.0       0.0       0.0       0.3
 8 H  s               7.7       0.5       0.1       0.0       0.3       2.5
 8 H  pz              0.0       0.0       0.0       0.0       0.0       0.3
 8 H  px              0.0       0.0       0.0       0.0       0.0       0.3
 8 H  py              0.0       0.0       0.0       0.0       0.0       0.7
 9 H  s               1.6       0.5       0.1       0.0       0.3       2.5
 9 H  pz              0.1       0.0       0.0       0.0       0.0       0.7
 9 H  px              0.0       0.0       0.0       0.0       0.0       0.3
 9 H  py              0.0       0.0       0.0       0.0       0.0       0.4
10 H  s               0.1       4.4       1.0       0.0       1.2       2.5
10 H  pz              0.1       0.0       0.0       0.0       0.1       0.1
10 H  px              0.0       0.0       0.0       0.0       0.0       1.2
11 H  s               0.4       4.5       0.1       0.9       1.2       2.5
11 H  pz              0.2       0.0       0.0       0.0       0.2       0.1
11 H  px              0.0       0.0       0.0       0.0       0.0       1.2
12 H  s               2.3       0.5       0.0       0.1       0.3       2.5
12 H  px              0.0       0.0       0.0       0.0       0.0       0.3
12 H  py              0.1       0.0       0.0       0.0       0.0       1.1
13 H  s               3.1       0.5       0.0       0.1       0.3       2.5
13 H  pz              0.1       0.0       0.0       0.0       0.0       0.2
13 H  px              0.0       0.0       0.0       0.0       0.0       0.3
13 H  py              0.0       0.0       0.0       0.0       0.0       0.9

                     36        37        38        39        40        41   
                   0.13808   0.14105   0.14105   0.15621   0.15622   0.17639
                   0.00000   0.00000   0.00000   0.00000   0.00000   0.00000
                  --------  --------  --------  --------  --------  --------
 0 C  s               4.8       1.9      13.8       4.5       0.7       0.2
 0 C  pz              0.9       1.9       1.5       4.8      21.2       0.0
 0 C  px              1.3       0.4       2.5       0.7       0.1      20.7
 0 C  py             13.9       2.4      14.9       5.9       3.3       0.2
 0 C  dz2             0.1       0.2       0.3       0.2       0.0       0.2
 0 C  dxz             0.0       0.1       0.1       0.0       0.8       0.0
 0 C  dyz             0.2       1.4       0.0       0.0       0.1       0.0
 0 C  dx2y2           1.2       0.0       0.3       0.1       0.0       0.1
 0 C  dxy             0.0       0.1       0.2       0.6       0.0       0.0
 1 C  s              15.6       0.0       0.0       0.0       0.0       1.6
 1 C  pz              0.0       6.5       3.2       3.2       5.8       0.0
 1 C  px              2.2       0.0       0.0       0.0       0.0       1.1
 1 C  py              0.0       3.2       6.5       5.8       3.2       0.0
 1 C  dz2             0.2       0.0       1.5       0.7       0.0       0.0
 1 C  dxz             0.0       0.2       0.1       0.2       0.4       0.0
 1 C  dyz             0.0       2.0       0.0       0.0       0.9       0.0
 1 C  dx2y2           0.7       0.0       0.5       0.2       0.0       0.1
 1 C  dxy             0.0       0.1       0.2       0.4       0.2       0.0
 2 C  s               4.9      15.2       0.4       0.1       5.1       0.2
 2 C  pz              7.7       9.2       1.2      12.7       4.9       0.1
 2 C  px              1.4       2.8       0.1       0.0       0.8      20.8
 2 C  py              7.5       8.6       1.6      14.2       3.5       0.1
 2 C  dz2             0.2       0.0       1.3       0.0       0.0       0.0
 2 C  dxz             0.0       0.2       0.0       0.5       0.2       0.0
 2 C  dyz             0.8       0.3       0.0       0.0       0.4       0.1
 2 C  dx2y2           0.5       0.1       0.4       0.0       0.0       0.1
 2 C  dxy             0.0       0.1       0.1       0.3       0.4       0.0
 3 C  s               4.7       6.5       9.3       3.2       2.0       0.2
 3 C  pz             13.8       7.4       9.9       4.2       5.1       0.2
 3 C  px              1.3       1.2       1.7       0.5       0.3      20.7
 3 C  py              1.1       1.6       1.9      11.1      14.8       0.0
 3 C  dz2             1.2       0.0       0.6       0.2       0.1       0.0
 3 C  dxz             0.0       0.2       0.1       0.5       0.1       0.0
 3 C  dyz             0.2       1.1       0.2       0.0       0.1       0.0
 3 C  dx2y2           0.1       0.0       0.1       0.0       0.0       0.2
 3 C  dxy             0.0       0.0       0.1       0.1       0.6       0.0
 4 Br s               0.3       0.0       0.0       0.0       0.0       8.0
 4 Br pz              0.0       0.2       0.1       1.8       3.2       0.0
 4 Br px              0.4       0.0       0.0       0.0       0.0      18.1
 4 Br py              0.0       0.1       0.2       3.2       1.8       0.0
 4 Br dz2             0.1       0.0       0.0       1.1       0.0       0.0
 4 Br dxz             0.0       1.2       0.6       0.7       1.3       0.0
 4 Br dyz             0.0       0.0       0.0       0.0       1.5       0.0
 4 Br dx2y2           0.3       0.0       0.0       0.4       0.0       0.1
 4 Br dxy             0.0       0.6       1.2       1.3       0.7       0.0
 5 H  s               0.7       3.8       0.7       1.5       1.1       0.2
 5 H  pz              0.3       0.6       0.3       1.1       0.0       0.0
 5 H  px              0.0       0.1       0.0       0.1       0.4       0.2
 5 H  py              0.6       0.6       0.1       0.0       0.1       0.0
 6 H  s               0.7       0.2       1.3       0.7       0.1       1.0
 6 H  pz              0.0       0.1       0.1       0.0       0.6       0.0
 6 H  px              0.0       0.1       1.0       0.2       0.0       0.2
 6 H  py              0.1       0.1       0.3       0.6       0.0       0.0
 7 H  s               0.7       2.7       1.7       2.2       0.3       0.3
 7 H  pz              0.0       0.0       0.2       0.5       0.3       0.0
 7 H  px              0.0       0.0       0.0       0.4       0.0       0.2
 7 H  py              0.9       0.2       1.3       0.0       0.4       0.0
 8 H  s               0.7       0.7       3.8       0.6       1.9       0.2
 8 H  pz              0.8       0.7       0.9       0.3       0.6       0.0
 8 H  px              0.0       0.0       0.1       0.2       0.2       0.2
 8 H  py              0.1       0.0       0.1       0.0       0.3       0.1
 9 H  s               0.7       1.2       3.3       0.4       2.2       0.2
 9 H  pz              0.1       0.0       0.0       0.0       0.3       0.1
 9 H  px              0.0       0.0       0.1       0.1       0.4       0.2
 9 H  py              0.8       1.2       0.4       0.5       0.4       0.0
10 H  s               0.7       1.4       0.0       0.0       0.8       1.0
10 H  pz              0.1       0.2       0.0       0.4       0.2       0.0
10 H  px              0.0       1.1       0.0       0.0       0.3       0.2
10 H  py              0.1       0.1       0.1       0.2       0.4       0.0
11 H  s               0.7       0.6       0.9       0.5       0.3       1.0
11 H  pz              0.1       0.2       0.1       0.5       0.1       0.0
11 H  px              0.0       0.5       0.7       0.2       0.1       0.2
11 H  py              0.0       0.0       0.1       0.1       0.5       0.0
12 H  s               0.7       1.7       2.8       2.0       0.6       0.3
12 H  pz              0.9       0.0       1.5       0.0       0.4       0.0
12 H  px              0.0       0.0       0.1       0.5       0.0       0.2
12 H  py              0.0       0.0       0.2       0.2       0.5       0.0
13 H  s               0.7       3.3       1.2       1.0       1.6       0.2
13 H  pz              0.5       0.7       0.0       0.0       0.1       0.0
13 H  px              0.0       0.1       0.0       0.0       0.4       0.2
13 H  py              0.3       0.9       0.0       1.0       0.0       0.0

                     42        43        44        45        46        47   
                   0.17743   0.17745   0.19367   0.21008   0.21008   0.23934
                   0.00000   0.00000   0.00000   0.00000   0.00000   0.00000
                  --------  --------  --------  --------  --------  --------
 0 C  s               1.7       0.0       0.1       0.4       2.1       0.1
 0 C  pz              0.5       9.4       0.1       4.1       0.3      10.3
 0 C  px              2.1       0.0       7.5       1.9      10.4       5.7
 0 C  py              7.2       0.7       1.8       0.2       3.5       0.2
 0 C  dz2             0.5       0.3       1.3       0.1       0.9       0.0
 0 C  dxz             0.0       1.7       0.0       0.1       0.0       0.0
 0 C  dyz             0.0       1.0       0.2       0.0       0.0       0.0
 0 C  dx2y2           0.4       0.1       0.3       0.5       2.3       0.0
 0 C  dxy             0.2       0.1       0.0       0.0       0.0       0.0
 1 C  s               0.0       0.0       1.1       0.0       0.0       0.0
 1 C  pz              0.2       2.4       0.0       2.3       0.1       1.3
 1 C  px              0.0       0.0       3.9       0.0       0.0       0.0
 1 C  py              2.4       0.2       0.0       0.1       2.3       1.0
 1 C  dz2             0.2       0.1       0.0       0.0       0.0       0.0
 1 C  dxz             0.1       0.9       0.0       0.4       0.0       0.6
 1 C  dyz             0.1       0.3       0.0       0.0       0.0       0.0
 1 C  dxy             0.9       0.1       0.0       0.0       0.4       0.4
 2 C  s               0.4       1.3       0.1       0.9       1.6       0.5
 2 C  pz              4.8       4.1       1.0       3.6       0.5       3.2
 2 C  px              0.4       1.6       7.5       4.4       7.8      28.2
 2 C  py              4.8       4.1       0.9       0.6       3.5       4.2
 2 C  dz2             1.2       0.0       0.3       0.2       0.7       0.0
 2 C  dxz             1.0       0.0       0.0       0.0       0.1       0.1
 2 C  dyz             0.0       0.1       0.7       0.0       0.0       0.1
 2 C  dx2y2           0.0       0.9       0.8       1.1       1.7       0.1
 2 C  dxy             0.5       0.5       0.0       0.1       0.0       0.1
 3 C  s               0.5       1.2       0.1       2.5       0.0       0.2
 3 C  pz              2.6       5.3       1.8       3.5       0.2       0.5
 3 C  px              0.6       1.5       7.5      12.1       0.2       8.6
 3 C  py              6.9       3.1       0.1       0.1       4.3       9.6
 3 C  dz2             0.3       0.0       0.0       0.8       0.0       0.1
 3 C  dxz             0.3       0.0       0.0       0.0       0.0       0.1
 3 C  dyz             0.9       0.1       0.2       0.0       0.0       0.0
 3 C  dx2y2           0.1       0.9       1.5       2.9       0.0       0.0
 3 C  dxy             1.1       0.6       0.0       0.0       0.1       0.0
 4 Br s               0.0       0.0       1.0       0.0       0.0       0.0
 4 Br pz              0.3       3.3       0.0       0.2       0.0       2.6
 4 Br px              0.0       0.0       2.6       0.0       0.0       0.0
 4 Br py              3.3       0.3       0.0       0.0       0.2       2.0
 4 Br dz2             0.1       0.0       0.3       4.2       2.4       0.0
 4 Br dxz             0.4       4.3       0.0       2.6       0.1       0.4
 4 Br dyz             0.0       0.2       0.0       3.3       5.5       4.1
 4 Br dx2y2           0.0       0.0       1.0       1.4       0.8       0.0
 4 Br dxy             4.3       0.4       0.0       0.1       2.6       0.3
 5 H  s               0.4       9.9       2.0       2.3       0.8       1.3
 5 H  pz              0.0       0.9       0.8       0.7       0.6       0.4
 5 H  px              0.3       1.0       0.4       0.0       1.0       0.1
 5 H  py              0.0       0.3       0.2       0.0       0.0       0.0
 6 H  s               4.0       0.0       9.6       2.6      13.9       0.6
 6 H  pz              0.0       1.5       0.0       0.1       0.0       0.0
 6 H  px              1.0       0.0       2.3       0.4       2.3       0.4
 7 H  s               0.5       9.8       2.0       0.7       2.4       0.2
 7 H  pz              0.0       0.3       1.0       0.0       0.9       0.1
 7 H  px              0.2       1.0       0.4       0.6       0.4       0.0
 7 H  py              0.0       0.9       0.0       0.0       0.4       0.0
 8 H  s               8.5       1.9       2.0       2.6       0.5       0.8
 8 H  pz              0.8       0.5       0.4       0.8       0.3       0.4
 8 H  px              0.4       0.8       0.4       0.0       1.0       0.1
 8 H  py              0.0       0.0       0.6       0.2       0.0       0.0
 9 H  s               7.1       3.2       2.0       0.5       2.6       1.0
 9 H  pz              0.0       0.0       0.6       0.0       0.2       0.0
 9 H  px              1.3       0.0       0.4       0.8       0.2       0.1
 9 H  py              1.2       0.1       0.4       0.1       1.0       0.5
10 H  s               0.9       3.1       9.6       5.9      10.5       2.9
10 H  pz              0.8       0.1       0.0       0.0       0.1       0.1
10 H  px              0.2       0.8       2.3       1.0       1.7       2.1
10 H  py              0.5       0.4       0.0       0.1       0.0       0.1
11 H  s               1.1       2.9       9.6      16.3       0.2       0.9
11 H  pz              0.2       0.0       0.0       0.0       0.0       0.1
11 H  px              0.3       0.7       2.3       2.7       0.0       0.6
11 H  py              1.0       0.5       0.0       0.0       0.2       0.0
12 H  s               7.9       2.4       2.0       1.9       1.2       0.1
12 H  pz              0.5       0.5       0.0       0.4       0.0       0.0
12 H  px              0.3       0.9       0.4       0.7       0.3       0.0
12 H  py              0.2       0.1       1.0       0.8       0.1       0.1
13 H  s               6.5       3.8       2.0       1.4       1.7       1.4
13 H  pz              0.3       0.0       0.2       0.0       0.0       0.0
13 H  px              1.2       0.0       0.4       0.9       0.1       0.1
13 H  py              0.8       0.2       0.8       0.9       0.3       0.4

                     48        49        50        51        52        53   
                   0.23935   0.24746   0.25340   0.25341   0.26384   0.29466
                   0.00000   0.00000   0.00000   0.00000   0.00000   0.00000
                  --------  --------  --------  --------  --------  --------
 0 C  s               0.4       0.0       2.7       1.9       0.7       0.5
 0 C  pz              0.7      16.1       0.5       0.2       0.0       4.7
 0 C  px             22.6       0.0       5.5       4.0       6.2       1.8
 0 C  py              7.5       1.1       5.4       4.1       0.2       2.0
 0 C  dz2             0.0       0.1       0.7       0.1       0.0       0.1
 0 C  dxz             0.0       0.2       0.0       0.1       0.0       0.1
 0 C  dyz             0.0       0.6       0.0       0.8       0.0       0.0
 0 C  dx2y2           0.1       0.0       0.2       0.0       0.1       0.1
[...]
10 H  px              6.4       2.5       9.2       0.1       2.5       0.0
10 H  py              0.0       0.2       0.0       0.0       0.3       0.2
11 H  s               0.0       2.2       3.8       1.2       0.1       0.0
11 H  pz              0.0       0.1       0.0       0.4       0.1       0.0
11 H  px              0.0       9.0       9.2       2.4       0.2       0.0
11 H  py              0.2       0.0       0.0       0.1       0.1       0.5
12 H  s               1.3       0.4       0.7       0.6       3.0       2.8
12 H  pz              1.2       0.6       0.9       0.4       3.7       3.6
12 H  px              0.9       0.8       0.0       0.0       0.9       1.2
12 H  py              1.4       0.9       1.0       1.6       3.2       2.0
13 H  s               1.2       0.5       0.7       2.6       1.0       2.8
13 H  pz              0.1       0.0       0.1       0.1       0.5       0.8
13 H  px              0.8       0.9       0.0       0.5       0.4       1.2
13 H  py              2.2       1.8       1.9       6.6       1.6       4.8

                    150       151       152       153       154       155   
                   3.58771   3.58772   7.43850  21.89008  22.00403  22.00550
                   0.00000   0.00000   0.00000   0.00000   0.00000   0.00000
                  --------  --------  --------  --------  --------  --------
 0 C  s               0.0       0.1       0.0      29.1       3.9      38.9
 0 C  pz              1.7       0.8       0.0       0.0       0.0       0.0
 0 C  px              1.6       3.7       0.0       0.0       0.0       0.0
 0 C  py              0.2       0.0       0.0       0.0       0.0       0.0
 0 C  dz2             0.0       4.9       0.0       0.0       0.0       0.0
 0 C  dxz             1.1       0.9       0.0       0.0       0.0       0.0
 0 C  dyz             3.6       1.2       0.0       0.0       0.0       0.0
 0 C  dx2y2           4.4       4.3       0.0       0.0       0.0       0.0
 0 C  dxy             0.6       0.2       0.0       0.0       0.0       0.0
 1 C  s               0.0       0.0       0.2      12.2      87.7       0.0
 1 C  pz              0.6       0.1       0.0       0.0       0.0       0.0
 1 C  px              0.0       0.0       0.1       0.0       0.0       0.0
 1 C  py              0.1       0.6       0.0       0.0       0.0       0.0
 1 C  dxz             0.8       0.1       0.0       0.0       0.0       0.0
 1 C  dxy             0.1       0.8       0.0       0.0       0.0       0.0
 2 C  s               0.0       0.1       0.0      29.2       4.3      58.6
 2 C  pz              0.9       0.4       0.0       0.0       0.0       0.0
 2 C  px              1.1       4.2       0.0       0.0       0.0       0.0
 2 C  py              1.2       0.2       0.0       0.0       0.0       0.0
 2 C  dz2             1.3       6.3       0.0       0.0       0.0       0.0
 2 C  dxz             0.4       1.0       0.0       0.0       0.0       0.0
 2 C  dx2y2           6.0       4.5       0.0       0.0       0.0       0.0
 2 C  dxy             1.4       0.0       0.0       0.0       0.0       0.0
 3 C  s               0.1       0.0       0.0      29.1       4.0       2.1
 3 C  pz              0.1       0.2       0.0       0.0       0.0       0.0
 3 C  px              5.3       0.0       0.0       0.0       0.0       0.0
 3 C  py              0.0       2.5       0.0       0.0       0.0       0.0
 3 C  dz2             2.5       1.0       0.0       0.0       0.0       0.0
 3 C  dxz             0.7       0.1       0.0       0.0       0.0       0.0
 3 C  dyz             0.1       4.6       0.0       0.0       0.0       0.0
 3 C  dx2y2           9.5       0.7       0.0       0.0       0.0       0.0
 3 C  dxy             0.0       2.0       0.0       0.0       0.0       0.0
 4 Br s               0.0       0.0      99.3       0.0       0.0       0.0
 4 Br dxz             0.8       0.1       0.0       0.0       0.0       0.0
 4 Br dxy             0.1       0.8       0.0       0.0       0.0       0.0
 5 H  s               0.4       2.4       0.0       0.0       0.0       0.0
 5 H  pz              0.6       5.1       0.0       0.0       0.0       0.0
 5 H  px              0.4       0.3       0.0       0.0       0.0       0.0
 5 H  py              0.1       0.4       0.0       0.0       0.0       0.0
 6 H  s               1.4       3.3       0.0       0.0       0.0       0.0
 6 H  px              3.6       8.2       0.0       0.0       0.0       0.0
 7 H  s               2.8       0.0       0.0       0.0       0.0       0.0
 7 H  pz              3.1       0.0       0.0       0.0       0.0       0.0
 7 H  px              0.5       0.2       0.0       0.0       0.0       0.0
 7 H  py              3.1       0.0       0.0       0.0       0.0       0.0
 8 H  s               0.6       2.1       0.0       0.0       0.0       0.0
 8 H  pz              1.1       4.6       0.0       0.0       0.0       0.0
 8 H  px              0.5       0.2       0.0       0.0       0.0       0.0
 8 H  py              0.1       0.3       0.0       0.0       0.0       0.0
 9 H  s               2.7       0.1       0.0       0.0       0.0       0.0
 9 H  pz              0.4       0.0       0.0       0.0       0.0       0.0
 9 H  px              0.6       0.1       0.0       0.0       0.0       0.0
 9 H  py              5.5       0.2       0.0       0.0       0.0       0.0
10 H  s               0.9       3.8       0.0       0.0       0.0       0.0
10 H  px              2.4       9.4       0.0       0.0       0.0       0.0
11 H  s               4.7       0.0       0.0       0.0       0.0       0.0
11 H  px             11.7       0.0       0.0       0.0       0.0       0.0
12 H  s               1.1       1.7       0.0       0.0       0.0       0.0
12 H  pz              1.3       1.8       0.0       0.0       0.0       0.0
12 H  px              0.0       0.7       0.0       0.0       0.0       0.0
12 H  py              1.3       1.7       0.0       0.0       0.0       0.0
13 H  s               0.7       2.0       0.0       0.0       0.0       0.0
13 H  pz              0.1       0.3       0.0       0.0       0.0       0.0
13 H  px              0.0       0.7       0.0       0.0       0.0       0.0
13 H  py              1.8       4.0       0.0       0.0       0.0       0.0

                    156   
                  22.00555
                   0.00000
                  --------
 0 C  s              27.7
 2 C  s               7.6
 3 C  s              64.4


                      *****************************
                      * MAYER POPULATION ANALYSIS *
                      *****************************

  NA   - Mulliken gross atomic population
  ZA   - Total nuclear charge
  QA   - Mulliken gross atomic charge
  VA   - Mayer's total valence
  BVA  - Mayer's bonded valence
  FA   - Mayer's free valence

  ATOM       NA         ZA         QA         VA         BVA        FA
  0 C      6.4805     6.0000    -0.4805     3.6917     3.6917     0.0000
  1 C      5.8321     6.0000     0.1679     3.5984     3.5984    -0.0000
  2 C      6.4802     6.0000    -0.4802     3.6921     3.6921     0.0000
  3 C      6.4804     6.0000    -0.4804     3.6917     3.6917     0.0000
  4 Br    35.2827    35.0000    -0.2827     0.9478     0.9478     0.0000
  5 H      0.8278     1.0000     0.1722     0.9584     0.9584    -0.0000
  6 H      0.8256     1.0000     0.1744     0.9580     0.9580     0.0000
  7 H      0.8278     1.0000     0.1722     0.9584     0.9584     0.0000
  8 H      0.8279     1.0000     0.1721     0.9584     0.9584     0.0000
  9 H      0.8280     1.0000     0.1720     0.9584     0.9584     0.0000
 10 H      0.8256     1.0000     0.1744     0.9580     0.9580     0.0000
 11 H      0.8256     1.0000     0.1744     0.9580     0.9580    -0.0000
 12 H      0.8278     1.0000     0.1722     0.9584     0.9584     0.0000
 13 H      0.8279     1.0000     0.1721     0.9584     0.9584     0.0000

  Mayer bond orders larger than 0.100000
B(  0-C ,  1-C ) :   0.9288 B(  0-C ,  5-H ) :   0.9654 B(  0-C ,  6-H ) :   0.9525 
B(  0-C ,  7-H ) :   0.9654 B(  1-C ,  2-C ) :   0.9289 B(  1-C ,  3-C ) :   0.9288 
B(  1-C ,  4-Br) :   0.8771 B(  2-C ,  8-H ) :   0.9655 B(  2-C ,  9-H ) :   0.9655 
B(  2-C , 10-H ) :   0.9525 B(  3-C , 11-H ) :   0.9525 B(  3-C , 12-H ) :   0.9655 
B(  3-C , 13-H ) :   0.9654 

-------
TIMINGS
-------

Total SCF time: 0 days 0 hours 0 min 17 sec 

Total time                  ....      17.779 sec
Sum of individual times     ....      17.321 sec  ( 97.4%)

SCF preparation             ....       0.285 sec  (  1.6%)
Fock matrix formation       ....      16.189 sec  ( 91.1%)
  Startup                   ....       0.054 sec  (  0.3% of F)
  Split-RI-J                ....       2.081 sec  ( 12.9% of F)
  XC integration            ....      10.431 sec  ( 64.4% of F)
    XC Preparation          ....       0.000 sec  (  0.0% of XC)
    Basis function eval.    ....       1.907 sec  ( 18.3% of XC)
    Density eval.           ....       2.882 sec  ( 27.6% of XC)
    XC-Functional eval.     ....       1.582 sec  ( 15.2% of XC)
    XC-Potential eval.      ....       3.230 sec  ( 31.0% of XC)
  CPCM terms                ....       3.118 sec  ( 19.3% of F)
Diagonalization             ....       0.000 sec  (  0.0%)
Density matrix formation    ....       0.217 sec  (  1.2%)
Total Energy calculation    ....       0.043 sec  (  0.2%)
Population analysis         ....       0.073 sec  (  0.4%)
Orbital Transformation      ....       0.055 sec  (  0.3%)
Orbital Orthonormalization  ....       0.000 sec  (  0.0%)
DIIS solution               ....       0.343 sec  (  1.9%)
  MO trafo                  ....       0.000 sec  (  0.0 % of DIIS)
  Orb grad                  ....       0.000 sec  (  0.0 % of DIIS)
  Energy W gradient         ....       0.000 sec  (  0.0 % of DIIS)
  DIIS error                ....       0.004 sec  (  1.3 % of DIIS)
  DIIS work                 ....       0.294 sec  ( 85.7 % of DIIS)
  Form Q                    ....       0.000 sec  (  0.0 % of DIIS)
  Form QpQm                 ....       0.000 sec  (  0.0 % of DIIS)
  Exp/Cayley                ....       0.000 sec  (  0.0 % of DIIS)
  Orb update                ....       0.000 sec  (  0.0 % of DIIS)
  Wake-sleep                ....       0.016 sec  (  4.8 % of DIIS)
SOSCF solution              ....       0.115 sec  (  0.6%)
  MO trafo                  ....       0.048 sec  ( 41.8 % of SOSCF)
  Orb grad                  ....       0.002 sec  (  1.7 % of SOSCF)
  Rot update                ....       0.038 sec  ( 33.2 % of SOSCF)
  Step                      ....       0.027 sec  ( 23.2 % of SOSCF)
Finished LeanSCF after  18.1 sec

Maximum memory used throughout the entire LEANSCF-calculation: 21.3 MB


-------------------------------------------------------------------------------
                          DFT DISPERSION CORRECTION                            
                                                                               
                                DFTD4 V3.4.0                                   
-------------------------------------------------------------------------------
The R2SCAN3C composite method is recognized
Using three-body term ABC
Active option DFTDOPT                   ...         5   

-------------------------   ----------------
Dispersion correction           -0.003687894
-------------------------   ----------------

------------------   -----------------
gCP correction             0.006984318
------------------   -----------------

-------------------------   --------------------
FINAL SINGLE POINT ENERGY     -2731.943052218189
-------------------------   --------------------


------------------------------------------------------------------------------
                              ORCA PROPERTY CALCULATIONS
------------------------------------------------------------------------------

GBWName                                 ... sp_solv.gbw
Number of atoms                         ...     14
Number of basis functions               ...    157
Max core memory                         ...   1024 MB

Electric properties:
Dipole moment                           ... YES
Quadrupole moment                       ...  NO
Static polarizability (Dipole/Dipole)   ...  NO
Static polarizability (Dipole/Quad.)    ...  NO
Static polarizability (Quad./Quad.)     ...  NO
Static polarizability (Velocity)        ...  NO

Atomic electric properties:
Dipole moment                           ...  NO
Quadrupole moment                       ...  NO
Static polarizability                   ...  NO

Choice of electric origin               ... Center of mass
Position of electric origin             ...    -0.000080     0.000000     0.000000

General magnetic properties:
Magnetizability                         ...  NO

EPR properties:
g-Tensor (aka g-matrix)                 ...  NO
Zero-Field splitting spin-orbit         ...  NO
Zero-field splitting spin-spin          ...  NO
Hyperfine couplings                     ...  NO (   0 nuclei)
Quadrupole couplings                    ...  NO (   0 nuclei)
Contact density                         ...  NO (   0 nuclei)

NMR properties:
Chemical shifts                         ...  NO (   0 nuclei)
Spin-rotation constants                 ...  NO (   0 nuclei)
Spin-spin couplings                     ...  NO (   0 nuclei,    0 pairs)

Choice of magnetic origin               ... GIAO
Position of magnetic origin             ...     0.000000     0.000000     0.000000

Properties with geometric perturbations:
SCF Hessian                             ...  NO
IR spectrum                             ...  NO
VCD spectrum                            ...  NO
X-ray spectroscopy properties:
SCF XES/XAS/RIXS spectra                ...  NO


-------------
DIPOLE MOMENT
-------------

Method             : SCF
Type of density    : Electron Density
Multiplicity       :   1
Irrep              :   0
Energy             : -2731.9463486424660914 Eh
Relativity type    : 
Basis              : AO
                                X                 Y                 Z
Electronic contribution:     21.315643393      -0.001052228      -0.000683765
Nuclear contribution   :    -22.771785758       0.000372472       0.000235492
                        -----------------------------------------
Total Dipole Moment    :     -1.456142365      -0.000679756      -0.000448274
                        -----------------------------------------
Magnitude (a.u.)       :      1.456142592
Magnitude (Debye)      :      3.701220329



--------------------
Rotational spectrum 
--------------------
 
Rotational constants in cm-1:             0.151849             0.066103             0.066102 
Rotational constants in MHz :          4552.326413          1981.721665          1981.685315 

Dipole components along the rotational axes: 
x,y,z [a.u.] :    -1.456142     0.000680    -0.000448 
x,y,z [Debye]:    -3.701220     0.001728    -0.001139 

 

Dipole moment calculation done in   0.0 sec 

Maximum memory used throughout the entire PROP-calculation: 10.0 MB

--------------------------------
SUGGESTED CITATIONS FOR THIS RUN
--------------------------------

Below you find a list of papers that are relevant to this ORCA run
We neither can nor want to force you to cite these papers, but we appreciate if you do
You receive ORCA, which is the product of decades of hard work by many enthusiastic individuals, for free
The only thing we kindly ask in return is that you cite our papers,
We deeply appreciate it, if you show your appreciation for ORCA by not just citing the generic ORCA reference.

Please note that relegating all ORCA citations to the supporting information does *not* help us.
SI sections are not indexed - citations you put there will not count into any citation statistics
But we need these citations in order to attract the funding resources that allow us to do what we are doing

Therefore, if you are a happy ORCA user, please consider citing a few of the papers listed below in the main body of your paper

In addition to the list printed below, the program has created the file sp_solv.bibtex that contains the list in bibtex format
You can import this file easily into all common literature databanks and citation aid programs


List of essential papers. We consider these as the minimum necessary citations

  1. Neese,F.
     Software update: the ORCA program system, version 5.0
     WIRES Comput. Molec. Sci., 2022 12(1)e1606
     doi.org/10.1002/wcms.1606
  2. Grimme,S.; Hansen,A.; Ehlert,S.; Mewes,J.
     r2SCAN-3c: A 'Swiss army knife' composite electronic-structure method
     J. Chem. Phys., 2021 154 064103
     doi.org/10.1063/5.0040021

List of papers to cite with high priority. The work reported in these papers was absolutely
necessary for this run to complete.
Our perspective: the developers of density functionals and basis sets usually get cited in chemistry papers
Good! But without the algorithms to do something with them, the functionals or basis sets would not do anything.
Hence, in our opinion, the algorithm design and method developments papers are equally worthy of getting cited

  1. Neese,F.
     An improvement of the resolution of the identity approximation for the formation of the Coulomb matrix
     J. Comp. Chem., 2003 24(14)1740-1747
     doi.org/10.1002/jcc.10318
  2. Garcia-Rates,M.; Neese,F.
     Effect of the Solute Cavity on the Solvation Energy and its Derivatives within the Framework of the Gaussian Charge Scheme
     J. Comput. Chem., 2020 41 922-939
     doi.org/10.1002/jcc.26139
  3. Neese,F.
     The SHARK Integral Generation and Digestion System
     J. Comp. Chem., 2022  1-16
     doi.org/10.1002/jcc.26942
  4. Lehtola,S.; Steigemann,C.; Oliveira,M.; Marques,M.
     Recent developments in Libxc - A comprehensive library of functionals for density functional theory
     Software X, 2018 7 
     doi.org/10.1016/j.softx.2017.11.002
  5. Caldeweyher,E.; Bannwarth,C.; Grimme,S.
     Extension of the D3 dispersion coefficient model
     J. Chem. Phys., 2017 147 034112-XXXX
     doi.org/10.1063/1.4993215
  6. Caldeweyher,E.; Ehlert,S.; Hansen,A.; Neugebauer,H.; Spicher,S.; Bannwarth,C.; Grimme,S.
     A generally applicable atomic-charge dependent London dispersion correction
     J. Chem. Phys., 2019 150 154122-XXXX
     doi.org/10.1063/1.5090222
  7. Caldeweyher,E.; Mewes,J.; Ehlert,S.; Grimme,S.
     Extension and evaluation of the D4 London-dispersion model for periodic systems
     Phys. Chem. Chem. Phys., 2020 22(16)8499-8512
     doi.org/10.1039/D0CP00502A

List of suggested additional citations. These are papers that are important in the 'surrounding' of 
of this run, or papers that preceded the highly important papers. If you like your results we are grateful for a citation.

  1. Neese,F.
     The ORCA program system
     WIRES Comput. Molec. Sci., 2012 2(1)73-78
     doi.org/10.1002/wcms.81
  2. Neese,F.
     Software update: the ORCA program system, version 4.0
     WIRES Comput. Molec. Sci., 2018 8(1)1-6
     doi.org/10.1002/wcms.1327
  3. Neese,F.; Wennmohs,F.; Becker,U.; Riplinger,C.
     The ORCA quantum chemistry program package
     J. Chem. Phys., 2020 152 Art. No. L224108
     doi.org/10.1063/5.0004608

List of optional additional citations

  1. Neese,F.
     Approximate second-order SCF convergence for spin unrestricted wavefunctions
     Chem. Phys. Lett., 2000 325(1-3)93-98
     doi.org/10.1016/s0009-2614(00)00662-x

Timings for individual modules:

Sum of individual times          ...       19.425 sec (=   0.324 min)
Startup calculation              ...        0.888 sec (=   0.015 min)   4.6 %
SCF iterations                   ...       18.435 sec (=   0.307 min)  94.9 %
Property calculations            ...        0.102 sec (=   0.002 min)   0.5 %
                             ****ORCA TERMINATED NORMALLY****
TOTAL RUN TIME: 0 days 0 hours 0 minutes 20 seconds 110 msec
