
                                 *****************
                                 * O   R   C   A *
                                 *****************

                                            #,                                       
                                            ###                                      
                                            ####                                     
                                            #####                                    
                                            ######                                   
                                           ########,                                 
                                     ,,################,,,,,                         
                               ,,#################################,,                 
                          ,,##########################################,,             
                       ,#########################################, ''#####,          
                    ,#############################################,,   '####,        
                  ,##################################################,,,,####,       
                ,###########''''           ''''###############################       
              ,#####''   ,,,,##########,,,,          '''####'''          '####       
            ,##' ,,,,###########################,,,                        '##       
           ' ,,###''''                  '''############,,,                           
         ,,##''                                '''############,,,,        ,,,,,,###''
      ,#''                                            '''#######################'''  
     '                                                          ''''####''''         
             ,#######,   #######,   ,#######,      ##                                
            ,#'     '#,  ##    ##  ,#'     '#,    #''#        ,####,   ,####,        
            ##       ##  ##   ,#'  ##            #'  '#       #'       #'  '#        
            ##       ##  #######   ##           ,######,      #####,   #    #        
            '#,     ,#'  ##    ##  '#,     ,#' ,#      #,     #,   #   #,  ,#        
             '#######'   ##     ##  '#######'  #'      '#     '####' # '####'        



                #########################################################
                #                        -***-                          #
                #          Department of theory and spectroscopy        #
                #                                                       #
                #                      Frank Neese                      #
                #                                                       #
                #     Directorship, Architecture, Infrastructure        #
                #                    SHARK, DRIVERS                     #
                #        Core code/Algorithms in most modules           #
                #                                                       #
                #        Max Planck Institute fuer Kohlenforschung      #
                #                Kaiser Wilhelm Platz 1                 #
                #                 D-45470 Muelheim/Ruhr                 #
                #                      Germany                          #
                #                                                       #
                #                  All rights reserved                  #
                #                        -***-                          #
                #########################################################


                         Program Version 6.0.0  -   RELEASE  -


 With contributions from (in alphabetic order):
   Daniel Aravena         : Magnetic Suceptibility
   Michael Atanasov       : Ab Initio Ligand Field Theory (pilot matlab implementation)
   Alexander A. Auer      : GIAO ZORA, VPT2 properties, NMR spectrum
   Ute Becker             : All parallelization in ORCA, NUMFREQ, NUMCALC
   Giovanni Bistoni       : ED, misc. LED, open-shell LED, HFLD
   Martin Brehm           : Molecular dynamics
   Dmytro Bykov           : pre 5.0 version of the SCF Hessian
   Marcos Casanova-Páez   : Triplet and SCS-CIS(D). UHF-(DLPNO)-IP/EA/STEOM-CCSD. UHF-CVS-IP/STEOM-CCSD
   Vijay G. Chilkuri      : MRCI spin determinant printing, contributions to CSF-ICE
   Pauline Colinet        : FMM embedding
   Dipayan Datta          : RHF DLPNO-CCSD density
   Achintya Kumar Dutta   : EOM-CC, STEOM-CC
   Nicolas Foglia         : Exact transition moments, OPA infrastructure, MCD improvements
   Dmitry Ganyushin       : Spin-Orbit,Spin-Spin,Magnetic field MRCI
   Miquel Garcia          : C-PCM and meta-GGA Hessian, CCSD/C-PCM, Gaussian charge scheme
   Tiago L. C. Gouveia    : GS-ROHF, GS-ROCIS
   Yang Guo               : DLPNO-NEVPT2, F12-NEVPT2, CIM, IAO-localization
   Andreas Hansen         : Spin unrestricted coupled pair/coupled cluster methods
   Ingolf Harden          : AUTO-CI MPn and infrastructure 
   Benjamin Helmich-Paris : MC-RPA, TRAH-(SCF,CASSCF), AVAS, COSX integrals, SCF dyn. polar.
   Lee Huntington         : MR-EOM, pCC
   Robert Izsak           : Overlap fitted RIJCOSX, COSX-SCS-MP3, EOM
   Riya Kayal             : Wick's Theorem for AUTO-CI, AUTO-CI UHF-CCSDT
   Emily Kempfer          : AUTO-CI, RHF CISDT and CCSDT
   Christian Kollmar      : KDIIS, OOCD, Brueckner-CCSD(T), CCSD density, CASPT2, CASPT2-K, improved NEVPT2
   Axel Koslowski         : Symmetry handling
   Simone Kossmann        : Meta GGA functionals, TD-DFT gradient, OOMP2, (MP2 Hessian; deprecated post 5.0)
   Lucas Lang             : DCDCAS
   Marvin Lechner         : AUTO-CI (C++ implementation), FIC-MRCC
   Spencer Leger          : CASSCF response
   Dagmar Lenk            : GEPOL surface, SMD, ORCA-2-JSON
   Dimitrios Liakos       : Extrapolation schemes; Compound Job, initial MDCI parallelization
   Dimitrios Manganas     : Further ROCIS development; embedding schemes. LFT, Crystal Embedding
   Dimitrios Pantazis     : SARC Basis sets
   Anastasios Papadopoulos: AUTO-CI, single reference methods and gradients
   Taras Petrenko         : pre 6.0 DFT Hessian and TD-DFT gradient, (ASA, deprecated), ECA, 1-Electron XAS/XES, NRVS
   Peter Pinski           : DLPNO-MP2, DLPNO-MP2 Gradient
   Christoph Reimann      : Effective Core Potentials
   Marius Retegan         : Local ZFS, SOC
   Christoph Riplinger    : Optimizer, TS searches, QM/MM, DLPNO-CCSD(T), (RO)-DLPNO pert. Triples
   Michael Roemelt        : Original ROCIS implementation
   Masaaki Saitow         : Open-shell DLPNO-CCSD energy and density
   Barbara Sandhoefer     : DKH picture change effects
   Kantharuban Sivalingam : CASSCF convergence/infrastructure, NEVPT2 and variants, FIC-MRCI
   Bernardo de Souza      : ESD, SOC TD-DFT
   Georgi Stoychev        : AutoAux, RI-MP2 NMR, DLPNO-MP2 response, X2C
   Van Anh Tran           : RI-MP2 g-tensors
   Willem Van den Heuvel  : Paramagnetic NMR
   Zikuan Wang            : NOTCH, Electric field optimization 
   Frank Wennmohs         : Technical directorship and infrastructure
   Hang Xu                : AUTO-CI-Response properties 


 We gratefully acknowledge several colleagues who have allowed us to
 interface, adapt or use parts of their codes:
   Stefan Grimme, W. Hujo, H. Kruse, P. Pracht,  : VdW corrections, initial TS optimization,
                  C. Bannwarth, S. Ehlert,         DFT functionals, gCP, sTDA/sTD-DF
                  L. Wittmann, M. Mueller
   Ed Valeev, F. Pavosevic, A. Kumar             : LibInt (2-el integral package), F12 methods
   Garnet Chan, S. Sharma, J. Yang, R. Olivares  : DMRG
   Ulf Ekstrom                                   : XCFun DFT Library
   Mihaly Kallay                                 : mrcc  (arbitrary order and MRCC methods)
   Frank Weinhold                                : gennbo (NPA and NBO analysis)
   Simon Mueller                                 : openCOSMO-RS
   Christopher J. Cramer and Donald G. Truhlar   : smd solvation model
   Lars Goerigk                                  : TD-DFT with DH, B97 family of functionals
   V. Asgeirsson, H. Jonsson                     : NEB implementation
   FAccTs GmbH                                   : IRC, NEB, NEB-TS, DLPNO-Multilevel, CI-OPT
                                                   MM, QMMM, 2- and 3-layer-ONIOM, Crystal-QMMM,
                                                   LR-CPCM, SF, NACMEs, symmetry and pop. for TD-DFT,
                                                   nearIR, NL-DFT gradient (VV10), updates on ESD,
                                                   ML-optimized integration grids, MBIS, APM,
                                                   GOAT, DOCKER, SOLVATOR, interface openCOSMO-RS
   S Lehtola, MJT Oliveira, MAL Marques          : LibXC Library
   Liviu Ungur et al                             : ANISO software


 Your calculation uses the libint2 library for the computation of 2-el integrals
 For citations please refer to: http://libint.valeyev.net

 Your ORCA version has been built with support for libXC version: 6.2.2
 For citations please refer to: https://libxc.gitlab.io

 This ORCA versions uses:
   CBLAS   interface :  Fast vector & matrix operations
   LAPACKE interface :  Fast linear algebra routines
   SCALAPACK package :  Parallel linear algebra routines
   Shared memory     :  Shared parallel matrices
   BLAS/LAPACK       :  OpenBLAS 0.3.27  USE64BITINT DYNAMIC_ARCH NO_AFFINITY SkylakeX SINGLE_THREADED
        Core in use  :  SkylakeX
   Copyright (c) 2011-2014, The OpenBLAS Project


Your calculation utilizes the geometrical counterpoise correction gCP
Please cite in your paper:
H.Kruse, S. Grimme J.Chem.Phys., 136, (2012), 154101 
   

Your calculation utilizes the atom-pairwise dispersion correction
based on EEQ partial charges (D4)


================================================================================

----- Orbital basis set information -----
Your calculation utilizes the basis: def2-SV(P)
   F. Weigend and R. Ahlrichs, Phys. Chem. Chem. Phys. 7, 3297 (2005).

----- AuxJ basis set information -----
Your calculation utilizes the auxiliary basis: def2/J
   F. Weigend, Phys. Chem. Chem. Phys. 8, 1057 (2006).

================================================================================
                                        WARNINGS
                       Please study these warnings very carefully!
================================================================================


================================================================================
                                       INPUT FILE
================================================================================
NAME = sp.inp
|  1> ! pbe def2-sv(p) def2/J RI DEFGRID1 loosescf d4 GCP(DFT/SV(P)) printgap
|  2> %output
|  3>     printlevel normal
|  4> end
|  5> * xyz 0 1
|  6> C 2.4592365704 -1.1080124613 0.4590616541
|  7> C 1.6972622837 0.0837168178 -0.036707343
|  8> O 2.2611567646 1.0935233314 -0.4272645144
|  9> C 0.214978018 0.0223831453 -0.0063222878
| 10> C -0.5065682055 1.1986525373 0.2080576854
| 11> C -1.8878806661 1.1502777538 0.2292147116
| 12> C -2.5029612222 -0.0775601058 0.0259353894
| 13> N -1.8328882738 -1.1936792054 -0.2168785729
| 14> C -0.513937665 -1.14603815 -0.235247493
| 15> H 2.941063451 -0.8241188429 1.3939590974
| 16> H 3.2513618472 -1.3496667797 -0.2461097525
| 17> H 1.8244676946 -1.9675661726 0.6347934015
| 18> H 0.0325517801 2.1219235555 0.363235783
| 19> H -2.4739169694 2.038041982 0.4010820298
| 20> H -3.5789117258 -0.1782590851 0.0490597041
| 21> H -0.027081664 -2.0811328726 -0.4739608657
| 22> *
| 23> 
| 24>                          ****END OF INPUT****
================================================================================

                       ****************************
                       * Single Point Calculation *
                       ****************************

---------------------------------
CARTESIAN COORDINATES (ANGSTROEM)
---------------------------------
  C      2.459237   -1.108012    0.459062
  C      1.697262    0.083717   -0.036707
  O      2.261157    1.093523   -0.427265
  C      0.214978    0.022383   -0.006322
  C     -0.506568    1.198653    0.208058
  C     -1.887881    1.150278    0.229215
  C     -2.502961   -0.077560    0.025935
  N     -1.832888   -1.193679   -0.216879
  C     -0.513938   -1.146038   -0.235247
  H      2.941063   -0.824119    1.393959
  H      3.251362   -1.349667   -0.246110
  H      1.824468   -1.967566    0.634793
  H      0.032552    2.121924    0.363236
  H     -2.473917    2.038042    0.401082
  H     -3.578912   -0.178259    0.049060
  H     -0.027082   -2.081133   -0.473961

----------------------------
CARTESIAN COORDINATES (A.U.)
----------------------------
  NO LB      ZA    FRAG     MASS         X           Y           Z
   0 C     6.0000    0    12.011    4.647284   -2.093840    0.867501
   1 C     6.0000    0    12.011    3.207361    0.158202   -0.069367
   2 O     8.0000    0    15.999    4.272967    2.066460   -0.807413
   3 C     6.0000    0    12.011    0.406250    0.042298   -0.011947
   4 C     6.0000    0    12.011   -0.957275    2.265125    0.393172
   5 C     6.0000    0    12.011   -3.567577    2.173710    0.433153
   6 C     6.0000    0    12.011   -4.729911   -0.146567    0.049011
   7 N     7.0000    0    14.007   -3.463657   -2.255727   -0.409841
   8 C     6.0000    0    12.011   -0.971201   -2.165698   -0.444553
   9 H     1.0000    0     1.008    5.557804   -1.557359    2.634201
  10 H     1.0000    0     1.008    6.144183   -2.550501   -0.465080
  11 H     1.0000    0     1.008    3.447744   -3.718161    1.199586
  12 H     1.0000    0     1.008    0.061514    4.009854    0.686416
  13 H     1.0000    0     1.008   -4.675026    3.851341    0.757935
  14 H     1.0000    0     1.008   -6.763163   -0.336861    0.092709
  15 H     1.0000    0     1.008   -0.051177   -3.932771   -0.895656

--------------------------------
INTERNAL COORDINATES (ANGSTROEM)
--------------------------------
 C      0   0   0     0.000000000000     0.00000000     0.00000000
 C      1   0   0     1.498869703057     0.00000000     0.00000000
 O      2   1   0     1.220746118008   121.91713815     0.00000000
 C      2   1   3     1.483863779228   117.91673459   181.70427899
 C      4   2   1     1.396494686031   118.97721952   147.89123808
 C      5   4   2     1.382321183099   119.28668377   179.59639789
 C      6   5   4     1.388247954363   118.12843819   359.60478889
 N      7   6   5     1.324265162631   123.23645899   358.38969707
 C      8   7   6     1.319938557600   118.53847151     1.69211747
 H      1   2   3     1.089397062106   107.54771715    67.88257149
 H      1   2   3     1.087715944736   109.41588913   312.01108374
 H      1   2   3     1.082887692856   112.75484732   188.17159391
 H      5   4   2     1.080351782475   118.94997273   358.97553727
 H      6   5   4     1.077544546050   121.13626516   179.43735407
 H      7   6   5     1.080899858710   121.35227609   178.91478755
 H      9   8   7     1.080932458690   114.95562442   182.11184429

---------------------------
INTERNAL COORDINATES (A.U.)
---------------------------
 C      0   0   0     0.000000000000     0.00000000     0.00000000
 C      1   0   0     2.832453249209     0.00000000     0.00000000
 O      2   1   0     2.306875842082   121.91713815     0.00000000
 C      2   1   3     2.804096162786   117.91673459   181.70427899
 C      4   2   1     2.638992504075   118.97721952   147.89123808
 C      5   4   2     2.612208465176   119.28668377   179.59639789
 C      6   5   4     2.623408439723   118.12843819   359.60478889
 N      7   6   5     2.502498486065   123.23645899   358.38969707
 C      8   7   6     2.494322387467   118.53847151     1.69211747
 H      1   2   3     2.058662098479   107.54771715    67.88257149
 H      1   2   3     2.055485247051   109.41588913   312.01108374
 H      1   2   3     2.046361173291   112.75484732   188.17159391
 H      5   4   2     2.041568997171   118.94997273   358.97553727
 H      6   5   4     2.036264089135   121.13626516   179.43735407
 H      7   6   5     2.042604711156   121.35227609   178.91478755
 H      9   8   7     2.042666316190   114.95562442   182.11184429

---------------------
BASIS SET INFORMATION
---------------------
There are 4 groups of distinct atoms

 Group   1 Type C   : 7s4p1d contracted to 3s2p1d pattern {511/31/1}
 Group   2 Type O   : 7s4p1d contracted to 3s2p1d pattern {511/31/1}
 Group   3 Type N   : 7s4p1d contracted to 3s2p1d pattern {511/31/1}
 Group   4 Type H   : 4s contracted to 2s pattern {31}

Atom   0C    basis set group =>   1
Atom   1C    basis set group =>   1
Atom   2O    basis set group =>   2
Atom   3C    basis set group =>   1
Atom   4C    basis set group =>   1
Atom   5C    basis set group =>   1
Atom   6C    basis set group =>   1
Atom   7N    basis set group =>   3
Atom   8C    basis set group =>   1
Atom   9H    basis set group =>   4
Atom  10H    basis set group =>   4
Atom  11H    basis set group =>   4
Atom  12H    basis set group =>   4
Atom  13H    basis set group =>   4
Atom  14H    basis set group =>   4
Atom  15H    basis set group =>   4
---------------------------------
AUXILIARY/J BASIS SET INFORMATION
---------------------------------
There are 4 groups of distinct atoms

 Group   1 Type C   : 12s5p4d2f1g contracted to 6s4p3d1f1g pattern {711111/2111/211/2/1}
 Group   2 Type O   : 12s5p4d2f1g contracted to 6s4p3d1f1g pattern {711111/2111/211/2/1}
 Group   3 Type N   : 12s5p4d2f1g contracted to 6s4p3d1f1g pattern {711111/2111/211/2/1}
 Group   4 Type H   : 5s2p1d contracted to 3s1p1d pattern {311/2/1}

Atom   0C    basis set group =>   1
Atom   1C    basis set group =>   1
Atom   2O    basis set group =>   2
Atom   3C    basis set group =>   1
Atom   4C    basis set group =>   1
Atom   5C    basis set group =>   1
Atom   6C    basis set group =>   1
Atom   7N    basis set group =>   3
Atom   8C    basis set group =>   1
Atom   9H    basis set group =>   4
Atom  10H    basis set group =>   4
Atom  11H    basis set group =>   4
Atom  12H    basis set group =>   4
Atom  13H    basis set group =>   4
Atom  14H    basis set group =>   4
Atom  15H    basis set group =>   4
------------------------------------------------------------------------------
                             ORCA STARTUP CALCULATIONS
                           -- RI-GTO INTEGRALS CHOSEN --
------------------------------------------------------------------------------
------------------------------------------------------------------------------
                   ___                                                        
                  /   \      - P O W E R E D   B Y -                         
                 /     \                                                     
                 |  |  |   _    _      __       _____    __    __             
                 |  |  |  | |  | |    /  \     |  _  \  |  |  /  |          
                  \  \/   | |  | |   /    \    | | | |  |  | /  /          
                 / \  \   | |__| |  /  /\  \   | |_| |  |  |/  /          
                |  |  |   |  __  | /  /__\  \  |    /   |      \           
                |  |  |   | |  | | |   __   |  |    \   |  |\   \          
                \     /   | |  | | |  |  |  |  | |\  \  |  | \   \       
                 \___/    |_|  |_| |__|  |__|  |_| \__\ |__|  \__/        
                                                                              
                      - O R C A' S   B I G   F R I E N D -                    
                                      &                                       
                       - I N T E G R A L  F E E D E R -                       
                                                                              
 v1 FN, 2020, v2 2021, v3 2022-2024                                           
------------------------------------------------------------------------------


----------------------
SHARK INTEGRAL PACKAGE
----------------------

Number of atoms                             ...     16
Number of basis functions                   ...    140
Number of shells                            ...     68
Maximum angular momentum                    ...      2
Integral batch strategy                     ... SHARK/LIBINT Hybrid
RI-J (if used) integral strategy            ... SPLIT-RIJ (Revised 2003 algorithm where possible)
Printlevel                                  ...      1
Contraction scheme used                     ... SEGMENTED contraction
Prescreening option                         ... SCHWARTZ
   Thresh                                   ... 1.000e-09
   Tcut                                     ... 1.000e-10
   Tpresel                                  ... 1.000e-10 
Coulomb Range Separation                    ... NOT USED
Exchange Range Separation                   ... NOT USED
Multipole approximations                    ... NOT USED
Finite Nucleus Model                        ... NOT USED
CABS basis                                  ... NOT available
Auxiliary Coulomb fitting basis             ... AVAILABLE
   # of basis functions in Aux-J            ...    518
   # of shells in Aux-J                     ...    170
   Maximum angular momentum in Aux-J        ...      4
Auxiliary J/K fitting basis                 ... NOT available
Auxiliary Correlation fitting basis         ... NOT available
Auxiliary 'external' fitting basis          ... NOT available

Checking pre-screening integrals            ... done (  0.0 sec) Dimension = 68
Check shell pair data                       ... done (  0.0 sec)
Shell pair information
Shell pair cut-off parameter TPreSel        ...   1.0e-10
Total number of shell pairs                 ...      2346
Shell pairs after pre-screening             ...      2175
Total number of primitive shell pairs       ...      9454
Primitive shell pairs kept                  ...      6210
          la=0 lb=0:    781 shell pairs
          la=1 lb=0:    702 shell pairs
          la=1 lb=1:    169 shell pairs
          la=2 lb=0:    331 shell pairs
          la=2 lb=1:    153 shell pairs
          la=2 lb=2:     39 shell pairs

Calculating one electron integrals          ... done (  0.0 sec)
Calculating RI/J V-Matrix + Cholesky decomp.... done (  0.0 sec)
Calculating Nuclear repulsion               ... done (  0.0 sec) ENN=    406.558317201320 Eh

Diagonalization of the overlap matrix:
Smallest eigenvalue                        ... 6.679e-04
Time for diagonalization                   ...    0.002 sec
Threshold for overlap eigenvalues          ... 1.000e-07
Number of eigenvalues below threshold      ... 0
Time for construction of square roots      ...    0.013 sec
Total time needed                          ...    0.022 sec

-------------------
DFT GRID GENERATION
-------------------

General Integration Accuracy     IntAcc      ... 4.159
Radial Grid Type                 RadialGrid  ... OptM3 with GC (2021)
Angular Grid (max. ang.)         AngularGrid ... 3 (Lebedev-194)
Angular grid pruning method      GridPruning ... 4 (adaptive)
Weight generation scheme         WeightScheme... mBecke (2022)
Basis function cutoff            BFCut       ... 1.0000e-10
Integration weight cutoff        WCut        ... 1.0000e-14
Partially contracted basis set               ... off
Rotationally invariant grid construction     ... off
Angular grids for H and He will be reduced by one unit

Total number of grid points                  ...    39359
Total number of batches                      ...      625
Average number of points per batch           ...       62
Average number of grid points per atom       ...     2460
Initializing property integral containers    ... done (  0.0 sec)

SHARK setup successfully completed in   0.5 seconds

Maximum memory used throughout the entire STARTUP-calculation: 19.8 MB
-------------------------------------------------------------------------------
                                 ORCA GUESS
                   Start orbitals & Density for SCF / CASSCF
-------------------------------------------------------------------------------

------------
SCF SETTINGS
------------
Hamiltonian:
 Density Functional     Method          .... DFT(GTOs)
 Exchange Functional    Exchange        .... PBE
   PBE kappa parameter   XKappa         ....  0.804000
   PBE mue parameter    XMuePBE         ....  0.219520
 Correlation Functional Correlation     .... PBE
   PBE beta parameter  CBetaPBE         ....  0.066725
 LDA part of GGA corr.  LDAOpt          .... PW91-LDA
 Gradients option       PostSCFGGA      .... off
   NL short-range parameter             ....  6.400000
 RI-approximation to the Coulomb term is turned on
   Number of AuxJ basis functions       .... 518


General Settings:
 Integral files         IntName         .... sp
 Hartree-Fock type      HFTyp           .... RHF
 Total Charge           Charge          ....    0
 Multiplicity           Mult            ....    1
 Number of Electrons    NEL             ....   64
 Basis Dimension        Dim             ....  140
 Nuclear Repulsion      ENuc            ....    406.5583172013 Eh

Convergence Acceleration:
 AO-DIIS                CNVDIIS         .... on
   Start iteration      DIISMaxIt       ....    12
   Startup error        DIISStart       ....  0.200000
   # of expansion vecs  DIISMaxEq       ....     5
   Bias factor          DIISBfac        ....   1.050
   Max. coefficient     DIISMaxC        ....  10.000
 MO-DIIS                CNVKDIIS        .... off
 Trust-Rad. Augm. Hess. CNVTRAH         .... auto
   Auto Start mean grad. ratio tolernc. ....  1.125000
   Auto Start start iteration           ....    50
   Auto Start num. interpolation iter.  ....    10
   Max. Number of Micro iterations      ....    24
   Max. Number of Macro iterations      .... Maxiter - #DIIS iter
   Number of Davidson start vectors     ....     2
   Converg. threshold    (grad. norm)   ....   1.000e-04
   Grad. Scal. Fac. for Micro threshold ....   0.100
   Minimum threshold for Micro iter.    ....   1.000e-02
   NR start threshold (gradient norm)   ....   1.000e-04
   Initial trust radius                 ....   0.400
   Minimum AH scaling param. (alpha)    ....   1.000
   Maximum AH scaling param. (alpha)    .... 1000.000
   Quad. conv. algorithm                .... NR
   White noise on init. David. guess    .... on
   Maximum white noise                  ....   0.010
   Pseudo random numbers                .... off
   Inactive MOs                         .... canonical
   Orbital update algorithm             .... Taylor
   Preconditioner                       .... Diag
   Full preconditioner red. dimension   ....   250
 SOSCF                  CNVSOSCF        .... on
   Start iteration      SOSCFMaxIt      ....   150
   Startup grad/error   SOSCFStart      ....  0.003300
   Hessian update       SOSCFHessUp     .... L-BFGS
 Level Shifting         CNVShift        .... on
   Level shift para.    LevelShift      ....    0.2500
   Turn off err/grad.   ShiftErr        ....    0.0010
 Zerner damping         CNVZerner       .... off
 Static damping         CNVDamp         .... on
   Fraction old density DampFac         ....    0.7000
   Max. Damping (<1)    DampMax         ....    0.9800
   Min. Damping (>=0)   DampMin         ....    0.0000
   Turn off err/grad.   DampErr         ....    0.1000

SCF Procedure:
 Maximum # iterations   MaxIter         ....   125
 SCF integral mode      SCFMode         .... Direct
   Integral package                     .... SHARK and LIBINT hybrid scheme
 Reset frequency        DirectResetFreq ....    20
 Integral Threshold     Thresh          ....  1.000e-09 Eh
 Primitive CutOff       TCut            ....  1.000e-10 Eh

Convergence Tolerance:
 Convergence Check Mode ConvCheckMode   .... Total+1el-Energy
 Convergence forced     ConvForced      .... 0
 Energy Change          TolE            ....  1.000e-05 Eh
 1-El. energy change                    ....  1.000e-02 Eh
 Orbital Gradient       TolG            ....  1.000e-04
 Orbital Rotation angle TolX            ....  1.000e-04
 DIIS Error             TolErr          ....  5.000e-04

------------------------------
INITIAL GUESS: MODEL POTENTIAL
------------------------------
Loading Hartree-Fock densities                     ... done
Calculating cut-offs                               ... done
Initializing the effective Hamiltonian             ... done
Setting up the integral package (SHARK)            ... done
Starting the Coulomb interaction                   ... done (   0.1 sec)
Making the grid                                    ... done (   0.2 sec)
Mapping shells                                     ... done
Starting the XC term evaluation                    ... done (   0.1 sec)
  promolecular density results
     # of electrons  =     63.996503938
     EX              =    -52.542426016
     EC              =     -2.125933615
     EX+EC           =    -54.668359631
Transforming the Hamiltonian                       ... done (   0.0 sec)
Diagonalizing the Hamiltonian                      ... done (   0.0 sec)
Back transforming the eigenvectors                 ... done (   0.0 sec)
Now organizing SCF variables                       ... done
                      ------------------
                      INITIAL GUESS DONE (   0.4 sec)
                      ------------------
             **** ENERGY FILE WAS UPDATED (sp.en.tmp) ****
Finished Guess after   0.6 sec
Maximum memory used throughout the entire GUESS-calculation: 15.4 MB

-------------------------------------------------------------------------------------------
                                      ORCA LEAN-SCF
                              memory conserving SCF solver
-------------------------------------------------------------------------------------------

----------------------------------------D-I-I-S--------------------------------------------
Iteration    Energy (Eh)           Delta-E    RMSDP     MaxDP     DIISErr   Damp  Time(sec)
-------------------------------------------------------------------------------------------
               ***  Starting incremental Fock matrix formation  ***
    1    -399.9333929220708796     0.00e+00  5.24e-03  1.01e-01  2.23e-01  0.700   0.7
Warning: op=0 Small HOMO/LUMO gap (   0.086) - skipping pre-diagonalization
         Will do a full diagonalization
    2    -400.0304107338918129    -9.70e-02  3.21e-03  5.87e-02  7.73e-02  0.700   0.7
                               ***Turning on AO-DIIS***
    3    -400.0621816142000853    -3.18e-02  1.24e-03  1.50e-02  2.79e-02  0.700   0.7
    4    -400.0819008702161454    -1.97e-02  1.74e-03  2.13e-02  1.16e-02  0.000   0.7
    5    -400.1267488517461288    -4.48e-02  5.54e-04  9.95e-03  6.21e-03  0.000   0.7
                              *** Initializing SOSCF ***
---------------------------------------S-O-S-C-F--------------------------------------
Iteration    Energy (Eh)           Delta-E    RMSDP     MaxDP     MaxGrad    Time(sec)
--------------------------------------------------------------------------------------
    6    -400.1271896830401147    -4.41e-04  2.01e-04  2.76e-03  1.79e-03     0.6
               *** Restarting incremental Fock matrix formation ***
    7    -400.1272227449151160    -3.31e-05  1.70e-04  3.57e-03  5.52e-04     0.7
    8    -400.1271983885264945     2.44e-05  1.12e-04  2.42e-03  1.25e-03     0.6
    9    -400.1272315390443737    -3.32e-05  5.51e-05  9.47e-04  1.30e-04     0.6
   10    -400.1272288550979965     2.68e-06  3.35e-05  7.58e-04  2.94e-04     0.6
                 **** Energy Check signals convergence ****

               *****************************************************
               *                     SUCCESS                       *
               *           SCF CONVERGED AFTER  10 CYCLES          *
               *****************************************************

             **** ENERGY FILE WAS UPDATED (sp.en.tmp) ****

----------------
TOTAL SCF ENERGY
----------------

Total Energy       :       -400.12722885509800 Eh          -10888.01543 eV

Components:
Nuclear Repulsion  :        406.55831720131971 Eh           11063.01424 eV
Electronic Energy  :       -806.68554605641771 Eh          -21951.02968 eV
One Electron Energy:      -1347.34047867606614 Eh          -36662.99834 eV
Two Electron Energy:        540.65493261964843 Eh           14711.96866 eV

Virial components:
Potential Energy   :       -797.04213708879183 Eh          -21688.61918 eV
Kinetic Energy     :        396.91490823369384 Eh           10800.60375 eV
Virial Ratio       :          2.00809322238789

DFT components:
N(Alpha)           :       31.999860125110 electrons
N(Beta)            :       31.999860125110 electrons
N(Total)           :       63.999720250220 electrons
E(X)               :      -53.430232081219 Eh       
E(C)               :       -2.140987646332 Eh       
E(XC)              :      -55.571219727551 Eh       

---------------
SCF CONVERGENCE
---------------

  Last Energy change         ...   -2.6839e-06  Tolerance :   1.0000e-05
  Last MAX-Density change    ...    7.5794e-04  Tolerance :   1.0000e-03
  Last RMS-Density change    ...    3.3525e-05  Tolerance :   1.0000e-04
  Last DIIS Error            ...    1.7871e-03  Tolerance :   5.0000e-04
  Last Orbital Gradient      ...    2.9419e-04  Tolerance :   1.0000e-04
  Last Orbital Rotation      ...    3.7495e-04  Tolerance :   1.0000e-04


----------------
ORBITAL ENERGIES
----------------

  NO   OCC          E(Eh)            E(eV) 
   0   2.0000     -18.747625      -510.1488 
   1   2.0000     -13.995070      -380.8252 
   2   2.0000      -9.985021      -271.7062 
   3   2.0000      -9.940883      -270.5052 
   4   2.0000      -9.937989      -270.4264 
   5   2.0000      -9.922538      -270.0060 
   6   2.0000      -9.919292      -269.9177 
   7   2.0000      -9.914511      -269.7875 
   8   2.0000      -9.895499      -269.2702 
   9   2.0000      -0.943665       -25.6784 
  10   2.0000      -0.873488       -23.7688 
  11   2.0000      -0.743317       -20.2267 
  12   2.0000      -0.713270       -19.4091 
  13   2.0000      -0.672785       -18.3074 
  14   2.0000      -0.595160       -16.1951 
  15   2.0000      -0.576033       -15.6747 
  16   2.0000      -0.510978       -13.9044 
  17   2.0000      -0.473338       -12.8802 
  18   2.0000      -0.455229       -12.3874 
  19   2.0000      -0.423764       -11.5312 
  20   2.0000      -0.411441       -11.1959 
  21   2.0000      -0.407845       -11.0980 
  22   2.0000      -0.383352       -10.4315 
  23   2.0000      -0.372675       -10.1410 
  24   2.0000      -0.365453        -9.9445 
  25   2.0000      -0.353207        -9.6112 
  26   2.0000      -0.340401        -9.2628 
  27   2.0000      -0.320880        -8.7316 
  28   2.0000      -0.274490        -7.4693 
  29   2.0000      -0.254646        -6.9293 
  30   2.0000      -0.222150        -6.0450 
  31   2.0000      -0.204374        -5.5613 
  32   0.0000      -0.096950        -2.6381 
  33   0.0000      -0.065904        -1.7933 
  34   0.0000      -0.021615        -0.5882 
  35   0.0000       0.042487         1.1561 
  36   0.0000       0.054591         1.4855 
  37   0.0000       0.080853         2.2001 
  38   0.0000       0.092503         2.5171 
  39   0.0000       0.094569         2.5733 
  40   0.0000       0.112809         3.0697 
  41   0.0000       0.119688         3.2569 
  42   0.0000       0.136010         3.7010 
*Only the first 10 virtual orbitals were printed.

                    ********************************
                    * MULLIKEN POPULATION ANALYSIS *
                    ********************************

-----------------------
MULLIKEN ATOMIC CHARGES
-----------------------
   0 C :   -0.254126
   1 C :    0.015805
   2 O :   -0.169945
   3 C :    0.015598
   4 C :   -0.036140
   5 C :   -0.062455
   6 C :   -0.050067
   7 N :   -0.052062
   8 C :   -0.092707
   9 H :    0.137858
  10 H :    0.130103
  11 H :    0.119590
  12 H :    0.075881
  13 H :    0.070615
  14 H :    0.078414
  15 H :    0.073638
Sum of atomic charges:   -0.0000000

--------------------------------
MULLIKEN REDUCED ORBITAL CHARGES
--------------------------------
  0 C s       :     3.038763  s :     3.038763
      pz      :     1.085366  p :     3.189723
      px      :     1.066959
      py      :     1.037398
      dz2     :     0.004426  d :     0.025641
      dxz     :     0.006499
      dyz     :     0.003703
      dx2y2   :     0.003619
      dxy     :     0.007393

  1 C s       :     3.131361  s :     3.131361
      pz      :     0.831843  p :     2.760675
      px      :     0.981242
      py      :     0.947590
      dz2     :     0.008161  d :     0.092159
      dxz     :     0.010809
      dyz     :     0.015001
      dx2y2   :     0.032592
      dxy     :     0.025597

  2 O s       :     3.750663  s :     3.750663
      pz      :     1.310488  p :     4.402114
      px      :     1.692106
      py      :     1.399520
      dz2     :     0.002393  d :     0.017169
      dxz     :     0.001780
      dyz     :     0.004194
      dx2y2   :     0.004100
      dxy     :     0.004702

  3 C s       :     3.045847  s :     3.045847
      pz      :     1.000276  p :     2.902141
      px      :     0.973431
      py      :     0.928435
      dz2     :     0.003070  d :     0.036414
      dxz     :     0.004205
      dyz     :     0.005550
      dx2y2   :     0.012409
      dxy     :     0.011181

  4 C s       :     3.238189  s :     3.238189
      pz      :     0.924263  p :     2.763132
      px      :     0.922849
      py      :     0.916019
      dz2     :     0.003012  d :     0.034819
      dxz     :     0.005687
      dyz     :     0.003311
      dx2y2   :     0.009870
      dxy     :     0.012939

  5 C s       :     3.187901  s :     3.187901
      pz      :     0.987612  p :     2.841153
      px      :     0.952556
      py      :     0.900985
      dz2     :     0.003043  d :     0.033402
      dxz     :     0.004825
      dyz     :     0.003252
      dx2y2   :     0.009290
      dxy     :     0.012992

  6 C s       :     3.179699  s :     3.179699
      pz      :     0.937080  p :     2.815676
      px      :     0.929922
      py      :     0.948674
      dz2     :     0.004366  d :     0.054691
      dxz     :     0.003376
      dyz     :     0.009049
      dx2y2   :     0.023718
      dxy     :     0.014183

  7 N s       :     3.431718  s :     3.431718
      pz      :     1.104364  p :     3.591315
      px      :     1.093022
      py      :     1.393929
      dz2     :     0.003251  d :     0.029029
      dxz     :     0.004667
      dyz     :     0.004455
      dx2y2   :     0.009451
      dxy     :     0.007205

  8 C s       :     3.223707  s :     3.223707
      pz      :     0.943957  p :     2.814544
      px      :     0.949124
      py      :     0.921463
      dz2     :     0.003858  d :     0.054456
      dxz     :     0.009493
      dyz     :     0.003591
      dx2y2   :     0.014707
      dxy     :     0.022808

  9 H s       :     0.862142  s :     0.862142

 10 H s       :     0.869897  s :     0.869897

 11 H s       :     0.880410  s :     0.880410

 12 H s       :     0.924119  s :     0.924119

 13 H s       :     0.929385  s :     0.929385

 14 H s       :     0.921586  s :     0.921586

 15 H s       :     0.926362  s :     0.926362


------------------------
MULLIKEN OVERLAP CHARGES
------------------------
B(  0-C ,  1-C ) :   0.7587 B(  0-C ,  2-O ) :  -0.1910 B(  0-C ,  3-C ) :  -0.4400 
B(  0-C ,  9-H ) :   0.6701 B(  0-C , 10-H ) :   0.6539 B(  0-C , 11-H ) :   0.6480 
B(  1-C ,  2-O ) :   1.4750 B(  1-C ,  3-C ) :   0.2953 B(  1-C ,  4-C ) :  -0.1488 
B(  1-C ,  8-C ) :  -0.1098 B(  2-O ,  3-C ) :  -0.2553 B(  3-C ,  4-C ) :   0.5910 
B(  3-C ,  5-C ) :   0.1379 B(  3-C ,  6-C ) :  -0.1871 B(  3-C ,  8-C ) :   0.7240 
B(  3-C , 12-H ) :  -0.1724 B(  3-C , 15-H ) :  -0.1656 B(  4-C ,  5-C ) :   0.5893 
B(  4-C ,  6-C ) :   0.0994 B(  4-C ,  7-N ) :  -0.1394 B(  4-C ,  8-C ) :  -0.0696 
B(  4-C , 12-H ) :   0.8719 B(  4-C , 13-H ) :  -0.1616 B(  5-C ,  6-C ) :   0.6880 
B(  5-C ,  8-C ) :  -0.1602 B(  5-C , 12-H ) :  -0.1505 B(  5-C , 13-H ) :   0.8221 
B(  5-C , 14-H ) :  -0.1678 B(  6-C ,  7-N ) :   1.0367 B(  6-C ,  8-C ) :  -0.1167 
B(  6-C , 13-H ) :  -0.1185 B(  6-C , 14-H ) :   0.8105 B(  7-N ,  8-C ) :   1.0760 
B(  7-N , 14-H ) :  -0.0964 B(  7-N , 15-H ) :  -0.0842 B(  8-C , 15-H ) :   0.8014 



                     *******************************
                     * LOEWDIN POPULATION ANALYSIS *
                     *******************************

----------------------
LOEWDIN ATOMIC CHARGES
----------------------
   0 C :   -0.359800
   1 C :    0.048888
   2 O :   -0.130793
   3 C :   -0.090189
   4 C :   -0.064634
   5 C :   -0.136658
   6 C :   -0.066263
   7 N :   -0.069546
   8 C :   -0.067675
   9 H :    0.154721
  10 H :    0.147117
  11 H :    0.128999
  12 H :    0.136797
  13 H :    0.132702
  14 H :    0.118539
  15 H :    0.117796

-------------------------------
LOEWDIN REDUCED ORBITAL CHARGES
-------------------------------
  0 C s       :     2.951643  s :     2.951643
      pz      :     1.130693  p :     3.341707
      px      :     1.115405
      py      :     1.095609
      dz2     :     0.011373  d :     0.066450
      dxz     :     0.016391
      dyz     :     0.009345
      dx2y2   :     0.008913
      dxy     :     0.020427

  1 C s       :     2.874948  s :     2.874948
      pz      :     0.823795  p :     2.858972
      px      :     1.034987
      py      :     1.000190
      dz2     :     0.017089  d :     0.217192
      dxz     :     0.022368
      dyz     :     0.032445
      dx2y2   :     0.082053
      dxy     :     0.063239

  2 O s       :     3.555455  s :     3.555455
      pz      :     1.328044  p :     4.545069
      px      :     1.718239
      py      :     1.498786
      dz2     :     0.003885  d :     0.030269
      dxz     :     0.002738
      dyz     :     0.006844
      dx2y2   :     0.007299
      dxy     :     0.009502

  3 C s       :     2.870161  s :     2.870161
      pz      :     0.979230  p :     3.115558
      px      :     1.052791
      py      :     1.083538
      dz2     :     0.008827  d :     0.104470
      dxz     :     0.008752
      dyz     :     0.012491
      dx2y2   :     0.038758
      dxy     :     0.035642

  4 C s       :     2.898617  s :     2.898617
      pz      :     0.923627  p :     3.074763
      px      :     1.081144
      py      :     1.069993
      dz2     :     0.006889  d :     0.091254
      dxz     :     0.012118
      dyz     :     0.006408
      dx2y2   :     0.029685
      dxy     :     0.036154

  5 C s       :     2.901225  s :     2.901225
      pz      :     0.981801  p :     3.145106
      px      :     1.086941
      py      :     1.076363
      dz2     :     0.007198  d :     0.090327
      dxz     :     0.010347
      dyz     :     0.006634
      dx2y2   :     0.029696
      dxy     :     0.036453

  6 C s       :     2.894047  s :     2.894047
      pz      :     0.932158  p :     3.039003
      px      :     1.059334
      py      :     1.047512
      dz2     :     0.009424  d :     0.133212
      dxz     :     0.005566
      dyz     :     0.019574
      dx2y2   :     0.060282
      dxy     :     0.038366

  7 N s       :     3.210088  s :     3.210088
      pz      :     1.101532  p :     3.796711
      px      :     1.241942
      py      :     1.453236
      dz2     :     0.006704  d :     0.062748
      dxz     :     0.009288
      dyz     :     0.006466
      dx2y2   :     0.023032
      dxy     :     0.017258

  8 C s       :     2.891825  s :     2.891825
      pz      :     0.948085  p :     3.042055
      px      :     1.030265
      py      :     1.063705
      dz2     :     0.008867  d :     0.133795
      dxz     :     0.018611
      dyz     :     0.007071
      dx2y2   :     0.040428
      dxy     :     0.058818

  9 H s       :     0.845279  s :     0.845279

 10 H s       :     0.852883  s :     0.852883

 11 H s       :     0.871001  s :     0.871001

 12 H s       :     0.863203  s :     0.863203

 13 H s       :     0.867298  s :     0.867298

 14 H s       :     0.881461  s :     0.881461

 15 H s       :     0.882204  s :     0.882204


---------------------------------
LOEWDIN BOND ORDERS (THRESH 0.050000)
---------------------------------
B(  0-C ,  1-C ) :   1.1084 B(  0-C ,  2-O ) :   0.1115 B(  0-C ,  3-C ) :   0.0722 
B(  0-C ,  9-H ) :   0.9066 B(  0-C , 10-H ) :   0.9160 B(  0-C , 11-H ) :   0.9231 
B(  1-C ,  2-O ) :   2.2246 B(  1-C ,  3-C ) :   1.0544 B(  1-C ,  4-C ) :   0.0823 
B(  1-C ,  8-C ) :   0.0786 B(  2-O ,  3-C ) :   0.1085 B(  3-C ,  4-C ) :   1.4046 
B(  3-C ,  5-C ) :   0.0879 B(  3-C ,  6-C ) :   0.1155 B(  3-C ,  7-N ) :   0.0885 
B(  3-C ,  8-C ) :   1.4139 B(  4-C ,  5-C ) :   1.5230 B(  4-C ,  6-C ) :   0.0960 
B(  4-C ,  7-N ) :   0.1096 B(  4-C ,  8-C ) :   0.0844 B(  4-C , 12-H ) :   0.8786 
B(  5-C ,  6-C ) :   1.4849 B(  5-C ,  7-N ) :   0.0870 B(  5-C ,  8-C ) :   0.1210 
B(  5-C , 13-H ) :   0.8839 B(  6-C ,  7-N ) :   1.6226 B(  6-C ,  8-C ) :   0.1043 
B(  6-C , 14-H ) :   0.8958 B(  7-N ,  8-C ) :   1.6422 B(  8-C , 15-H ) :   0.8867 


------------------------------------------
LOEWDIN REDUCED ORBITAL POPULATIONS PER MO
-------------------------------------------
THRESHOLD FOR PRINTING IS 0.1%%
                      0         1         2         3         4         5   
                 -18.74762 -13.99507  -9.98502  -9.94088  -9.93799  -9.92254
                   2.00000   2.00000   2.00000   2.00000   2.00000   2.00000
                  --------  --------  --------  --------  --------  --------
 1 C  s               0.0       0.0      99.4       0.0       0.0       0.0
 2 O  s              99.9       0.0       0.0       0.0       0.0       0.0
 2 O  py              0.0       0.0       0.2       0.0       0.0       0.0
 3 C  s               0.0       0.0       0.0       0.0       0.0       0.1
 3 C  px              0.0       0.0       0.1       0.0       0.0       0.0
 3 C  py              0.0       0.0       0.0       0.1       0.0       0.1
 4 C  s               0.0       0.0       0.0       0.0       0.0      99.5
 5 C  px              0.0       0.0       0.0       0.0       0.0       0.2
 5 C  py              0.0       0.0       0.0       0.0       0.1       0.0
 6 C  s               0.0       0.0       0.0       0.0      99.5       0.0
 7 N  s               0.0      99.8       0.0       0.0       0.0       0.0
 7 N  px              0.0       0.0       0.0       0.2       0.1       0.0
 7 N  py              0.0       0.0       0.0       0.0       0.1       0.0
 8 C  s               0.0       0.0       0.0      99.5       0.0       0.0

                      6         7         8         9        10        11   
                  -9.91929  -9.91451  -9.89550  -0.94367  -0.87349  -0.74332
                   2.00000   2.00000   2.00000   2.00000   2.00000   2.00000
                  --------  --------  --------  --------  --------  --------
 0 C  s               0.0       0.0      99.7       1.3       0.0       1.0
 0 C  pz              0.0       0.0       0.0       0.2       0.0       0.0
 0 C  px              0.0       0.0       0.0       0.2       0.0       0.3
 0 C  py              0.0       0.0       0.0       1.5       0.0       0.0
 1 C  s               0.0       0.0       0.0      19.9       0.0       1.8
 1 C  pz              0.0       0.0       0.0       1.3       0.0       0.3
 1 C  px              0.1       0.0       0.0       2.5       0.6       4.5
 1 C  py              0.0       0.0       0.1       8.8       0.1       1.2
 1 C  dz2             0.0       0.0       0.0       0.3       0.0       0.0
 1 C  dyz             0.0       0.0       0.0       0.4       0.0       0.0
 1 C  dx2y2           0.0       0.0       0.0       0.2       0.0       0.1
 1 C  dxy             0.0       0.0       0.0       0.7       0.0       0.1
 2 O  s               0.0       0.0       0.0      50.4       0.3       2.0
 2 O  pz              0.0       0.0       0.0       0.7       0.0       0.0
 2 O  px              0.0       0.0       0.0       1.5       0.0       0.1
 2 O  py              0.0       0.0       0.0       4.5       0.0       0.1
 2 O  dxy             0.0       0.0       0.0       0.1       0.0       0.0
 3 C  s              99.4       0.0       0.0       1.6       3.7      17.8
 3 C  pz              0.0       0.0       0.0       0.0       0.0       0.1
 3 C  px              0.0       0.0       0.0       1.8       2.1       0.3
 3 C  py              0.0       0.0       0.0       0.1       0.4       1.7
 3 C  dz2             0.0       0.0       0.0       0.0       0.0       0.2
 3 C  dxy             0.0       0.0       0.0       0.0       0.0       0.1
 4 C  s               0.1       0.0       0.0       0.2       2.5      21.6
 4 C  px              0.0       0.2       0.0       0.2       0.3       0.0
 4 C  py              0.1       0.0       0.0       0.1       1.0       1.6
 4 C  dz2             0.0       0.0       0.0       0.0       0.0       0.2
 5 C  s               0.0      99.5       0.0       0.0       3.8       8.3
 5 C  px              0.0       0.0       0.0       0.0       0.1       4.0
 5 C  py              0.0       0.0       0.0       0.0       2.2       0.1
 5 C  dx2y2           0.0       0.0       0.0       0.0       0.0       0.1
 6 C  s               0.0       0.0       0.0       0.0      13.5       0.4
 6 C  pz              0.0       0.0       0.0       0.0       0.1       0.2
 6 C  px              0.0       0.0       0.0       0.0       3.8       0.1
 6 C  py              0.0       0.1       0.0       0.0       2.4       6.1
 6 C  dz2             0.0       0.0       0.0       0.0       0.2       0.0
 6 C  dxy             0.0       0.0       0.0       0.0       0.2       0.3
 7 N  s               0.0       0.0       0.0       0.0      32.7       8.8
 7 N  pz              0.0       0.0       0.0       0.0       0.1       0.0
 7 N  px              0.0       0.0       0.0       0.0       1.1       0.1
 7 N  py              0.0       0.0       0.0       0.0       3.3       0.3
 7 N  dz2             0.0       0.0       0.0       0.0       0.1       0.0
 8 C  s               0.0       0.0       0.0       0.2      14.0       0.2
 8 C  pz              0.0       0.0       0.0       0.0       0.0       0.1
 8 C  px              0.0       0.0       0.0       0.0       5.7       6.3
 8 C  py              0.1       0.0       0.0       0.1       0.6       3.2
 8 C  dz2             0.0       0.0       0.0       0.0       0.3       0.0
 8 C  dx2y2           0.0       0.0       0.0       0.0       0.3       0.3
 9 H  s               0.0       0.0       0.1       0.2       0.0       0.2
10 H  s               0.0       0.0       0.1       0.2       0.0       0.1
11 H  s               0.0       0.0       0.1       0.1       0.0       0.3
12 H  s               0.0       0.0       0.0       0.1       0.2       3.4
13 H  s               0.0       0.1       0.0       0.0       0.4       1.3
14 H  s               0.0       0.0       0.0       0.0       1.4       0.1
15 H  s               0.0       0.0       0.0       0.0       1.5       0.0

                     12        13        14        15        16        17   
                  -0.71327  -0.67279  -0.59516  -0.57603  -0.51098  -0.47334
                   2.00000   2.00000   2.00000   2.00000   2.00000   2.00000
                  --------  --------  --------  --------  --------  --------
 0 C  s               5.5      31.0       2.8       1.7       1.4       0.7
 0 C  pz              0.0       0.0       0.0       0.1       0.2       0.6
 0 C  px              0.4       0.1       0.9       0.5       3.2       1.4
 0 C  py              0.1       0.2       0.2       0.0       1.3       6.0
 0 C  dxy             0.0       0.0       0.0       0.0       0.1       0.2
 1 C  s               3.1       3.8       2.0       0.1       5.5       5.3
 1 C  pz              0.5       1.7       0.0       0.3       0.2       0.2
 1 C  px              1.2       2.6       8.8       0.5       5.0       0.0
 1 C  py              4.0       9.8       0.0       0.1       0.3       1.3
 1 C  dx2y2           0.1       0.0       0.1       0.0       0.0       0.0
 1 C  dxy             0.1       0.2       0.0       0.1       0.0       0.0
 2 O  s               1.6       1.7       1.0       0.1       2.5       2.4
 2 O  pz              0.0       0.1       0.0       0.0       0.2       0.4
 2 O  px              0.0       0.1       0.9       0.0       2.0       0.3
 2 O  py              0.1       0.4       0.1       0.0       0.7       3.5
 3 C  s               6.1       1.8       6.2       0.4       0.6       0.0
 3 C  pz              0.1       0.1       0.0       0.7       0.0       0.0
 3 C  px              0.8       2.6       4.7       0.3      18.9       1.0
 3 C  py              4.5       0.1       0.6      15.2       0.6       0.0
 3 C  dx2y2           0.0       0.1       0.0       0.0       0.1       0.7
 3 C  dxy             0.1       0.0       0.0       0.2       0.0       0.0
 4 C  s               2.7       1.0       0.9      10.9       0.4       2.2
 4 C  pz              0.0       0.0       0.1       0.0       0.4       0.0
 4 C  px              5.7       1.0       7.1       2.7       0.1       4.7
 4 C  py              0.8       0.3       1.9       0.9      11.0       3.2
 4 C  dx2y2           0.2       0.0       0.1       0.0       0.2       0.1
 5 C  s              16.6       1.7       4.9       4.4       1.9       1.1
 5 C  pz              0.0       0.0       0.1       0.0       0.3       0.0
 5 C  px              0.1       1.5       1.7      11.1       0.7       0.5
 5 C  py              0.6       0.5       2.9       0.9       7.9       0.8
 5 C  dz2             0.1       0.0       0.0       0.0       0.0       0.0
 5 C  dx2y2           0.0       0.0       0.1       0.1       0.0       0.0
 6 C  s              10.0       5.3       6.8       2.9       0.2       2.7
 6 C  pz              0.1       0.0       0.1       0.4       0.0       0.0
 6 C  px              0.1       0.1       1.6       0.9       1.0      15.0
 6 C  py              3.2       0.2       3.8      10.6       0.0       1.0
 6 C  dxy             0.1       0.0       0.1       0.2       0.0       0.0
 7 N  s               0.4       0.0       0.0       3.8       2.7       0.2
 7 N  pz              0.1       0.1       0.2       0.0       0.1       0.0
 7 N  px              5.3       3.5      13.8       0.9       0.3       2.2
 7 N  py              1.6       0.9       3.7       0.3       3.5       0.9
 7 N  dx2y2           0.2       0.1       0.2       0.0       0.0       0.0
 7 N  dxy             0.0       0.0       0.1       0.0       0.0       0.1
 8 C  s              10.8       3.5       4.5       6.3       0.0       2.8
 8 C  pz              0.0       0.0       0.1       0.0       0.4       0.3
 8 C  px              0.7       0.0       2.5       6.8       1.5       5.0
 8 C  py              0.0       0.1       3.2       0.1      10.6       4.2
 8 C  dx2y2           0.0       0.0       0.0       0.1       0.3       0.2
 9 H  s               1.0       7.3       1.1       0.8       1.3       0.8
10 H  s               0.9       6.9       1.3       0.7       1.7       1.1
11 H  s               1.6       6.8       0.8       0.2       0.4       2.5
12 H  s               0.5       0.2       0.2       5.6       3.3       5.8
13 H  s               3.1       0.4       2.0       2.4       5.0       0.0
14 H  s               1.9       1.4       3.4       1.5       0.1      10.3
15 H  s               2.7       0.5       2.1       3.7       1.3       7.5

                     18        19        20        21        22        23   
                  -0.45523  -0.42376  -0.41144  -0.40784  -0.38335  -0.37268
                   2.00000   2.00000   2.00000   2.00000   2.00000   2.00000
                  --------  --------  --------  --------  --------  --------
 0 C  s               0.4       0.6       0.0       0.1       0.0       0.0
 0 C  pz              1.6       2.2       3.9      20.1      11.2       0.3
 0 C  px              1.4       0.2       2.1       6.7       8.9       1.8
 0 C  py              0.4      20.4       5.1       1.0       0.3       3.0
 0 C  dz2             0.0       0.0       0.0       0.0       0.1       0.0
 0 C  dxz             0.0       0.0       0.0       0.2       0.0       0.1
 0 C  dxy             0.0       0.2       0.0       0.0       0.0       0.0
 1 C  s               0.1       1.2       0.1       0.0       0.2       0.2
 1 C  pz              0.8       1.2       3.9      15.3       0.3       0.6
 1 C  px              0.9      13.3       0.9       0.2       0.4       0.2
 1 C  py              2.4       1.5       0.3       0.6       7.5       4.2
 1 C  dxy             0.1       0.0       0.0       0.1       0.0       0.0
 2 O  s               0.2       3.0       0.0       1.4       4.0       2.4
 2 O  pz              0.4       2.5       1.8       4.4       3.2       0.6
 2 O  px              1.1       1.7       1.0       0.5       7.3       4.5
 2 O  py              0.1       9.0       0.2       5.9       4.7       6.6
 2 O  dx2y2           0.0       0.1       0.0       0.0       0.0       0.0
 3 C  s               0.1       0.4       1.6       0.4       0.0       0.1
 3 C  pz              0.7       0.4       0.8       5.5       4.3       3.8
 3 C  px              0.1       3.1       2.3       0.3       0.2       0.1
 3 C  py             13.1       0.1       1.3       0.5       0.2       0.5
 3 C  dxz             0.0       0.0       0.0       0.0       0.0       0.1
 3 C  dx2y2           0.0       0.1       0.0       0.0       0.0       0.0
 3 C  dxy             0.0       0.1       0.2       0.0       0.0       0.0
 4 C  s               0.2       1.6       0.5       0.0       0.1       0.1
 4 C  pz              0.1       0.1       0.3       1.7       2.8       2.9
 4 C  px             10.5       0.2       1.2       0.8       1.7       2.5
 4 C  py              4.4       0.0       0.0       0.0       0.2       6.7
 4 C  dx2y2           0.0       0.1       0.2       0.0       0.1       0.1
 4 C  dxy             0.0       0.1       0.2       0.1       0.0       0.2
 5 C  s               0.0       1.0       0.2       0.0       0.2       0.2
 5 C  pz              0.1       0.0       1.3       0.3       2.5       6.6
 5 C  px             10.3       0.9       5.7       1.6       0.8       1.4
 5 C  py              6.0       3.1      16.6       2.8       0.3       0.6
 5 C  dx2y2           0.1       0.1       0.0       0.0       0.0       0.0
 5 C  dxy             0.0       0.1       0.3       0.0       0.0       0.2
 6 C  s               0.3       1.0       0.6       0.1       0.0       0.2
 6 C  pz              0.6       0.1       0.1       0.8       4.9       8.9
 6 C  px              0.5       4.7       3.7       1.2       0.3       0.7
 6 C  py             13.4       0.3       1.4       0.0       0.3       3.0
 6 C  dx2y2           0.0       0.2       0.0       0.0       0.0       0.0
 6 C  dxy             0.1       0.1       0.2       0.0       0.0       0.0
 7 N  s               0.0       0.6       0.2       0.1       0.0       0.1
 7 N  pz              0.2       0.0       0.3       1.5       5.8      12.4
 7 N  px             11.2       0.1       0.0       0.2       1.8       0.8
 7 N  py              2.7       0.7       0.0       0.0       0.4       3.0
 8 C  s               0.2       0.8       0.1       0.0       0.2       0.0
 8 C  pz              0.0       0.1       1.8       1.7       6.8       7.3
 8 C  px             11.0       0.1       0.5       0.8       1.7       0.1
 8 C  py              1.2       1.5      10.7       2.4       0.5       2.8
 8 C  dxz             0.0       0.0       0.0       0.0       0.0       0.1
 8 C  dx2y2           0.1       0.1       0.0       0.0       0.1       0.0
 8 C  dxy             0.0       0.0       0.2       0.0       0.0       0.0
 9 H  s               1.4       0.2       3.6       3.4      10.0       0.1
10 H  s               0.2       0.2       0.2      12.0       0.0       1.5
11 H  s               0.0       9.0       3.0       1.0       1.1       0.3
12 H  s               0.1       0.6       0.0       0.0       1.5       6.1
13 H  s               0.1       4.2      13.4       2.1       0.0       0.3
14 H  s               0.4       4.6       0.8       0.3       0.3       0.4
15 H  s               0.4       1.7       6.6       1.5       2.1       0.7

                     24        25        26        27        28        29   
                  -0.36545  -0.35321  -0.34040  -0.32088  -0.27449  -0.25465
                   2.00000   2.00000   2.00000   2.00000   2.00000   2.00000
                  --------  --------  --------  --------  --------  --------
 0 C  s               0.0       0.0       0.0       0.0       0.0       0.2
 0 C  pz              0.2       2.2       2.6       9.6       0.2       0.1
 0 C  px              9.7      10.6       3.8       1.1       0.1       0.7
 0 C  py              0.1       6.3       0.8       2.6       0.1       0.1
 0 C  dz2             0.0       0.1       0.1       0.1       0.0       0.0
 0 C  dxz             0.0       0.0       0.1       0.4       0.0       0.0
 0 C  dx2y2           0.0       0.1       0.1       0.0       0.0       0.0
 0 C  dxy             0.0       0.3       0.0       0.0       0.0       0.0
 1 C  s               0.1       0.4       0.2       0.0       0.0       0.0
 1 C  pz              0.1       0.8       2.3      10.8       0.4       0.2
 1 C  px              0.1       2.2       5.0       0.9       0.0       0.1
 1 C  py              1.2       2.8       0.3       2.6       0.0       0.1
 1 C  dz2             0.0       0.0       0.1       0.3       0.0       0.0
 1 C  dxz             0.0       0.0       0.0       0.0       0.2       0.4
 1 C  dyz             0.0       0.1       0.0       0.5       0.0       0.1
 1 C  dx2y2           0.0       0.4       0.1       0.1       0.0       0.1
 1 C  dxy             0.0       0.2       0.0       0.0       0.0       0.0
 2 O  s               0.7       3.7       0.3       0.0       0.0       0.0
 2 O  pz              0.5       1.6       7.1      29.9       3.1       5.9
 2 O  px              1.4       5.4       1.0       0.7       0.0       0.1
 2 O  py              0.4      15.1       1.3       5.8       1.3       2.7
 3 C  s               0.2       0.7       0.0       0.0       0.0       0.1
 3 C  pz              0.2       0.4       1.1       1.5       6.5      21.8
 3 C  px              0.9       2.3       3.5       0.6       0.1       0.1
 3 C  py              3.3       1.9       3.7       1.8       0.3       1.0
 3 C  dyz             0.0       0.0       0.0       0.0       0.4       0.1
 3 C  dx2y2           0.2       0.0       0.5       0.1       0.0       0.0
 3 C  dxy             0.4       0.3       0.1       0.1       0.0       0.0
 4 C  s               0.2       0.0       0.0       0.1       0.0       0.0
 4 C  pz              2.4       0.0       0.1       0.4      34.4       0.3
 4 C  px              4.4       0.1       7.9       2.7       0.0       0.0
 4 C  py             11.9       4.4       3.1       0.4       0.7       0.0
 4 C  dxz             0.0       0.0       0.0       0.0       0.1       0.4
 4 C  dyz             0.0       0.0       0.0       0.0       0.0       0.1
 4 C  dx2y2           0.1       0.1       0.1       0.0       0.0       0.0
 4 C  dxy             0.5       0.2       0.1       0.0       0.0       0.0
 5 C  s               0.0       0.5       0.1       0.0       0.0       0.0
 5 C  pz              1.0       0.1       0.1       0.5      18.1      18.1
 5 C  px              2.7       0.0       8.0       2.0       0.0       0.0
 5 C  py              2.9       0.0       1.2       0.0       0.6       0.4
 5 C  dxz             0.0       0.0       0.0       0.0       0.3       0.1
 5 C  dyz             0.0       0.0       0.0       0.0       0.0       0.1
 5 C  dx2y2           0.4       0.0       0.3       0.1       0.0       0.0
 5 C  dxy             0.2       0.1       0.4       0.1       0.0       0.0
 6 C  s               0.5       0.1       0.2       0.0       0.0       0.0
 6 C  pz              2.8       0.0       1.5       2.0       0.9      22.4
 6 C  px             10.7       1.3       5.8       1.2       0.0       0.0
 6 C  py              0.6       0.3       0.4       0.1       0.1       1.0
 6 C  dyz             0.0       0.0       0.0       0.0       0.6       0.1
 6 C  dx2y2           0.2       0.2       0.6       0.2       0.0       0.0
 7 N  s               0.6       0.5       0.0       0.0       0.0       0.0
 7 N  pz              5.2       0.0       0.8       2.7      23.5       0.2
 7 N  px              0.3       2.3       3.9       0.6       0.0       0.0
 7 N  py              4.1       1.0       1.5       0.1       0.9       0.1
 7 N  dxz             0.0       0.0       0.0       0.0       0.0       0.3
 7 N  dyz             0.0       0.0       0.0       0.0       0.0       0.1
 7 N  dx2y2           0.1       0.0       0.1       0.0       0.0       0.0
 8 C  s               0.5       0.2       0.1       0.1       0.0       0.0
 8 C  pz              1.8       0.3       0.5       0.0       5.6      20.1
 8 C  px              2.1       0.7       2.5       0.2       0.0       0.0
 8 C  py              0.1       6.0       1.9       1.0       0.3       1.0
 8 C  dxz             0.1       0.0       0.0       0.1       0.4       0.1
 8 C  dx2y2           0.0       0.0       0.2       0.1       0.0       0.0
 8 C  dxy             0.1       0.0       0.4       0.0       0.0       0.0
 9 H  s               0.6       0.5       4.2       5.1       0.1       0.0
10 H  s               3.2       4.9       0.1       7.1       0.0       0.2
11 H  s               2.5      10.3       2.5       0.0       0.0       0.1
12 H  s              11.2       3.1       0.0       0.1       0.0       0.0
13 H  s               0.3       0.4       6.0       0.8       0.0       0.0
14 H  s               5.7       1.4       6.2       1.2       0.0       0.0
15 H  s               0.2       2.8       4.8       0.8       0.0       0.0

                     30        31        32        33        34        35   
                  -0.22215  -0.20437  -0.09695  -0.06590  -0.02161   0.04249
                   2.00000   2.00000   0.00000   0.00000   0.00000   0.00000
                  --------  --------  --------  --------  --------  --------
 0 C  s               0.3       1.0       0.0       0.0       0.2      11.4
 0 C  pz              0.4       0.7       0.1       0.0       0.1       0.2
 0 C  px              0.4       1.3       0.0       0.1       0.1       0.2
 0 C  py              2.0       3.1       0.0       0.2       0.2       0.9
 0 C  dz2             0.0       0.0       0.2       0.0       0.3       0.0
 0 C  dxz             0.0       0.0       0.4       0.0       0.6       0.0
 0 C  dyz             0.0       0.0       0.1       0.0       0.1       0.0
 1 C  s               0.1       0.0       0.0       0.1       0.0       0.5
 1 C  pz              0.1       0.0      18.8       0.5      20.7       0.1
 1 C  px              0.0       1.7       0.0       0.0       0.0       0.3
 1 C  py              0.2       0.3       2.5       0.0       4.2       0.7
 1 C  dz2             0.1       0.0       0.2       0.0       0.1       0.3
 1 C  dxz             0.0       0.1       0.7       0.0       0.1       0.0
 1 C  dyz             0.1       0.3       0.4       0.0       0.3       0.1
 1 C  dx2y2           0.7       2.0       0.0       0.0       0.2       0.0
 1 C  dxy             0.7       0.7       0.0       0.0       0.2       0.0
 2 O  s               0.0       0.0       0.0       0.0       0.0       0.4
 2 O  pz              2.7       1.2      15.8       0.5       9.6       0.2
 2 O  px             15.1      41.2       0.1       0.1       0.2       0.0
 2 O  py              4.0       8.3       2.8       0.0       1.1       0.0
 2 O  dyz             0.0       0.0       0.1       0.0       0.2       0.0
 3 C  s               1.6       0.4       0.0       0.0       0.0       0.1
 3 C  pz              0.8       0.0      10.0       0.1      14.3       0.1
 3 C  px              0.5       6.1       0.0       0.0       0.0       0.4
 3 C  py              1.9       1.0       0.4       0.0       0.9       0.0
 3 C  dz2             0.0       0.0       0.0       0.1       0.0       0.0
 3 C  dxz             0.0       0.0       0.9       0.0       0.3       0.0
 3 C  dyz             0.0       0.0       0.0       1.4       0.0       0.0
 3 C  dx2y2           0.0       0.1       0.0       0.1       0.0       0.8
 3 C  dxy             0.0       0.0       0.1       0.0       0.3       0.0
 4 C  s               0.0       0.0       0.1       0.0       0.1       1.8
 4 C  pz              0.0       0.1      11.2      21.9       0.3       0.1
 4 C  px              0.0       0.1       0.1       0.0       0.0       0.7
 4 C  py              0.6       0.1       1.0       0.6       0.1       1.1
 4 C  dxz             0.0       0.0       0.1       0.6       0.6       0.0
 4 C  dyz             0.0       0.0       0.2       0.0       0.4       0.0
 4 C  dx2y2           0.0       0.1       0.0       0.0       0.0       0.2
 4 C  dxy             0.1       0.1       0.0       0.0       0.0       0.4
 5 C  s               0.5       0.1       0.0       0.0       0.1       1.9
 5 C  pz              0.0       0.0       0.9      20.8       9.9       0.0
 5 C  px              0.4       0.6       0.0       0.0       0.0       0.6
 5 C  py              2.5       0.8       0.0       0.6       0.2       2.1
 5 C  dxz             0.0       0.0       0.5       0.6       0.1       0.0
 5 C  dyz             0.0       0.0       0.3       0.0       0.4       0.0
 5 C  dxy             0.1       0.0       0.0       0.0       0.0       0.4
 6 C  s               0.2       0.2       0.0       0.0       0.0       1.4
 6 C  pz              0.5       0.1      17.3       0.1      17.8       0.1
 6 C  px              0.2       0.1       0.0       0.0       0.0       1.2
 6 C  py              3.0       1.0       0.6       0.0       0.7       0.2
 6 C  dz2             0.0       0.0       0.0       0.2       0.0       0.0
 6 C  dxz             0.0       0.0       0.1       0.0       0.3       0.0
 6 C  dyz             0.0       0.0       0.0       1.4       0.0       0.0
 6 C  dx2y2           0.9       0.5       0.0       0.1       0.0       0.3
 6 C  dxy             0.2       0.1       0.0       0.0       0.0       0.0
 7 N  s               7.4       2.4       0.0       0.0       0.0       0.0
 7 N  pz              0.7       1.0       2.7      19.7       5.7       0.0
 7 N  px              7.9       5.5       0.1       0.0       0.0       0.1
 7 N  py             31.6      11.9       0.0       1.1       0.3       0.3
 7 N  dz2             0.1       0.0       0.0       0.0       0.0       0.0
 7 N  dxz             0.0       0.0       0.3       0.3       0.2       0.0
 7 N  dyz             0.0       0.0       0.1       0.0       0.2       0.0
 7 N  dxy             0.0       0.0       0.0       0.0       0.0       0.2
 8 C  s               0.5       0.0       0.1       0.0       0.3       3.1
 8 C  pz              0.1       0.3       5.6      25.9       0.7       0.0
 8 C  px              1.3       1.6       0.2       0.0       0.2       0.8
 8 C  py              0.8       0.6       0.5       1.5       0.0       2.2
 8 C  dxz             0.0       0.0       0.3       0.7       0.5       0.0
 8 C  dyz             0.0       0.0       0.2       0.0       0.4       0.0
 8 C  dxy             1.6       0.3       0.0       0.0       0.0       0.0
 9 H  s               0.0       0.1       1.8       0.0       3.7       8.8
10 H  s               0.0       0.2       1.6       0.0       1.3       8.5
11 H  s               0.3       0.5       0.0       0.3       0.3       9.3
12 H  s               0.4       0.6       0.0       0.0       0.1       8.4
13 H  s               1.0       0.0       0.0       0.0       0.1       9.7
14 H  s               1.8       0.8       0.0       0.0       0.0       5.7
15 H  s               2.8       0.3       0.0       0.0       0.1      13.0

                     36        37        38        39        40        41   
                   0.05459   0.08085   0.09250   0.09457   0.11281   0.11969
                   0.00000   0.00000   0.00000   0.00000   0.00000   0.00000
                  --------  --------  --------  --------  --------  --------
 0 C  s               7.3       2.5       1.5       0.1       0.0       0.3
 0 C  pz              0.6       0.2       0.6       0.2      20.1       3.4
 0 C  px              0.4       8.1       3.7       0.1       0.5       0.9
 0 C  py              1.9       3.8       0.5       0.2       2.1       0.4
 0 C  dz2             0.0       0.4       0.0       0.0       0.0       0.0
 0 C  dxz             0.0       0.0       0.4       0.0       0.6       0.0
 0 C  dyz             0.0       0.1       0.0       0.0       0.1       0.0
 0 C  dx2y2           0.0       0.1       0.0       0.0       0.2       0.0
 0 C  dxy             0.1       0.3       0.0       0.0       0.1       0.1
 1 C  s               0.2       0.3       0.3       0.6       0.3       0.5
 1 C  pz              0.1       0.2       0.3       0.0       1.9       0.4
 1 C  px              0.1       0.3       0.0       0.1       0.2       0.1
 1 C  py              0.4       0.5       0.9       0.2       1.7       0.2
 1 C  dz2             0.0       0.0       0.0       0.1       0.0       0.2
 1 C  dxz             0.0       0.4       0.3       0.0       0.0       0.0
 1 C  dyz             0.0       0.0       0.0       0.0       0.4       0.0
 1 C  dx2y2           0.0       0.6       0.0       0.0       0.0       0.0
 1 C  dxy             0.0       0.4       0.0       0.0       0.3       0.0
 2 O  s               0.1       0.0       0.1       0.2       0.3       0.3
 2 O  pz              0.0       0.2       0.1       0.0       2.2       0.1
 2 O  px              0.2       0.1       0.0       0.2       0.2       0.4
 2 O  py              0.3       0.2       0.0       0.1       0.2       0.1
 3 C  s               0.0       0.5       0.5       0.3       0.1       0.0
 3 C  pz              0.1       4.1      10.4       0.2       0.9       0.0
 3 C  px              0.1       0.2       0.0       0.5       0.0       0.5
 3 C  py              0.4       0.6       0.6       0.3       0.2       0.2
 3 C  dxz             0.0       0.1       0.1       0.0       0.0       0.0
 3 C  dx2y2           0.1       0.1       0.4       0.7       0.0       0.3
 3 C  dxy             0.1       0.3       0.0       0.0       0.2       0.0
 4 C  s               0.9       0.2       0.1       4.3       1.1       4.1
 4 C  pz              0.3       5.3       7.8       0.2       0.2       0.1
 4 C  px              0.3       0.0       0.3       2.3       0.2       0.2
 4 C  py              1.6       0.1       0.5       4.3       0.4       2.1
 4 C  dz2             0.0       0.0       0.1       0.1       0.0       0.2
 4 C  dyz             0.0       0.2       0.2       0.1       0.0       0.0
 4 C  dx2y2           0.1       0.0       0.2       0.2       0.2       0.0
 4 C  dxy             0.5       0.0       0.0       0.0       0.0       0.0
 5 C  s               3.4       0.0       0.0       0.3       1.1       6.6
 5 C  pz              0.1       5.3       8.1       0.2       0.1       0.1
 5 C  px              1.8       0.0       0.1       0.1       0.0       1.7
 5 C  py              5.1       0.4       0.1       0.0       0.2       3.1
 5 C  dz2             0.0       0.0       0.0       0.0       0.1       0.4
 5 C  dxz             0.0       0.1       0.1       0.0       0.0       0.0
 5 C  dyz             0.0       0.1       0.2       0.0       0.0       0.0
 5 C  dx2y2           0.2       0.0       0.0       0.0       0.0       0.1
 5 C  dxy             0.6       0.0       0.0       0.0       0.1       0.4
 6 C  s               1.0       0.2       0.0       7.1       0.3       3.0
 6 C  pz              0.2       4.8       6.2       0.2       0.2       0.0
 6 C  px              3.4       0.2       0.3       9.1       0.2       1.4
 6 C  py              0.3       0.0       0.6       0.4       0.2       0.4
 6 C  dz2             0.0       0.0       0.0       0.3       0.0       0.1
 6 C  dxz             0.0       0.2       0.2       0.0       0.0       0.0
 6 C  dx2y2           0.4       0.0       0.0       0.0       0.0       0.1
 6 C  dxy             0.2       0.0       0.1       0.1       0.1       0.1
 7 N  s               0.1       0.0       0.0       0.7       0.0       0.4
 7 N  pz              0.0       4.1       6.6       0.3       0.3       0.0
 7 N  px              0.3       0.1       0.2       0.1       0.0       0.1
 7 N  py              0.3       0.1       0.2       0.4       0.0       0.3
 7 N  dx2y2           0.1       0.0       0.0       0.2       0.0       0.0
 7 N  dxy             0.0       0.1       0.1       0.3       0.0       0.0
 8 C  s               0.2       1.2       2.9       0.0       0.6       0.0
 8 C  pz              0.0       4.2       5.3       0.2       0.5       0.2
 8 C  px              0.7       0.4       1.6       1.3       0.3       0.4
 8 C  py              1.6       1.7       4.5       0.3       0.2       0.0
 8 C  dxz             0.0       0.1       0.1       0.0       0.0       0.0
 8 C  dyz             0.0       0.1       0.6       0.0       0.1       0.0
 8 C  dx2y2           0.0       0.0       0.0       0.5       0.0       0.3
 9 H  s               7.2      17.0       1.1       0.4      25.2       2.6
10 H  s               5.3       8.9      12.1       0.0      26.8       4.1
11 H  s               7.9      10.2       0.0       0.1       0.1       3.8
12 H  s               6.4       0.0       0.1      23.4       3.0      15.1
13 H  s              23.4       0.2       0.8       0.5       2.4      28.8
14 H  s               9.5       0.7       0.2      37.7       1.3      10.5
15 H  s               4.2       9.1      16.9       0.0       1.4       0.4

                     42        43        44        45        46        47   
                   0.13601   0.17794   0.17958   0.22629   0.24093   0.25014
                   0.00000   0.00000   0.00000   0.00000   0.00000   0.00000
                  --------  --------  --------  --------  --------  --------
 0 C  s               2.0       2.3       0.2       0.7       0.1       0.1
 0 C  pz              1.1       3.3       0.8       3.3       0.4       1.0
 0 C  px              5.3       9.4       0.6       0.9       0.1       0.8
 0 C  py              5.3      17.0       0.3       1.6       1.4       2.3
 0 C  dz2             0.3       0.9       0.1       0.1       0.0       0.0
 0 C  dxz             0.1       0.8       0.1       0.0       0.2       0.3
 0 C  dyz             0.7       1.4       0.0       0.0       0.1       0.2
 0 C  dx2y2           0.1       0.7       0.0       0.2       0.4       0.7
 0 C  dxy             0.4       5.1       0.1       0.5       0.1       0.1
 1 C  s               0.1      20.1       0.2      11.7       4.0       3.3
 1 C  pz              1.4       1.4       0.9       2.4       2.0       0.6
 1 C  px              2.5       0.2       0.2       3.1       1.0       5.5
 1 C  py              0.8       6.9       0.4       8.6       2.4       0.6
 1 C  dz2             0.1       1.9       0.0       1.5       0.9       0.1
[...]
 1 C  dz2             0.3       0.0       2.0       4.4       0.0       0.1
 1 C  dxz             0.1       0.1       0.2       3.5       0.4       0.5
 1 C  dyz             0.2       0.3       0.7       7.4       0.1       2.1
 1 C  dx2y2           0.0       0.0       6.1       2.1       2.5       7.1
 1 C  dxy             0.0       1.3       7.3       0.5       0.0       8.4
 2 O  s               0.0       0.1       1.1       0.0       0.1       0.1
 2 O  pz              0.0       0.0       0.1       1.1       0.0       0.0
 2 O  px              0.0       0.1       0.1       0.0       0.1       0.9
 2 O  py              0.0       0.2       0.5       0.2       0.1       0.1
 2 O  dz2             0.1       0.0       2.3      20.2       0.2       2.0
 2 O  dxz             0.1       0.0       0.7      13.8       0.6       1.5
 2 O  dyz             0.4       0.6       5.3      30.5       0.2       3.4
 2 O  dx2y2           0.2       3.5       0.0       8.0       6.0      20.0
 2 O  dxy             0.1       0.6       0.7       1.7       1.1      15.0
 3 C  s               0.0       0.1       0.1       0.0       0.2       0.2
 3 C  px              0.0       0.3       0.6       0.0       0.0       0.2
 3 C  py              0.0       0.2       1.6       0.0       0.5       0.1
 3 C  dz2             1.0       0.0       0.6       0.1       0.0       0.2
 3 C  dxz             0.1       0.1       0.1       0.5       0.2       0.0
 3 C  dyz             5.4       0.1       0.0       0.2       0.0       0.3
 3 C  dx2y2           0.0       8.7       4.0       0.1       0.1       0.1
 3 C  dxy             0.0       1.8      24.5       0.3       1.3       5.5
 4 C  s               0.0       1.2       0.4       0.0       0.1       0.3
 4 C  px              0.0       0.5       1.3       0.0       0.4       0.1
 4 C  py              0.0       0.1       1.3       0.0       0.1       0.2
 4 C  dz2             0.1       0.8       0.0       0.0       0.0       0.2
 4 C  dxz             3.0       0.5       0.2       0.0       0.0       0.0
 4 C  dyz             0.9       0.0       0.4       0.0       0.0       0.0
 4 C  dx2y2           0.2      11.8       3.6       0.1       0.6       0.1
 4 C  dxy             0.1       7.4       4.5       0.0       0.1       1.3
 5 C  s               0.0       0.6       0.6       0.1       0.0       0.2
 5 C  px              0.0       1.4       0.3       0.0       0.3       0.1
 5 C  py              0.0       0.4       0.1       0.0       0.2       0.1
 5 C  dz2             0.1       0.3       0.1       0.0       0.0       0.1
 5 C  dxz             4.0       0.3       0.0       0.0       0.0       0.0
 5 C  dyz             1.9       0.0       0.0       0.0       0.0       0.0
 5 C  dx2y2           0.0       3.3       1.1       0.0       2.1       0.0
 5 C  dxy             0.0       5.4       0.2       0.1       0.0       1.7
 6 C  s               0.1       1.2       0.2       0.0       1.9       0.1
 6 C  pz              0.1       0.1       0.0       0.0       0.1       0.0
 6 C  px              0.0       0.4       0.1       0.0       0.6       0.0
 6 C  py              0.0       1.9       0.1       0.1       3.1       0.1
 6 C  dz2             2.3       0.9       0.0       0.0       0.3       0.1
 6 C  dxz             0.4       0.0       0.0       0.0       0.3       0.0
 6 C  dyz            12.0       0.6       0.1       0.0       0.2       0.3
 6 C  dx2y2           1.0       0.0       0.8       0.3       0.4       3.3
 6 C  dxy             0.0       0.1       0.6       0.2       7.1       0.4
 7 N  s               0.0       2.8       0.2       0.0       0.0       0.6
 7 N  px              0.0       0.0       0.5       0.1       4.6       0.4
 7 N  py              0.0       0.5       0.1       0.0       1.2       0.1
 7 N  dz2             0.8      19.3       1.9       0.1       0.0       1.2
 7 N  dxz            36.6       0.1       0.0       0.0       0.6       0.1
 7 N  dyz            10.4       1.3       0.0       0.0       1.5       0.1
 7 N  dx2y2           0.3       0.8       8.5       2.0      27.8       9.6
 7 N  dxy             1.1      10.6       0.1       0.1      18.8       1.3
 8 C  s               0.0       0.3       3.0       0.1       1.3       0.3
 8 C  pz              0.1       0.0       0.1       0.0       0.0       0.0
 8 C  px              0.0       1.6       0.2       0.2       3.3       1.0
 8 C  py              0.0       0.3       0.9       0.0       0.1       0.3
 8 C  dz2             0.1       1.2       1.1       0.0       0.1       0.4
 8 C  dxz            12.4       0.1       0.0       0.0       0.1       0.0
 8 C  dyz             2.4       0.1       0.7       0.0       0.1       0.1
 8 C  dx2y2           0.0       0.0       2.3       0.0       5.7       3.7
 8 C  dxy             0.9       0.3       0.2       0.0       2.2       0.6
12 H  s               0.0       0.8       0.1       0.0       0.0       0.0
13 H  s               0.0       0.5       0.0       0.0       0.0       0.1

                    138       139   
                   3.39386   3.49929
                   0.00000   0.00000
                  --------  --------
 0 C  dxz             0.1       0.0
 0 C  dx2y2           0.1       0.2
 0 C  dxy             0.5       0.0
 1 C  s               0.0       6.5
 1 C  pz              0.0       0.7
 1 C  px              0.2       1.6
 1 C  py              0.0       4.6
 1 C  dz2             0.0       0.5
 1 C  dxz             0.2       0.4
 1 C  dyz             0.2       0.9
 1 C  dx2y2           5.5       0.9
 1 C  dxy             1.5       3.9
 2 O  s               0.0       6.3
 2 O  pz              0.0       0.4
 2 O  px              0.2       0.8
 2 O  py              0.0       2.9
 2 O  dz2             0.0       7.4
 2 O  dxz             0.9       4.2
 2 O  dyz             0.4      14.8
 2 O  dx2y2           5.7      12.9
 2 O  dxy             3.7      28.3
 3 C  s               0.3       0.0
 3 C  px              0.4       0.1
 3 C  dyz             0.4       0.0
 3 C  dx2y2          12.1       0.0
 3 C  dxy             0.4       0.8
 4 C  s               0.5       0.0
 4 C  dz2             0.3       0.0
 4 C  dxz             0.2       0.0
 4 C  dx2y2           3.0       0.2
 4 C  dxy             5.0       0.0
 5 C  s               0.7       0.0
 5 C  dz2             0.4       0.0
 5 C  dxz             0.1       0.0
 5 C  dx2y2           1.3       0.0
 5 C  dxy             6.3       0.0
 6 C  s               1.1       0.0
 6 C  dz2             0.6       0.0
 6 C  dyz             0.7       0.0
 6 C  dx2y2           9.0       0.0
 7 N  s               1.3       0.0
 7 N  dz2             2.1       0.0
 7 N  dxz             0.9       0.0
 7 N  dx2y2           4.7       0.0
 7 N  dxy            14.1       0.0
 8 C  s               1.1       0.0
 8 C  dz2             0.7       0.0
 8 C  dxz             0.4       0.0
 8 C  dx2y2           2.1       0.1
 8 C  dxy             8.5       0.0
12 H  s               0.3       0.0
13 H  s               0.3       0.0
14 H  s               0.2       0.0
15 H  s               0.2       0.0


                      *****************************
                      * MAYER POPULATION ANALYSIS *
                      *****************************

  NA   - Mulliken gross atomic population
  ZA   - Total nuclear charge
  QA   - Mulliken gross atomic charge
  VA   - Mayer's total valence
  BVA  - Mayer's bonded valence
  FA   - Mayer's free valence

  ATOM       NA         ZA         QA         VA         BVA        FA
  0 C      6.2541     6.0000    -0.2541     3.8417     3.8417     0.0000
  1 C      5.9842     6.0000     0.0158     4.2647     4.2647    -0.0000
  2 O      8.1699     8.0000    -0.1699     2.3085     2.3085    -0.0000
  3 C      5.9844     6.0000     0.0156     3.7262     3.7262    -0.0000
  4 C      6.0361     6.0000    -0.0361     3.9117     3.9117    -0.0000
  5 C      6.0625     6.0000    -0.0625     3.8066     3.8066    -0.0000
  6 C      6.0501     6.0000    -0.0501     4.0050     4.0050    -0.0000
  7 N      7.0521     7.0000    -0.0521     3.2403     3.2403     0.0000
  8 C      6.0927     6.0000    -0.0927     3.9963     3.9963    -0.0000
  9 H      0.8621     1.0000     0.1379     0.9639     0.9639    -0.0000
 10 H      0.8699     1.0000     0.1301     0.9712     0.9712     0.0000
 11 H      0.8804     1.0000     0.1196     0.9660     0.9660    -0.0000
 12 H      0.9241     1.0000     0.0759     0.9749     0.9749    -0.0000
 13 H      0.9294     1.0000     0.0706     0.9543     0.9543     0.0000
 14 H      0.9216     1.0000     0.0784     0.9554     0.9554    -0.0000
 15 H      0.9264     1.0000     0.0736     0.9687     0.9687    -0.0000

  Mayer bond orders larger than 0.100000
B(  0-C ,  1-C ) :   1.0838 B(  0-C ,  9-H ) :   0.9184 B(  0-C , 10-H ) :   0.9230 
B(  0-C , 11-H ) :   0.9288 B(  1-C ,  2-O ) :   2.1516 B(  1-C ,  3-C ) :   0.9276 
B(  3-C ,  4-C ) :   1.4032 B(  3-C ,  8-C ) :   1.3271 B(  4-C ,  5-C ) :   1.4030 
B(  4-C , 12-H ) :   0.9543 B(  5-C ,  6-C ) :   1.3588 B(  5-C , 13-H ) :   0.9501 
B(  6-C ,  7-N ) :   1.5430 B(  6-C , 14-H ) :   0.9529 B(  7-N ,  8-C ) :   1.5606 
B(  8-C , 15-H ) :   0.9475 

-------
TIMINGS
-------

Total SCF time: 0 days 0 hours 0 min 6 sec 

Total time                  ....       6.740 sec
Sum of individual times     ....       6.275 sec  ( 93.1%)

SCF preparation             ....       0.154 sec  (  2.3%)
Fock matrix formation       ....       5.403 sec  ( 80.2%)
  Startup                   ....       0.048 sec  (  0.9% of F)
  Split-RI-J                ....       1.893 sec  ( 35.0% of F)
  XC integration            ....       2.964 sec  ( 54.9% of F)
    Basis function eval.    ....       0.912 sec  ( 30.8% of XC)
    Density eval.           ....       0.447 sec  ( 15.1% of XC)
    XC-Functional eval.     ....       0.235 sec  (  7.9% of XC)
    XC-Potential eval.      ....       0.648 sec  ( 21.8% of XC)
Diagonalization             ....       0.000 sec  (  0.0%)
Density matrix formation    ....       0.155 sec  (  2.3%)
Total Energy calculation    ....       0.031 sec  (  0.5%)
Population analysis         ....       0.068 sec  (  1.0%)
Orbital Transformation      ....       0.038 sec  (  0.6%)
Orbital Orthonormalization  ....       0.000 sec  (  0.0%)
DIIS solution               ....       0.278 sec  (  4.1%)
  MO trafo                  ....       0.000 sec  (  0.0 % of DIIS)
  Orb grad                  ....       0.000 sec  (  0.0 % of DIIS)
  Energy W gradient         ....       0.000 sec  (  0.0 % of DIIS)
  DIIS error                ....       0.003 sec  (  1.0 % of DIIS)
  DIIS work                 ....       0.244 sec  ( 87.9 % of DIIS)
  Form Q                    ....       0.000 sec  (  0.0 % of DIIS)
  Form QpQm                 ....       0.000 sec  (  0.0 % of DIIS)
  Exp/Cayley                ....       0.000 sec  (  0.0 % of DIIS)
  Orb update                ....       0.000 sec  (  0.0 % of DIIS)
  Wake-sleep                ....       0.014 sec  (  5.0 % of DIIS)
SOSCF solution              ....       0.148 sec  (  2.2%)
  MO trafo                  ....       0.053 sec  ( 35.5 % of SOSCF)
  Orb grad                  ....       0.003 sec  (  1.9 % of SOSCF)
  Rot update                ....       0.060 sec  ( 40.8 % of SOSCF)
  Step                      ....       0.032 sec  ( 21.7 % of SOSCF)
Finished LeanSCF after   6.8 sec

Maximum memory used throughout the entire LEANSCF-calculation: 12.6 MB


-------------------------------------------------------------------------------
                          DFT DISPERSION CORRECTION                            
                                                                               
                                DFTD4 V3.4.0                                   
-------------------------------------------------------------------------------
The PBE functional is recognized
Active option DFTDOPT                   ...         5   

-------------------------   ----------------
Dispersion correction           -0.016366335
-------------------------   ----------------

------------------   -----------------
gCP correction             0.061642868
------------------   -----------------

-------------------------   --------------------
FINAL SINGLE POINT ENERGY      -400.081952322206
-------------------------   --------------------


------------------------------------------------------------------------------
                              ORCA PROPERTY CALCULATIONS
------------------------------------------------------------------------------

GBWName                                 ... sp.gbw
Number of atoms                         ...     16
Number of basis functions               ...    140
Max core memory                         ...   1024 MB

Electric properties:
Dipole moment                           ... YES
Quadrupole moment                       ...  NO
Static polarizability (Dipole/Dipole)   ...  NO
Static polarizability (Dipole/Quad.)    ...  NO
Static polarizability (Quad./Quad.)     ...  NO
Static polarizability (Velocity)        ...  NO

Atomic electric properties:
Dipole moment                           ...  NO
Quadrupole moment                       ...  NO
Static polarizability                   ...  NO

Choice of electric origin               ... Center of mass
Position of electric origin             ...    -0.000025    -0.000014     0.000006

General magnetic properties:
Magnetizability                         ...  NO

EPR properties:
g-Tensor (aka g-matrix)                 ...  NO
Zero-Field splitting spin-orbit         ...  NO
Zero-field splitting spin-spin          ...  NO
Hyperfine couplings                     ...  NO (   0 nuclei)
Quadrupole couplings                    ...  NO (   0 nuclei)
Contact density                         ...  NO (   0 nuclei)

NMR properties:
Chemical shifts                         ...  NO (   0 nuclei)
Spin-rotation constants                 ...  NO (   0 nuclei)
Spin-spin couplings                     ...  NO (   0 nuclei,    0 pairs)

Choice of magnetic origin               ... GIAO
Position of magnetic origin             ...     0.000000     0.000000     0.000000

Properties with geometric perturbations:
SCF Hessian                             ...  NO
IR spectrum                             ...  NO
VCD spectrum                            ...  NO
X-ray spectroscopy properties:
SCF XES/XAS/RIXS spectra                ...  NO


-------------
DIPOLE MOMENT
-------------

Method             : SCF
Type of density    : Electron Density
Multiplicity       :   1
Irrep              :   0
Energy             :  -400.1272288550979965 Eh
Relativity type    : 
Basis              : AO
                                X                 Y                 Z
Electronic contribution:     -2.080019050       1.994689747      -1.498601144
Nuclear contribution   :      1.871206538      -2.092597220       1.983330869
                        -----------------------------------------
Total Dipole Moment    :     -0.208812511      -0.097907473       0.484729725
                        -----------------------------------------
Magnitude (a.u.)       :      0.536797396
Magnitude (Debye)      :      1.364430548



--------------------
Rotational spectrum 
--------------------
 
Rotational constants in cm-1:             0.126399             0.040751             0.032095 
Rotational constants in MHz :          3789.348323          1221.679398           962.181005 

Dipole components along the rotational axes: 
x,y,z [a.u.] :     0.208413    -0.098064     0.484870 
x,y,z [Debye]:     0.529744    -0.249259     1.232441 

 

Dipole moment calculation done in   0.0 sec 

Maximum memory used throughout the entire PROP-calculation: 8.1 MB

--------------------------------
SUGGESTED CITATIONS FOR THIS RUN
--------------------------------

Below you find a list of papers that are relevant to this ORCA run
We neither can nor want to force you to cite these papers, but we appreciate if you do
You receive ORCA, which is the product of decades of hard work by many enthusiastic individuals, for free
The only thing we kindly ask in return is that you cite our papers,
We deeply appreciate it, if you show your appreciation for ORCA by not just citing the generic ORCA reference.

Please note that relegating all ORCA citations to the supporting information does *not* help us.
SI sections are not indexed - citations you put there will not count into any citation statistics
But we need these citations in order to attract the funding resources that allow us to do what we are doing

Therefore, if you are a happy ORCA user, please consider citing a few of the papers listed below in the main body of your paper

In addition to the list printed below, the program has created the file sp.bibtex that contains the list in bibtex format
You can import this file easily into all common literature databanks and citation aid programs


List of essential papers. We consider these as the minimum necessary citations

  1. Neese,F.
     Software update: the ORCA program system, version 5.0
     WIRES Comput. Molec. Sci., 2022 12(1)e1606
     doi.org/10.1002/wcms.1606

List of papers to cite with high priority. The work reported in these papers was absolutely
necessary for this run to complete.
Our perspective: the developers of density functionals and basis sets usually get cited in chemistry papers
Good! But without the algorithms to do something with them, the functionals or basis sets would not do anything.
Hence, in our opinion, the algorithm design and method developments papers are equally worthy of getting cited

  1. Neese,F.
     An improvement of the resolution of the identity approximation for the formation of the Coulomb matrix
     J. Comp. Chem., 2003 24(14)1740-1747
     doi.org/10.1002/jcc.10318
  2. Neese,F.
     The SHARK Integral Generation and Digestion System
     J. Comp. Chem., 2022  1-16
     doi.org/10.1002/jcc.26942
  3. Caldeweyher,E.; Bannwarth,C.; Grimme,S.
     Extension of the D3 dispersion coefficient model
     J. Chem. Phys., 2017 147 034112-XXXX
     doi.org/10.1063/1.4993215
  4. Caldeweyher,E.; Ehlert,S.; Hansen,A.; Neugebauer,H.; Spicher,S.; Bannwarth,C.; Grimme,S.
     A generally applicable atomic-charge dependent London dispersion correction
     J. Chem. Phys., 2019 150 154122-XXXX
     doi.org/10.1063/1.5090222
  5. Caldeweyher,E.; Mewes,J.; Ehlert,S.; Grimme,S.
     Extension and evaluation of the D4 London-dispersion model for periodic systems
     Phys. Chem. Chem. Phys., 2020 22(16)8499-8512
     doi.org/10.1039/D0CP00502A

List of suggested additional citations. These are papers that are important in the 'surrounding' of 
of this run, or papers that preceded the highly important papers. If you like your results we are grateful for a citation.

  1. Neese,F.
     The ORCA program system
     WIRES Comput. Molec. Sci., 2012 2(1)73-78
     doi.org/10.1002/wcms.81
  2. Neese,F.
     Software update: the ORCA program system, version 4.0
     WIRES Comput. Molec. Sci., 2018 8(1)1-6
     doi.org/10.1002/wcms.1327
  3. Neese,F.; Wennmohs,F.; Becker,U.; Riplinger,C.
     The ORCA quantum chemistry program package
     J. Chem. Phys., 2020 152 Art. No. L224108
     doi.org/10.1063/5.0004608

List of optional additional citations

  1. Neese,F.
     Approximate second-order SCF convergence for spin unrestricted wavefunctions
     Chem. Phys. Lett., 2000 325(1-3)93-98
     doi.org/10.1016/s0009-2614(00)00662-x

Timings for individual modules:

Sum of individual times          ...        8.093 sec (=   0.135 min)
Startup calculation              ...        0.562 sec (=   0.009 min)   6.9 %
SCF iterations                   ...        7.438 sec (=   0.124 min)  91.9 %
Property calculations            ...        0.093 sec (=   0.002 min)   1.1 %
                             ****ORCA TERMINATED NORMALLY****
TOTAL RUN TIME: 0 days 0 hours 0 minutes 8 seconds 899 msec
