
                                 *****************
                                 * O   R   C   A *
                                 *****************

                                            #,                                       
                                            ###                                      
                                            ####                                     
                                            #####                                    
                                            ######                                   
                                           ########,                                 
                                     ,,################,,,,,                         
                               ,,#################################,,                 
                          ,,##########################################,,             
                       ,#########################################, ''#####,          
                    ,#############################################,,   '####,        
                  ,##################################################,,,,####,       
                ,###########''''           ''''###############################       
              ,#####''   ,,,,##########,,,,          '''####'''          '####       
            ,##' ,,,,###########################,,,                        '##       
           ' ,,###''''                  '''############,,,                           
         ,,##''                                '''############,,,,        ,,,,,,###''
      ,#''                                            '''#######################'''  
     '                                                          ''''####''''         
             ,#######,   #######,   ,#######,      ##                                
            ,#'     '#,  ##    ##  ,#'     '#,    #''#        ,####,   ,####,        
            ##       ##  ##   ,#'  ##            #'  '#       #'       #'  '#        
            ##       ##  #######   ##           ,######,      #####,   #    #        
            '#,     ,#'  ##    ##  '#,     ,#' ,#      #,     #,   #   #,  ,#        
             '#######'   ##     ##  '#######'  #'      '#     '####' # '####'        



                #########################################################
                #                        -***-                          #
                #          Department of theory and spectroscopy        #
                #                                                       #
                #                      Frank Neese                      #
                #                                                       #
                #     Directorship, Architecture, Infrastructure        #
                #                    SHARK, DRIVERS                     #
                #        Core code/Algorithms in most modules           #
                #                                                       #
                #        Max Planck Institute fuer Kohlenforschung      #
                #                Kaiser Wilhelm Platz 1                 #
                #                 D-45470 Muelheim/Ruhr                 #
                #                      Germany                          #
                #                                                       #
                #                  All rights reserved                  #
                #                        -***-                          #
                #########################################################


                         Program Version 6.0.0  -   RELEASE  -


 With contributions from (in alphabetic order):
   Daniel Aravena         : Magnetic Suceptibility
   Michael Atanasov       : Ab Initio Ligand Field Theory (pilot matlab implementation)
   Alexander A. Auer      : GIAO ZORA, VPT2 properties, NMR spectrum
   Ute Becker             : All parallelization in ORCA, NUMFREQ, NUMCALC
   Giovanni Bistoni       : ED, misc. LED, open-shell LED, HFLD
   Martin Brehm           : Molecular dynamics
   Dmytro Bykov           : pre 5.0 version of the SCF Hessian
   Marcos Casanova-Páez   : Triplet and SCS-CIS(D). UHF-(DLPNO)-IP/EA/STEOM-CCSD. UHF-CVS-IP/STEOM-CCSD
   Vijay G. Chilkuri      : MRCI spin determinant printing, contributions to CSF-ICE
   Pauline Colinet        : FMM embedding
   Dipayan Datta          : RHF DLPNO-CCSD density
   Achintya Kumar Dutta   : EOM-CC, STEOM-CC
   Nicolas Foglia         : Exact transition moments, OPA infrastructure, MCD improvements
   Dmitry Ganyushin       : Spin-Orbit,Spin-Spin,Magnetic field MRCI
   Miquel Garcia          : C-PCM and meta-GGA Hessian, CCSD/C-PCM, Gaussian charge scheme
   Tiago L. C. Gouveia    : GS-ROHF, GS-ROCIS
   Yang Guo               : DLPNO-NEVPT2, F12-NEVPT2, CIM, IAO-localization
   Andreas Hansen         : Spin unrestricted coupled pair/coupled cluster methods
   Ingolf Harden          : AUTO-CI MPn and infrastructure 
   Benjamin Helmich-Paris : MC-RPA, TRAH-(SCF,CASSCF), AVAS, COSX integrals, SCF dyn. polar.
   Lee Huntington         : MR-EOM, pCC
   Robert Izsak           : Overlap fitted RIJCOSX, COSX-SCS-MP3, EOM
   Riya Kayal             : Wick's Theorem for AUTO-CI, AUTO-CI UHF-CCSDT
   Emily Kempfer          : AUTO-CI, RHF CISDT and CCSDT
   Christian Kollmar      : KDIIS, OOCD, Brueckner-CCSD(T), CCSD density, CASPT2, CASPT2-K, improved NEVPT2
   Axel Koslowski         : Symmetry handling
   Simone Kossmann        : Meta GGA functionals, TD-DFT gradient, OOMP2, (MP2 Hessian; deprecated post 5.0)
   Lucas Lang             : DCDCAS
   Marvin Lechner         : AUTO-CI (C++ implementation), FIC-MRCC
   Spencer Leger          : CASSCF response
   Dagmar Lenk            : GEPOL surface, SMD, ORCA-2-JSON
   Dimitrios Liakos       : Extrapolation schemes; Compound Job, initial MDCI parallelization
   Dimitrios Manganas     : Further ROCIS development; embedding schemes. LFT, Crystal Embedding
   Dimitrios Pantazis     : SARC Basis sets
   Anastasios Papadopoulos: AUTO-CI, single reference methods and gradients
   Taras Petrenko         : pre 6.0 DFT Hessian and TD-DFT gradient, (ASA, deprecated), ECA, 1-Electron XAS/XES, NRVS
   Peter Pinski           : DLPNO-MP2, DLPNO-MP2 Gradient
   Christoph Reimann      : Effective Core Potentials
   Marius Retegan         : Local ZFS, SOC
   Christoph Riplinger    : Optimizer, TS searches, QM/MM, DLPNO-CCSD(T), (RO)-DLPNO pert. Triples
   Michael Roemelt        : Original ROCIS implementation
   Masaaki Saitow         : Open-shell DLPNO-CCSD energy and density
   Barbara Sandhoefer     : DKH picture change effects
   Kantharuban Sivalingam : CASSCF convergence/infrastructure, NEVPT2 and variants, FIC-MRCI
   Bernardo de Souza      : ESD, SOC TD-DFT
   Georgi Stoychev        : AutoAux, RI-MP2 NMR, DLPNO-MP2 response, X2C
   Van Anh Tran           : RI-MP2 g-tensors
   Willem Van den Heuvel  : Paramagnetic NMR
   Zikuan Wang            : NOTCH, Electric field optimization 
   Frank Wennmohs         : Technical directorship and infrastructure
   Hang Xu                : AUTO-CI-Response properties 


 We gratefully acknowledge several colleagues who have allowed us to
 interface, adapt or use parts of their codes:
   Stefan Grimme, W. Hujo, H. Kruse, P. Pracht,  : VdW corrections, initial TS optimization,
                  C. Bannwarth, S. Ehlert,         DFT functionals, gCP, sTDA/sTD-DF
                  L. Wittmann, M. Mueller
   Ed Valeev, F. Pavosevic, A. Kumar             : LibInt (2-el integral package), F12 methods
   Garnet Chan, S. Sharma, J. Yang, R. Olivares  : DMRG
   Ulf Ekstrom                                   : XCFun DFT Library
   Mihaly Kallay                                 : mrcc  (arbitrary order and MRCC methods)
   Frank Weinhold                                : gennbo (NPA and NBO analysis)
   Simon Mueller                                 : openCOSMO-RS
   Christopher J. Cramer and Donald G. Truhlar   : smd solvation model
   Lars Goerigk                                  : TD-DFT with DH, B97 family of functionals
   V. Asgeirsson, H. Jonsson                     : NEB implementation
   FAccTs GmbH                                   : IRC, NEB, NEB-TS, DLPNO-Multilevel, CI-OPT
                                                   MM, QMMM, 2- and 3-layer-ONIOM, Crystal-QMMM,
                                                   LR-CPCM, SF, NACMEs, symmetry and pop. for TD-DFT,
                                                   nearIR, NL-DFT gradient (VV10), updates on ESD,
                                                   ML-optimized integration grids, MBIS, APM,
                                                   GOAT, DOCKER, SOLVATOR, interface openCOSMO-RS
   S Lehtola, MJT Oliveira, MAL Marques          : LibXC Library
   Liviu Ungur et al                             : ANISO software


 Your calculation uses the libint2 library for the computation of 2-el integrals
 For citations please refer to: http://libint.valeyev.net

 Your ORCA version has been built with support for libXC version: 6.2.2
 For citations please refer to: https://libxc.gitlab.io

 This ORCA versions uses:
   CBLAS   interface :  Fast vector & matrix operations
   LAPACKE interface :  Fast linear algebra routines
   SCALAPACK package :  Parallel linear algebra routines
   Shared memory     :  Shared parallel matrices
   BLAS/LAPACK       :  OpenBLAS 0.3.27  USE64BITINT DYNAMIC_ARCH NO_AFFINITY SkylakeX SINGLE_THREADED
        Core in use  :  SkylakeX
   Copyright (c) 2011-2014, The OpenBLAS Project


Your calculation utilizes the geometrical counterpoise correction gCP
Please cite in your paper:
H.Kruse, S. Grimme J.Chem.Phys., 136, (2012), 154101 
   

Your calculation utilizes the DFT-NL dispersion correction.
Cite in your paper:
Vydrov, O. A.; Van Voorhis, T. J. Chem. Phys. 2010, 133, 244103
Hujo, W.; Grimme, S. J. Chem. Theory Comput. 2011, 7, 3866 
   

================================================================================

----- Orbital basis set information -----
Your calculation utilizes the basis: def2-TZVP
   F. Weigend and R. Ahlrichs, Phys. Chem. Chem. Phys. 7, 3297 (2005).

----- AuxJ basis set information -----
Your calculation utilizes the auxiliary basis: def2/J
   F. Weigend, Phys. Chem. Chem. Phys. 8, 1057 (2006).

================================================================================
                                        WARNINGS
                       Please study these warnings very carefully!
================================================================================


================================================================================
                                       INPUT FILE
================================================================================
NAME = sp_gas.inp
|  1> ! wb97x-v def2-tzvp def2/J RIJCOSX DEFGRID2 scfconv7 GCP(DFT/TZ) printgap
|  2> %output
|  3>     printlevel normal
|  4> end
|  5> * xyz 0 1
|  6> C 3.6946481301466934 0.3563710638498387 0.08866928288060509
|  7> C 2.224964084200264 0.32166103455329775 -0.31992764290442777
|  8> H 2.1626850751124334 0.43519354132586074 -1.4128390544118092
|  9> C 1.435118673714892 1.4679954259538959 0.3159953886293541
| 10> C -0.04824828135825268 1.4064219462534606 -0.048979966080939685
| 11> C -0.6728311306788115 0.06530064590618047 0.3638192888376898
| 12> H -0.5133402863732534 -0.057299921291381034 1.4472376259087776
| 13> C 0.10749250903239585 -1.064531245939661 -0.3210636984527787
| 14> H 0.015839254434834225 -0.9565873844633637 -1.413201225920024
| 15> C 1.581515259597762 -1.0172485888472675 0.051999223273109636
| 16> O -0.37385874109576434 -2.375571258434561 0.05857804980791665
| 17> C -2.198300511316245 -0.01356390278534148 0.12847943362992797
| 18> C -2.9509587742727894 1.0166051629944999 0.974958977630918
| 19> C -2.603013828591964 0.11395868844377992 -1.342276030111537
| 20> H 4.160774494773373 1.3064310363579055 -0.1946659370569407
| 21> H 3.794192900813954 0.243187851713439 1.1750147840745415
| 22> H 4.259717418972916 -0.4528590166446201 -0.3868481821048963
| 23> H 1.5447343201859618 1.408765674136133 1.4089035826307392
| 24> H 1.861270267945821 2.4294828990490904 0.003552909027292713
| 25> H -0.5831742380102759 2.2324009235158213 0.43134316220083424
| 26> H -0.1565753232260656 1.543848809907416 -1.1333137100451671
| 27> H 1.6747057857374503 -1.1743601963523074 1.1367687215531113
| 28> H 2.1079335076257033 -1.8406911593233066 -0.446191052748086
| 29> H -1.2610855513420336 -2.48126083200714 -0.30763215759434837
| 30> H -2.522115937615232 -1.0031965675326833 0.48083875955488975
| 31> H -2.7908420106974408 2.0352507053229183 0.6052870207241023
| 32> H -2.631308159704065 0.9821545584325623 2.022710029792786
| 33> H -4.028622004522012 0.8229426104999971 0.9446669214924172
| 34> H -2.3376174653188397 1.0986063748667425 -1.7425205034501414
| 35> H -3.687231808077687 -0.0026131606307573385 -1.4464879141801605
| 36> H -2.1281271291068773 -0.6461554715192139 -1.9716682033780397
| 37> *
| 38> 
| 39>                          ****END OF INPUT****
================================================================================

                       ****************************
                       * Single Point Calculation *
                       ****************************

---------------------------------
CARTESIAN COORDINATES (ANGSTROEM)
---------------------------------
  C      3.694648    0.356371    0.088669
  C      2.224964    0.321661   -0.319928
  H      2.162685    0.435194   -1.412839
  C      1.435119    1.467995    0.315995
  C     -0.048248    1.406422   -0.048980
  C     -0.672831    0.065301    0.363819
  H     -0.513340   -0.057300    1.447238
  C      0.107493   -1.064531   -0.321064
  H      0.015839   -0.956587   -1.413201
  C      1.581515   -1.017249    0.051999
  O     -0.373859   -2.375571    0.058578
  C     -2.198301   -0.013564    0.128479
  C     -2.950959    1.016605    0.974959
  C     -2.603014    0.113959   -1.342276
  H      4.160774    1.306431   -0.194666
  H      3.794193    0.243188    1.175015
  H      4.259717   -0.452859   -0.386848
  H      1.544734    1.408766    1.408904
  H      1.861270    2.429483    0.003553
  H     -0.583174    2.232401    0.431343
  H     -0.156575    1.543849   -1.133314
  H      1.674706   -1.174360    1.136769
  H      2.107934   -1.840691   -0.446191
  H     -1.261086   -2.481261   -0.307632
  H     -2.522116   -1.003197    0.480839
  H     -2.790842    2.035251    0.605287
  H     -2.631308    0.982155    2.022710
  H     -4.028622    0.822943    0.944667
  H     -2.337617    1.098606   -1.742521
  H     -3.687232   -0.002613   -1.446488
  H     -2.128127   -0.646155   -1.971668

----------------------------
CARTESIAN COORDINATES (A.U.)
----------------------------
  NO LB      ZA    FRAG     MASS         X           Y           Z
   0 C     6.0000    0    12.011    6.981873    0.673444    0.167561
   1 C     6.0000    0    12.011    4.204573    0.607851   -0.604576
   2 H     1.0000    0     1.008    4.086883    0.822397   -2.669879
   3 C     6.0000    0    12.011    2.711981    2.774109    0.597145
   4 C     6.0000    0    12.011   -0.091176    2.657752   -0.092559
   5 C     6.0000    0    12.011   -1.271467    0.123400    0.687519
   6 H     1.0000    0     1.008   -0.970073   -0.108281    2.734883
   7 C     6.0000    0    12.011    0.203131   -2.011673   -0.606722
   8 H     1.0000    0     1.008    0.029932   -1.807688   -2.670563
   9 C     6.0000    0    12.011    2.988631   -1.922321    0.098264
  10 O     8.0000    0    15.999   -0.706491   -4.489179    0.110696
  11 C     6.0000    0    12.011   -4.154186   -0.025632    0.242791
  12 C     6.0000    0    12.011   -5.576504    1.921105    1.842405
  13 C     6.0000    0    12.011   -4.918983    0.215351   -2.536534
  14 H     1.0000    0     1.008    7.862724    2.468797   -0.367865
  15 H     1.0000    0     1.008    7.169985    0.459558    2.220456
  16 H     1.0000    0     1.008    8.049699   -0.855780   -0.731037
  17 H     1.0000    0     1.008    2.919125    2.662181    2.662442
  18 H     1.0000    0     1.008    3.517291    4.591057    0.006714
  19 H     1.0000    0     1.008   -1.102040    4.218626    0.815120
  20 H     1.0000    0     1.008   -0.295884    2.917451   -2.141653
  21 H     1.0000    0     1.008    3.164735   -2.219219    2.148182
  22 H     1.0000    0     1.008    3.983417   -3.478402   -0.843179
  23 H     1.0000    0     1.008   -2.383106   -4.688903   -0.581341
  24 H     1.0000    0     1.008   -4.766108   -1.895767    0.908654
  25 H     1.0000    0     1.008   -5.273927    3.846066    1.143827
  26 H     1.0000    0     1.008   -4.972452    1.856003    3.822368
  27 H     1.0000    0     1.008   -7.612992    1.555136    1.785162
  28 H     1.0000    0     1.008   -4.417457    2.076065   -3.292887
  29 H     1.0000    0     1.008   -6.967858   -0.004938   -2.733466
  30 H     1.0000    0     1.008   -4.021577   -1.221057   -3.725913

--------------------------------
INTERNAL COORDINATES (ANGSTROEM)
--------------------------------
 C      0   0   0     0.000000000000     0.00000000     0.00000000
 C      1   0   0     1.525820247868     0.00000000     0.00000000
 H      2   1   0     1.100556067845   108.54735204     0.00000000
 C      2   1   3     1.530469343505   111.64078864   241.28019573
 C      4   2   1     1.528847875477   111.80009853   182.13094635
 C      5   4   2     1.535940527095   111.44169418    57.19461913
 H      6   5   4     1.101936260224   107.60986066    57.14862144
 C      6   5   4     1.534434681830   108.43135962   302.37105521
 H      8   6   5     1.101279517294   109.15607095   298.09355842
 C      8   6   5     1.521234584938   111.12556767    57.98037639
 O      8   6   5     1.447291538490   112.38224133   177.37411976
 C      6   5   4     1.545529454832   113.89099739   175.17007131
 C     12   6   5     1.531101036280   111.51115036   297.10055331
 C     12   6   5     1.530743778227   113.76656853    62.47740399
 H      1   2   3     1.095521148139   111.11858866    60.40073708
 H      1   2   3     1.096752546768   110.50711427   180.12962736
 H      1   2   3     1.095569935631   111.33177524   299.98449353
 H      4   2   1     1.099987306275   108.72795683   302.98354925
 H      4   2   1     1.097125173006   109.73192379    59.63246469
 H      5   4   2     1.095033039475   109.80846246   179.34167658
 H      5   4   2     1.098362671959   109.04613799   296.14799788
 H     10   8   6     1.100042451805   108.63142695    62.58023341
 H     10   8   6     1.096981034408   109.28583436   179.53996843
 H     11   8   6     0.965635342553   107.77313557    67.73542821
 H     12   6   5     1.099266271661   106.73107694   181.19392652
 H     13  12   6     1.095414750041   111.54596682    71.47034608
 H     13  12   6     1.095967894993   111.34665995   310.72293340
 H     13  12   6     1.095345073817   110.45033703   190.82375016
 H     14  12   6     1.095519025145   111.21420399   296.08727326
 H     14  12   6     1.095434954627   110.13432007   177.02079612
 H     14  12   6     1.095182825511   112.31552161    57.24439883

---------------------------
INTERNAL COORDINATES (A.U.)
---------------------------
 C      0   0   0     0.000000000000     0.00000000     0.00000000
 C      1   0   0     2.883382398063     0.00000000     0.00000000
 H      2   1   0     2.079749563252   108.54735204     0.00000000
 C      2   1   3     2.892167915586   111.64078864   241.28019573
 C      4   2   1     2.889103785079   111.80009853   182.13094635
 C      5   4   2     2.902506954200   111.44169418    57.19461913
 H      6   5   4     2.082357748861   107.60986066    57.14862144
 C      6   5   4     2.899661319050   108.43135962   302.37105521
 H      8   6   5     2.081116684582   109.15607095   298.09355842
 C      8   6   5     2.874716750983   111.12556767    57.98037639
 O      8   6   5     2.734984643688   112.38224133   177.37411976
 C      6   5   4     2.920627401540   113.89099739   175.17007131
 C     12   6   5     2.893361641933   111.51115036   297.10055331
 C     12   6   5     2.892686522052   113.76656853    62.47740399
 H      1   2   3     2.070234943901   111.11858866    60.40073708
 H      1   2   3     2.072561950071   110.50711427   180.12962736
 H      1   2   3     2.070327138900   111.33177524   299.98449353
 H      4   2   1     2.078674759650   108.72795683   302.98354925
 H      4   2   1     2.073266111613   109.73192379    59.63246469
 H      5   4   2     2.069312552203   109.80846246   179.34167658
 H      5   4   2     2.075604645725   109.04613799   296.14799788
 H     10   8   6     2.078778969599   108.63142695    62.58023341
 H     10   8   6     2.072993729137   109.28583436   179.53996843
 H     11   8   6     1.824786342660   107.77313557    67.73542821
 H     12   6   5     2.077312201695   106.73107694   181.19392652
 H     13  12   6     2.070033880635   111.54596682    71.47034608
 H     13  12   6     2.071079173107   111.34665995   310.72293340
 H     13  12   6     2.069902211654   110.45033703   190.82375016
 H     14  12   6     2.070230932025   111.21420399   296.08727326
 H     14  12   6     2.070072061769   110.13432007   177.02079612
 H     14  12   6     2.069595606789   112.31552161    57.24439883

---------------------
BASIS SET INFORMATION
---------------------
There are 3 groups of distinct atoms

 Group   1 Type C   : 11s6p2d1f contracted to 5s3p2d1f pattern {62111/411/11/1}
 Group   2 Type H   : 5s1p contracted to 3s1p pattern {311/1}
 Group   3 Type O   : 11s6p2d1f contracted to 5s3p2d1f pattern {62111/411/11/1}

Atom   0C    basis set group =>   1
Atom   1C    basis set group =>   1
Atom   2H    basis set group =>   2
Atom   3C    basis set group =>   1
Atom   4C    basis set group =>   1
Atom   5C    basis set group =>   1
Atom   6H    basis set group =>   2
Atom   7C    basis set group =>   1
Atom   8H    basis set group =>   2
Atom   9C    basis set group =>   1
Atom  10O    basis set group =>   3
Atom  11C    basis set group =>   1
Atom  12C    basis set group =>   1
Atom  13C    basis set group =>   1
Atom  14H    basis set group =>   2
Atom  15H    basis set group =>   2
Atom  16H    basis set group =>   2
Atom  17H    basis set group =>   2
Atom  18H    basis set group =>   2
Atom  19H    basis set group =>   2
Atom  20H    basis set group =>   2
Atom  21H    basis set group =>   2
Atom  22H    basis set group =>   2
Atom  23H    basis set group =>   2
Atom  24H    basis set group =>   2
Atom  25H    basis set group =>   2
Atom  26H    basis set group =>   2
Atom  27H    basis set group =>   2
Atom  28H    basis set group =>   2
Atom  29H    basis set group =>   2
Atom  30H    basis set group =>   2
---------------------------------
AUXILIARY/J BASIS SET INFORMATION
---------------------------------
There are 3 groups of distinct atoms

 Group   1 Type C   : 12s5p4d2f1g contracted to 6s4p3d1f1g pattern {711111/2111/211/2/1}
 Group   2 Type H   : 5s2p1d contracted to 3s1p1d pattern {311/2/1}
 Group   3 Type O   : 12s5p4d2f1g contracted to 6s4p3d1f1g pattern {711111/2111/211/2/1}

Atom   0C    basis set group =>   1
Atom   1C    basis set group =>   1
Atom   2H    basis set group =>   2
Atom   3C    basis set group =>   1
Atom   4C    basis set group =>   1
Atom   5C    basis set group =>   1
Atom   6H    basis set group =>   2
Atom   7C    basis set group =>   1
Atom   8H    basis set group =>   2
Atom   9C    basis set group =>   1
Atom  10O    basis set group =>   3
Atom  11C    basis set group =>   1
Atom  12C    basis set group =>   1
Atom  13C    basis set group =>   1
Atom  14H    basis set group =>   2
Atom  15H    basis set group =>   2
Atom  16H    basis set group =>   2
Atom  17H    basis set group =>   2
Atom  18H    basis set group =>   2
Atom  19H    basis set group =>   2
Atom  20H    basis set group =>   2
Atom  21H    basis set group =>   2
Atom  22H    basis set group =>   2
Atom  23H    basis set group =>   2
Atom  24H    basis set group =>   2
Atom  25H    basis set group =>   2
Atom  26H    basis set group =>   2
Atom  27H    basis set group =>   2
Atom  28H    basis set group =>   2
Atom  29H    basis set group =>   2
Atom  30H    basis set group =>   2

Checking for AutoStart:
The File: sp_gas.gbw exists
Trying to determine its content:
     ... Fine, the file contains calculation information
     ... Fine, the calculation information was read
     ... Fine, the file contains a basis set
     ... Fine, the basis set was read
     ... Fine, the file contains a geometry
     ... Fine, the geometry was read
     ... Fine, the file contains a set of orbitals
     ... Fine, the orbitals can be read
     => possible old guess file was deleted
     => GBW file was renamed to GES file
     => GES file is set as startup file
     => Guess is set to MORead
     ... now leaving AutoStart

------------------------------------------------------------------------------
                             ORCA STARTUP CALCULATIONS
                           -- RI-GTO INTEGRALS CHOSEN --
------------------------------------------------------------------------------
------------------------------------------------------------------------------
                   ___                                                        
                  /   \      - P O W E R E D   B Y -                         
                 /     \                                                     
                 |  |  |   _    _      __       _____    __    __             
                 |  |  |  | |  | |    /  \     |  _  \  |  |  /  |          
                  \  \/   | |  | |   /    \    | | | |  |  | /  /          
                 / \  \   | |__| |  /  /\  \   | |_| |  |  |/  /          
                |  |  |   |  __  | /  /__\  \  |    /   |      \           
                |  |  |   | |  | | |   __   |  |    \   |  |\   \          
                \     /   | |  | | |  |  |  |  | |\  \  |  | \   \       
                 \___/    |_|  |_| |__|  |__|  |_| \__\ |__|  \__/        
                                                                              
                      - O R C A' S   B I G   F R I E N D -                    
                                      &                                       
                       - I N T E G R A L  F E E D E R -                       
                                                                              
 v1 FN, 2020, v2 2021, v3 2022-2024                                           
------------------------------------------------------------------------------


----------------------
SHARK INTEGRAL PACKAGE
----------------------

Number of atoms                             ...     31
Number of basis functions                   ...    461
Number of shells                            ...    201
Maximum angular momentum                    ...      3
Integral batch strategy                     ... SHARK/LIBINT Hybrid
RI-J (if used) integral strategy            ... SPLIT-RIJ (Revised 2003 algorithm where possible)
Printlevel                                  ...      1
Contraction scheme used                     ... SEGMENTED contraction
Prescreening option                         ... SCHWARTZ
   Thresh                                   ... 3.000e-11
   Tcut                                     ... 1.000e-12
   Tpresel                                  ... 1.000e-12 
Coulomb Range Separation                    ... NOT USED
Exchange Range Separation                   ... Long Range
   Mu parameter                             ... 3.000e-01
   Scaling (regular/separated)              ... 1.670e-01 8.330e-01
Multipole approximations                    ... NOT USED
Finite Nucleus Model                        ... NOT USED
CABS basis                                  ... NOT available
Auxiliary Coulomb fitting basis             ... AVAILABLE
   # of basis functions in Aux-J            ...    759
   # of shells in Aux-J                     ...    265
   Maximum angular momentum in Aux-J        ...      4
Auxiliary J/K fitting basis                 ... NOT available
Auxiliary Correlation fitting basis         ... NOT available
Auxiliary 'external' fitting basis          ... NOT available

Checking pre-screening integrals            ... done (  0.0 sec) Dimension = 201
Check shell pair data                       ... done (  0.0 sec)
Shell pair information
Shell pair cut-off parameter TPreSel        ...   1.0e-12
Total number of shell pairs                 ...     20301
Shell pairs after pre-screening             ...     17662
Total number of primitive shell pairs       ...     58272
Primitive shell pairs kept                  ...     37248
          la=0 lb=0:   5679 shell pairs
          la=1 lb=0:   5314 shell pairs
          la=1 lb=1:   1272 shell pairs
          la=2 lb=0:   2237 shell pairs
          la=2 lb=1:   1048 shell pairs
          la=2 lb=2:    231 shell pairs
          la=3 lb=0:   1082 shell pairs
          la=3 lb=1:    516 shell pairs
          la=3 lb=2:    222 shell pairs
          la=3 lb=3:     61 shell pairs

Calculating one electron integrals          ... done (  0.1 sec)
Calculating RI/J V-Matrix + Cholesky decomp.... done (  0.1 sec)
Calculating Nuclear repulsion               ... done (  0.0 sec) ENN=    690.339582823670 Eh

Diagonalization of the overlap matrix:
Smallest eigenvalue                        ... 5.160e-05
Time for diagonalization                   ...    0.021 sec
Threshold for overlap eigenvalues          ... 1.000e-07
Number of eigenvalues below threshold      ... 0
Time for construction of square roots      ...    0.031 sec
Total time needed                          ...    0.061 sec

-------------------
DFT GRID GENERATION
-------------------

General Integration Accuracy     IntAcc      ... 4.388
Radial Grid Type                 RadialGrid  ... OptM3 with GC (2021)
Angular Grid (max. ang.)         AngularGrid ... 4 (Lebedev-302)
Angular grid pruning method      GridPruning ... 4 (adaptive)
Weight generation scheme         WeightScheme... mBecke (2022)
Basis function cutoff            BFCut       ... 1.0000e-11
Integration weight cutoff        WCut        ... 1.0000e-14
Partially contracted basis set               ... off
Rotationally invariant grid construction     ... off
Angular grids for H and He will be reduced by one unit

Total number of grid points                  ...   128728
Total number of batches                      ...     2026
Average number of points per batch           ...       63
Average number of grid points per atom       ...     4153

--------------------
COSX GRID GENERATION
--------------------

GRIDX 1
-------
General Integration Accuracy     IntAcc      ... 3.816
Radial Grid Type                 RadialGrid  ... OptM3 with GC (2021)
Angular Grid (max. ang.)         AngularGrid ... 1 (Lebedev-50)
Angular grid pruning method      GridPruning ... 4 (adaptive)
Weight generation scheme         WeightScheme... mBecke (2022)
Basis function cutoff            BFCut       ... 1.0000e-11
Integration weight cutoff        WCut        ... 1.0000e-14
Partially contracted basis set               ... on
Rotationally invariant grid construction     ... off
Angular grids for H and He will be reduced by one unit

Total number of grid points                  ...    16449
Total number of batches                      ...      146
Average number of points per batch           ...      112
Average number of grid points per atom       ...      531
UseSFitting                                  ... on

GRIDX 2
-------
General Integration Accuracy     IntAcc      ... 4.020
Radial Grid Type                 RadialGrid  ... OptM3 with GC (2021)
Angular Grid (max. ang.)         AngularGrid ... 2 (Lebedev-110)
Angular grid pruning method      GridPruning ... 4 (adaptive)
Weight generation scheme         WeightScheme... mBecke (2022)
Basis function cutoff            BFCut       ... 1.0000e-11
Integration weight cutoff        WCut        ... 1.0000e-14
Partially contracted basis set               ... on
Rotationally invariant grid construction     ... off
Angular grids for H and He will be reduced by one unit

Total number of grid points                  ...    33888
Total number of batches                      ...      284
Average number of points per batch           ...      119
Average number of grid points per atom       ...     1093
UseSFitting                                  ... on

GRIDX 3
-------
General Integration Accuracy     IntAcc      ... 4.338
Radial Grid Type                 RadialGrid  ... OptM3 with GC (2021)
Angular Grid (max. ang.)         AngularGrid ... 3 (Lebedev-194)
Angular grid pruning method      GridPruning ... 4 (adaptive)
Weight generation scheme         WeightScheme... mBecke (2022)
Basis function cutoff            BFCut       ... 1.0000e-11
Integration weight cutoff        WCut        ... 1.0000e-14
Partially contracted basis set               ... on
Rotationally invariant grid construction     ... off
Angular grids for H and He will be reduced by one unit

Total number of grid points                  ...    73589
Total number of batches                      ...      593
Average number of points per batch           ...      124
Average number of grid points per atom       ...     2374
UseSFitting                                  ... on
Initializing property integral containers    ... done (  0.0 sec)

SHARK setup successfully completed in   4.4 seconds

Maximum memory used throughout the entire STARTUP-calculation: 81.7 MB
-------------------------------------------------------------------------------
                                 ORCA GUESS
                   Start orbitals & Density for SCF / CASSCF
-------------------------------------------------------------------------------

------------
SCF SETTINGS
------------
Hamiltonian:
 Density Functional     Method          .... DFT(GTOs)
 Exchange Functional    Exchange        .... WB97X-V
 Correlation Functional Correlation     .... WB97X-V
 Gradients option       PostSCFGGA      .... off
 Hybrid DFT is turned on
   Fraction HF Exchange ScalHFX         ....  0.167000
   Scaling of DF-GGA-X  ScalDFX         ....  0.000000
   Scaling of DF-GGA-C  ScalDFC         ....  1.000000
   Scaling of DF-LDA-C  ScalLDAC        ....  1.000000
   Perturbative correction              ....  0.000000
 Long-range corrected/Screened/Range-Separated Hybrid DFT is turned on
   Amount of maximum screened exact exchange              ....  0.833000
   Range separation parameter mu (erf(mu*r12)/r12)        ....  0.300000
   NL short-range parameter             ....  6.000000
   NL long-range parameter              ....  0.010000
 RI-approximation to the Coulomb term is turned on
   Number of AuxJ basis functions       .... 759
   RIJ-COSX (HFX calculated with COS-X)).... on


General Settings:
 Integral files         IntName         .... sp_gas
 Hartree-Fock type      HFTyp           .... RHF
 Total Charge           Charge          ....    0
 Multiplicity           Mult            ....    1
 Number of Electrons    NEL             ....   88
 Basis Dimension        Dim             ....  461
 Nuclear Repulsion      ENuc            ....    690.3395828237 Eh

Convergence Acceleration:
 AO-DIIS                CNVDIIS         .... on
   Start iteration      DIISMaxIt       ....    12
   Startup error        DIISStart       ....  0.200000
   # of expansion vecs  DIISMaxEq       ....     5
   Bias factor          DIISBfac        ....   1.050
   Max. coefficient     DIISMaxC        ....  10.000
 MO-DIIS                CNVKDIIS        .... off
 Trust-Rad. Augm. Hess. CNVTRAH         .... auto
   Auto Start mean grad. ratio tolernc. ....  1.125000
   Auto Start start iteration           ....     1
   Auto Start num. interpolation iter.  ....    10
   Max. Number of Micro iterations      ....    24
   Max. Number of Macro iterations      .... Maxiter - #DIIS iter
   Number of Davidson start vectors     ....     2
   Converg. threshold    (grad. norm)   ....   1.000e-04
   Grad. Scal. Fac. for Micro threshold ....   0.100
   Minimum threshold for Micro iter.    ....   1.000e-02
   NR start threshold (gradient norm)   ....   1.000e-04
   Initial trust radius                 ....   0.400
   Minimum AH scaling param. (alpha)    ....   1.000
   Maximum AH scaling param. (alpha)    .... 1000.000
   Quad. conv. algorithm                .... NR
   White noise on init. David. guess    .... on
   Maximum white noise                  ....   0.010
   Pseudo random numbers                .... off
   Inactive MOs                         .... canonical
   Orbital update algorithm             .... Taylor
   Preconditioner                       .... Diag
   Full preconditioner red. dimension   ....   250
 SOSCF                  CNVSOSCF        .... on
   Start iteration      SOSCFMaxIt      ....   150
   Startup grad/error   SOSCFStart      ....  0.003300
   Hessian update       SOSCFHessUp     .... L-BFGS
 Level Shifting         CNVShift        .... on
   Level shift para.    LevelShift      ....    0.2500
   Turn off err/grad.   ShiftErr        ....    0.0010
 Zerner damping         CNVZerner       .... off
 Static damping         CNVDamp         .... on
   Fraction old density DampFac         ....    0.7000
   Max. Damping (<1)    DampMax         ....    0.9800
   Min. Damping (>=0)   DampMin         ....    0.0000
   Turn off err/grad.   DampErr         ....    0.1000

SCF Procedure:
 Maximum # iterations   MaxIter         ....   125
 SCF integral mode      SCFMode         .... Direct
   Integral package                     .... SHARK and LIBINT hybrid scheme
 Reset frequency        DirectResetFreq ....    20
 Integral Threshold     Thresh          ....  3.000e-11 Eh
 Primitive CutOff       TCut            ....  1.000e-12 Eh

Convergence Tolerance:
 Convergence Check Mode ConvCheckMode   .... Total+1el-Energy
 Convergence forced     ConvForced      .... 0
 Energy Change          TolE            ....  1.000e-07 Eh
 1-El. energy change                    ....  1.000e-04 Eh
 Orbital Gradient       TolG            ....  1.000e-04
 Orbital Rotation angle TolX            ....  1.000e-04
 DIIS Error             TolErr          ....  1.000e-07

---------------------
INITIAL GUESS: MOREAD
---------------------
Guess MOs are being read from file: sp_gas.ges
Input Geometry matches current geometry (good)
Atom 0: N(Shells)= 11 and 9 - projection required
Input basis set needs projection
NBasis(read)= 314
NBasis(calc)= 461
Basis set overlap was calculated
Using GuessMode=FMatrix for the initial guess
C*T matrix was formed
Effective Fockian was calculated
Effective Fockian was diagonalized
Initial density was built
                      ------------------
                      INITIAL GUESS DONE (   0.1 sec)
                      ------------------
             **** ENERGY FILE WAS UPDATED (sp_gas.en.tmp) ****
Finished Guess after   0.5 sec
Maximum memory used throughout the entire GUESS-calculation: 54.8 MB

-------------------------------------------------------------------------------------------
                                      ORCA LEAN-SCF
                              memory conserving SCF solver
-------------------------------------------------------------------------------------------

----------------------------------------D-I-I-S--------------------------------------------
Iteration    Energy (Eh)           Delta-E    RMSDP     MaxDP     DIISErr   Damp  Time(sec)
-------------------------------------------------------------------------------------------
               ***  Starting incremental Fock matrix formation  ***
    1    -468.6995077154157343     0.00e+00  1.07e-03  6.59e-02  4.87e-02  0.700  47.7
    2    -468.7062939430655888    -6.79e-03  9.16e-04  5.05e-02  3.45e-02  0.700  22.7
                               ***Turning on AO-DIIS***
    3    -468.7113838234359946    -5.09e-03  7.35e-04  3.86e-02  2.42e-02  0.700  22.5
    4    -468.7151094442345993    -3.73e-03  1.82e-03  9.18e-02  1.63e-02  0.000  22.2
                              *** Initializing SOSCF ***
---------------------------------------S-O-S-C-F--------------------------------------
Iteration    Energy (Eh)           Delta-E    RMSDP     MaxDP     MaxGrad    Time(sec)
--------------------------------------------------------------------------------------
    5    -468.7246816741118209    -9.57e-03  7.45e-05  1.99e-03  1.76e-03    23.3
               *** Restarting incremental Fock matrix formation ***
    6    -468.7247061205774799    -2.44e-05  4.06e-05  2.89e-03  2.33e-04    47.6
    7    -468.7247096345844284    -3.51e-06  1.46e-05  4.60e-04  1.55e-04    34.0
    8    -468.7247111450971033    -1.51e-06  4.27e-06  1.27e-04  1.95e-05    31.8
                  *** Gradient check signals convergence ***

               *****************************************************
               *                     SUCCESS                       *
               *           SCF CONVERGED AFTER   8 CYCLES          *
               *****************************************************


------------------
NL GRID GENERATION
------------------

General Integration Accuracy     IntAcc      ... 4.004
Radial Grid Type                 RadialGrid  ... OptM3 with GC (2021)
Angular Grid (max. ang.)         AngularGrid ... 2 (Lebedev-110)
Angular grid pruning method      GridPruning ... 4 (adaptive)
Weight generation scheme         WeightScheme... mBecke (2022)
Basis function cutoff            BFCut       ... 1.0000e-10
Integration weight cutoff        WCut        ... 1.0000e-14
Partially contracted basis set               ... off
Rotationally invariant grid construction     ... off
Angular grids for H and He will be reduced by one unit

Total number of grid points                  ...    37847
Total number of batches                      ...      609
Average number of points per batch           ...       62
Average number of grid points per atom       ...     1221
Final grid set up in    0.4 sec

-------------------------------------------------------------------------------
                    post-SCF DFT-NL dispersion correction                      
-------------------------------------------------------------------------------

SCF Energy:     -468.724711145 
NL    Energy:      0.323728374 
SC+NL Energy:   -468.400982771 
NL done in  :              5.5 sec
-------------------------------------------------------------------------------
Recomputing exchange energy using gridx3       ... done (   88.554 sec)
Old exchange energy                            :    -22.676894384 Eh
New exchange energy                            :    -22.676909494 Eh
Exchange energy change after final integration :     -0.000015110 Eh
Total energy after final integration           :   -468.400997881 Eh
             **** ENERGY FILE WAS UPDATED (sp_gas.en.tmp) ****

----------------
TOTAL SCF ENERGY
----------------

Total Energy       :       -468.40099788105726 Eh          -12745.83914 eV

Components:
Nuclear Repulsion  :        690.33958282366973 Eh           18785.09506 eV
Electronic Energy  :      -1159.06429396876683 Eh          -31539.74289 eV
One Electron Energy:      -2002.30963068881738 Eh          -54485.61505 eV
Two Electron Energy:        843.24533672005055 Eh           22945.87216 eV

Virial components:
Potential Energy   :       -934.70765693546855 Eh          -25434.68842 eV
Kinetic Energy     :        466.30665905441123 Eh           12688.84928 eV
Virial Ratio       :          2.00449133373067

DFT components:
N(Alpha)           :       44.000044078439 electrons
N(Beta)            :       44.000044078439 electrons
N(Total)           :       88.000088156877 electrons
E(X)               :      -44.512626053275 Eh       
E(C)               :       -3.559586885249 Eh       
NL Energy, E(C,NL) :        0.323728374104 Eh       
E(XC)              :      -47.748484564419 Eh       

---------------
SCF CONVERGENCE
---------------

  Last Energy change         ...    1.5105e-06  Tolerance :   1.0000e-07
  Last MAX-Density change    ...    1.2713e-04  Tolerance :   1.0000e-05
  Last RMS-Density change    ...    4.2666e-06  Tolerance :   1.0000e-06
  Last DIIS Error            ...    1.7607e-03  Tolerance :   1.0000e-07
  Last Orbital Gradient      ...    1.9456e-05  Tolerance :   1.0000e-04
  Last Orbital Rotation      ...    1.9310e-05  Tolerance :   1.0000e-04


----------------
ORBITAL ENERGIES
----------------

  NO   OCC          E(Eh)            E(eV) 
   0   2.0000     -21.664636      -589.5247 
   1   2.0000     -12.089628      -328.9755 
   2   2.0000     -12.052067      -327.9534 
   3   2.0000     -12.045947      -327.7869 
   4   2.0000     -12.043383      -327.7171 
   5   2.0000     -12.039805      -327.6197 
   6   2.0000     -12.037840      -327.5663 
   7   2.0000     -12.037619      -327.5603 
   8   2.0000     -12.034808      -327.4838 
   9   2.0000     -12.032952      -327.4333 
  10   2.0000     -12.031475      -327.3931 
  11   2.0000      -1.662461       -45.2379 
  12   2.0000      -1.353396       -36.8278 
  13   2.0000      -1.311579       -35.6899 
  14   2.0000      -1.256685       -34.1961 
  15   2.0000      -1.250738       -34.0343 
  16   2.0000      -1.179114       -32.0853 
  17   2.0000      -1.173824       -31.9414 
  18   2.0000      -1.114213       -30.3193 
  19   2.0000      -1.100642       -29.9500 
  20   2.0000      -1.043965       -28.4077 
  21   2.0000      -1.019343       -27.7377 
  22   2.0000      -1.006655       -27.3925 
  23   2.0000      -0.942234       -25.6395 
  24   2.0000      -0.928539       -25.2668 
  25   2.0000      -0.896847       -24.4045 
  26   2.0000      -0.895690       -24.3730 
  27   2.0000      -0.878729       -23.9114 
  28   2.0000      -0.868331       -23.6285 
  29   2.0000      -0.857091       -23.3226 
  30   2.0000      -0.853402       -23.2222 
  31   2.0000      -0.838194       -22.8084 
  32   2.0000      -0.829807       -22.5802 
  33   2.0000      -0.814579       -22.1658 
  34   2.0000      -0.808026       -21.9875 
  35   2.0000      -0.799082       -21.7441 
  36   2.0000      -0.795114       -21.6362 
  37   2.0000      -0.786231       -21.3944 
  38   2.0000      -0.777919       -21.1683 
  39   2.0000      -0.771429       -20.9916 
  40   2.0000      -0.756297       -20.5799 
  41   2.0000      -0.750290       -20.4164 
  42   2.0000      -0.746659       -20.3176 
  43   2.0000      -0.730559       -19.8795 
  44   0.0000      -0.155681        -4.2363 
  45   0.0000      -0.067295        -1.8312 
  46   0.0000      -0.052419        -1.4264 
  47   0.0000      -0.043835        -1.1928 
  48   0.0000      -0.033869        -0.9216 
  49   0.0000      -0.024691        -0.6719 
  50   0.0000      -0.022789        -0.6201 
  51   0.0000      -0.013007        -0.3539 
  52   0.0000      -0.007572        -0.2060 
  53   0.0000      -0.002504        -0.0681 
  54   0.0000       0.000467         0.0127 
*Only the first 10 virtual orbitals were printed.

                    ********************************
                    * MULLIKEN POPULATION ANALYSIS *
                    ********************************

-----------------------
MULLIKEN ATOMIC CHARGES
-----------------------
   0 C :   -0.341657
   1 C :   -0.031714
   2 H :    0.063348
   3 C :   -0.193641
   4 C :   -0.244657
   5 C :   -0.003496
   6 H :    0.070031
   7 C :    0.041135
   8 H :    0.083570
   9 C :   -0.206711
  10 O :   -0.434550
  11 C :   -0.028533
  12 C :   -0.385719
  13 C :   -0.379729
  14 H :    0.110914
  15 H :    0.105199
  16 H :    0.113090
  17 H :    0.088975
  18 H :    0.100687
  19 H :    0.107871
  20 H :    0.099234
  21 H :    0.096512
  22 H :    0.106054
  23 H :    0.298766
  24 H :    0.072478
  25 H :    0.111594
  26 H :    0.116758
  27 H :    0.116260
  28 H :    0.116287
  29 H :    0.117998
  30 H :    0.113645
Sum of atomic charges:    0.0000000

--------------------------------
MULLIKEN REDUCED ORBITAL CHARGES
--------------------------------
  0 C s       :     3.245490  s :     3.245490
      pz      :     1.044267  p :     3.035112
      px      :     0.933921
      py      :     1.056924
      dz2     :     0.015605  d :     0.057701
      dxz     :     0.011896
      dyz     :     0.003184
      dx2y2   :     0.007093
      dxy     :     0.019923
      f0      :     0.000896  f :     0.003353
      f+1     :     0.000434
      f-1     :     0.000068
      f+2     :     0.000347
      f-2     :     0.000098
      f+3     :     0.000813
      f-3     :     0.000697

  1 C s       :     3.116526  s :     3.116526
      pz      :     0.945064  p :     2.770700
      px      :     0.921702
      py      :     0.903934
      dz2     :     0.033617  d :     0.136663
      dxz     :     0.017650
      dyz     :     0.016629
      dx2y2   :     0.033850
      dxy     :     0.034916
      f0      :     0.001037  f :     0.007825
      f+1     :     0.000805
      f-1     :     0.000859
      f+2     :     0.000980
      f-2     :     0.000689
      f+3     :     0.001275
      f-3     :     0.002180

  2 H s       :     0.915470  s :     0.915470
      pz      :     0.012952  p :     0.021183
      px      :     0.004092
      py      :     0.004139

  3 C s       :     3.169848  s :     3.169848
      pz      :     1.000951  p :     2.924691
      px      :     0.929873
      py      :     0.993867
      dz2     :     0.026695  d :     0.093584
      dxz     :     0.015456
      dyz     :     0.006102
      dx2y2   :     0.020077
      dxy     :     0.025254
      f0      :     0.000954  f :     0.005518
      f+1     :     0.000667
      f-1     :     0.000498
      f+2     :     0.000725
      f-2     :     0.000335
      f+3     :     0.001024
      f-3     :     0.001315

  4 C s       :     3.185784  s :     3.185784
      pz      :     1.016279  p :     2.960004
      px      :     0.975765
      py      :     0.967960
      dz2     :     0.021187  d :     0.093396
      dxz     :     0.014380
      dyz     :     0.010893
      dx2y2   :     0.018933
      dxy     :     0.028003
      f0      :     0.000987  f :     0.005473
      f+1     :     0.000518
      f-1     :     0.000441
      f+2     :     0.000710
      f-2     :     0.000346
      f+3     :     0.001049
      f-3     :     0.001422

  5 C s       :     3.089851  s :     3.089851
      pz      :     0.940451  p :     2.782275
      px      :     0.921102
      py      :     0.920721
      dz2     :     0.030710  d :     0.123894
      dxz     :     0.015791
      dyz     :     0.016819
      dx2y2   :     0.028775
      dxy     :     0.031798
      f0      :     0.001047  f :     0.007476
      f+1     :     0.000617
      f-1     :     0.000933
      f+2     :     0.000968
      f-2     :     0.000567
      f+3     :     0.001298
      f-3     :     0.002046

  6 H s       :     0.908632  s :     0.908632
      pz      :     0.013011  p :     0.021337
      px      :     0.004270
      py      :     0.004056

  7 C s       :     3.175517  s :     3.175517
      pz      :     0.933000  p :     2.602094
      px      :     0.936739
      py      :     0.732355
      dz2     :     0.035903  d :     0.169240
      dxz     :     0.021608
      dyz     :     0.027915
      dx2y2   :     0.042240
      dxy     :     0.041575
      f0      :     0.001418  f :     0.012013
      f+1     :     0.000898
      f-1     :     0.001610
      f+2     :     0.001697
      f-2     :     0.001292
      f+3     :     0.001814
      f-3     :     0.003284

  8 H s       :     0.896133  s :     0.896133
      pz      :     0.013345  p :     0.020297
      px      :     0.003966
      py      :     0.002986

  9 C s       :     3.155178  s :     3.155178
      pz      :     1.045304  p :     2.959688
      px      :     0.939751
      py      :     0.974633
      dz2     :     0.020215  d :     0.086322
      dxz     :     0.014083
      dyz     :     0.012281
      dx2y2   :     0.018087
      dxy     :     0.021657
      f0      :     0.001005  f :     0.005523
      f+1     :     0.000586
      f-1     :     0.000446
      f+2     :     0.000671
      f-2     :     0.000379
      f+3     :     0.001060
      f-3     :     0.001376

 10 O s       :     3.768412  s :     3.768412
      pz      :     1.776742  p :     4.636048
      px      :     1.392851
      py      :     1.466455
      dz2     :     0.003306  d :     0.028558
      dxz     :     0.005101
      dyz     :     0.005298
      dx2y2   :     0.011543
      dxy     :     0.003310
      f0      :     0.000261  f :     0.001532
      f+1     :     0.000116
      f-1     :     0.000191
      f+2     :     0.000354
      f-2     :     0.000087
      f+3     :     0.000361
      f-3     :     0.000162

 11 C s       :     3.115449  s :     3.115449
      pz      :     0.877274  p :     2.769533
      px      :     0.911122
      py      :     0.981136
      dz2     :     0.031301  d :     0.135925
      dxz     :     0.032549
      dyz     :     0.022695
      dx2y2   :     0.029400
      dxy     :     0.019980
      f0      :     0.001409  f :     0.007627
      f+1     :     0.001296
      f-1     :     0.001316
      f+2     :     0.001161
      f-2     :     0.000405
      f+3     :     0.000874
      f-3     :     0.001165

 12 C s       :     3.269376  s :     3.269376
      pz      :     1.020715  p :     3.055244
      px      :     1.038134
      py      :     0.996395
      dz2     :     0.019221  d :     0.057766
      dxz     :     0.005197
      dyz     :     0.005942
      dx2y2   :     0.022434
      dxy     :     0.004973
      f0      :     0.000532  f :     0.003334
      f+1     :     0.000540
      f-1     :     0.000451
      f+2     :     0.000526
      f-2     :     0.000192
      f+3     :     0.000475
      f-3     :     0.000618

 13 C s       :     3.255638  s :     3.255638
      pz      :     0.942030  p :     3.064693
      px      :     1.069211
      py      :     1.053452
      dz2     :     0.010336  d :     0.056174
      dxz     :     0.011961
      dyz     :     0.018968
      dx2y2   :     0.011858
      dxy     :     0.003052
      f0      :     0.000955  f :     0.003223
      f+1     :     0.000754
      f-1     :     0.000692
      f+2     :     0.000224
      f-2     :     0.000060
      f+3     :     0.000428
      f-3     :     0.000110

 14 H s       :     0.868166  s :     0.868166
      pz      :     0.004658  p :     0.020920
      px      :     0.005980
      py      :     0.010282

 15 H s       :     0.874036  s :     0.874036
      pz      :     0.012267  p :     0.020764
      px      :     0.004263
      py      :     0.004234

 16 H s       :     0.865968  s :     0.865968
      pz      :     0.005600  p :     0.020942
      px      :     0.006735
      py      :     0.008607

 17 H s       :     0.890187  s :     0.890187
      pz      :     0.012617  p :     0.020837
      px      :     0.004171
      py      :     0.004049

 18 H s       :     0.878296  s :     0.878296
      pz      :     0.004566  p :     0.021017
      px      :     0.005523
      py      :     0.010928

 19 H s       :     0.870385  s :     0.870385
      pz      :     0.005614  p :     0.021744
      px      :     0.006711
      py      :     0.009420

 20 H s       :     0.879486  s :     0.879486
      pz      :     0.012569  p :     0.021281
      px      :     0.004361
      py      :     0.004350

 21 H s       :     0.882574  s :     0.882574
      pz      :     0.012543  p :     0.020915
      px      :     0.004038
      py      :     0.004333

 22 H s       :     0.872797  s :     0.872797
      pz      :     0.005519  p :     0.021149
      px      :     0.006108
      py      :     0.009522

 23 H s       :     0.653647  s :     0.653647
      pz      :     0.016229  p :     0.047587
      px      :     0.019513
      py      :     0.011845

 24 H s       :     0.905773  s :     0.905773
      pz      :     0.005112  p :     0.021748
      px      :     0.004984
      py      :     0.011652

 25 H s       :     0.867221  s :     0.867221
      pz      :     0.004995  p :     0.021185
      px      :     0.004473
      py      :     0.011717

 26 H s       :     0.862370  s :     0.862370
      pz      :     0.012042  p :     0.020871
      px      :     0.004712
      py      :     0.004118

 27 H s       :     0.862796  s :     0.862796
      pz      :     0.004199  p :     0.020944
      px      :     0.012418
      py      :     0.004327

 28 H s       :     0.862499  s :     0.862499
      pz      :     0.005467  p :     0.021215
      px      :     0.004750
      py      :     0.010998

 29 H s       :     0.860929  s :     0.860929
      pz      :     0.004416  p :     0.021072
      px      :     0.012416
      py      :     0.004240

 30 H s       :     0.865050  s :     0.865050
      pz      :     0.007409  p :     0.021305
      px      :     0.005852
      py      :     0.008045


------------------------
MULLIKEN OVERLAP CHARGES
------------------------
B(  0-C ,  1-C ) :   0.6346 B(  0-C ,  2-H ) :  -0.0811 B(  0-C ,  3-C ) :  -0.0937 
B(  0-C ,  9-C ) :  -0.0865 B(  0-C , 14-H ) :   0.8484 B(  0-C , 15-H ) :   0.8105 
B(  0-C , 16-H ) :   0.8457 B(  1-C ,  2-H ) :   0.8636 B(  1-C ,  3-C ) :   0.6375 
B(  1-C ,  4-C ) :  -0.1279 B(  1-C ,  5-C ) :   0.0722 B(  1-C ,  9-C ) :   0.4328 
B(  1-C , 14-H ) :  -0.1027 B(  1-C , 16-H ) :  -0.1029 B(  1-C , 17-H ) :  -0.0607 
B(  1-C , 18-H ) :  -0.0769 B(  1-C , 22-H ) :  -0.0802 B(  2-H ,  3-C ) :  -0.1283 
B(  2-H ,  9-C ) :  -0.1084 B(  3-C ,  4-C ) :   0.6688 B(  3-C ,  5-C ) :  -0.1026 
B(  3-C ,  9-C ) :  -0.0800 B(  3-C , 17-H ) :   0.8015 B(  3-C , 18-H ) :   0.8347 
B(  3-C , 19-H ) :  -0.0591 B(  3-C , 20-H ) :  -0.0604 B(  4-C ,  5-C ) :   0.3936 
B(  4-C ,  6-H ) :  -0.1193 B(  4-C , 17-H ) :  -0.0772 B(  4-C , 18-H ) :  -0.0755 
B(  4-C , 19-H ) :   0.8298 B(  4-C , 20-H ) :   0.8045 B(  5-C ,  6-H ) :   0.7854 
B(  5-C ,  7-C ) :   0.5159 B(  5-C ,  8-H ) :  -0.1959 B(  5-C ,  9-C ) :  -0.0979 
B(  5-C , 10-O ) :  -0.1547 B(  5-C , 11-C ) :   0.3823 B(  5-C , 12-C ) :  -0.1217 
B(  5-C , 19-H ) :  -0.0710 B(  5-C , 20-H ) :  -0.0759 B(  5-C , 24-H ) :  -0.1489 
B(  6-H , 11-C ) :  -0.0958 B(  7-C ,  8-H ) :   0.9562 B(  7-C ,  9-C ) :   0.4981 
B(  7-C , 10-O ) :   0.6920 B(  7-C , 11-C ) :  -0.1128 B(  7-C , 21-H ) :  -0.0755 
B(  7-C , 22-H ) :  -0.0549 B(  7-C , 23-H ) :  -0.0886 B(  8-H ,  9-C ) :  -0.1136 
B(  8-H , 10-O ) :  -0.1022 B(  9-C , 10-O ) :  -0.1568 B(  9-C , 21-H ) :   0.7822 
B(  9-C , 22-H ) :   0.8168 B( 10-O , 23-H ) :   0.6042 B( 11-C , 12-C ) :   0.5682 
B( 11-C , 13-C ) :   0.5223 B( 11-C , 24-H ) :   0.8808 B( 11-C , 26-H ) :  -0.1123 
B( 11-C , 27-H ) :  -0.0895 B( 11-C , 28-H ) :  -0.0549 B( 11-C , 29-H ) :  -0.0942 
B( 11-C , 30-H ) :  -0.0770 B( 12-C , 13-C ) :  -0.1089 B( 12-C , 25-H ) :   0.8311 
B( 12-C , 26-H ) :   0.8352 B( 12-C , 27-H ) :   0.8365 B( 13-C , 24-H ) :  -0.1412 
B( 13-C , 28-H ) :   0.8089 B( 13-C , 29-H ) :   0.8340 B( 13-C , 30-H ) :   0.8307 
B( 14-H , 15-H ) :  -0.0513 B( 25-H , 26-H ) :  -0.0521 


                     *******************************
                     * LOEWDIN POPULATION ANALYSIS *
                     *******************************

----------------------
LOEWDIN ATOMIC CHARGES
----------------------
   0 C :   -0.279629
   1 C :   -0.281627
   2 H :    0.147644
   3 C :   -0.233674
   4 C :   -0.225886
   5 C :   -0.220536
   6 H :    0.157786
   7 C :   -0.305706
   8 H :    0.133859
   9 C :   -0.210067
  10 O :   -0.027572
  11 C :   -0.291039
  12 C :   -0.279648
  13 C :   -0.282053
  14 H :    0.117760
  15 H :    0.119434
  16 H :    0.118670
  17 H :    0.137230
  18 H :    0.133562
  19 H :    0.135863
  20 H :    0.136719
  21 H :    0.142366
  22 H :    0.139210
  23 H :    0.161130
  24 H :    0.144773
  25 H :    0.117078
  26 H :    0.120151
  27 H :    0.118493
  28 H :    0.119864
  29 H :    0.120561
  30 H :    0.115283

-------------------------------
LOEWDIN REDUCED ORBITAL CHARGES
-------------------------------
  0 C s       :     2.824176  s :     2.824176
      pz      :     1.067385  p :     3.164081
      px      :     1.032678
      py      :     1.064019
      dz2     :     0.069199  d :     0.266675
      dxz     :     0.051241
      dyz     :     0.016068
      dx2y2   :     0.041567
      dxy     :     0.088600
      f0      :     0.004092  f :     0.024697
      f+1     :     0.003160
      f-1     :     0.000658
      f+2     :     0.004248
      f-2     :     0.003755
      f+3     :     0.004448
      f-3     :     0.004336

  1 C s       :     2.725401  s :     2.725401
      pz      :     0.987838  p :     2.974108
      px      :     0.990745
      py      :     0.995525
      dz2     :     0.132797  d :     0.528356
      dxz     :     0.067487
      dyz     :     0.069267
      dx2y2   :     0.132980
      dxy     :     0.125824
      f0      :     0.006105  f :     0.053762
      f+1     :     0.005196
      f-1     :     0.005469
      f+2     :     0.008485
      f-2     :     0.007580
      f+3     :     0.007525
      f-3     :     0.013401

  2 H s       :     0.797004  s :     0.797004
      pz      :     0.030441  p :     0.055352
      px      :     0.012295
      py      :     0.012616

  3 C s       :     2.767399  s :     2.767399
      pz      :     1.019844  p :     3.028324
      px      :     1.004542
      py      :     1.003938
      dz2     :     0.108449  d :     0.399410
      dxz     :     0.061859
      dyz     :     0.032975
      dx2y2   :     0.097152
      dxy     :     0.098975
      f0      :     0.004909  f :     0.038541
      f+1     :     0.004475
      f-1     :     0.003229
      f+2     :     0.006804
      f-2     :     0.005118
      f+3     :     0.005939
      f-3     :     0.008067

  4 C s       :     2.762852  s :     2.762852
      pz      :     1.022310  p :     3.031385
      px      :     1.007648
      py      :     1.001427
      dz2     :     0.091632  d :     0.393344
      dxz     :     0.056866
      dyz     :     0.051845
      dx2y2   :     0.084731
      dxy     :     0.108270
      f0      :     0.005444  f :     0.038305
      f+1     :     0.003603
      f-1     :     0.002674
      f+2     :     0.006360
      f-2     :     0.005486
      f+3     :     0.005997
      f-3     :     0.008740

  5 C s       :     2.725338  s :     2.725338
      pz      :     0.985403  p :     2.944186
      px      :     0.968585
      py      :     0.990197
      dz2     :     0.122209  d :     0.500974
      dxz     :     0.064402
      dyz     :     0.070179
      dx2y2   :     0.120256
      dxy     :     0.123928
      f0      :     0.006178  f :     0.050038
      f+1     :     0.004574
      f-1     :     0.005687
      f+2     :     0.007416
      f-2     :     0.006875
      f+3     :     0.007172
      f-3     :     0.012136

  6 H s       :     0.786550  s :     0.786550
      pz      :     0.030896  p :     0.055664
      px      :     0.012315
      py      :     0.012454

  7 C s       :     2.746167  s :     2.746167
      pz      :     0.999372  p :     2.834366
      px      :     0.996801
      py      :     0.838193
      dz2     :     0.148460  d :     0.643812
      dxz     :     0.073356
      dyz     :     0.111189
      dx2y2   :     0.173017
      dxy     :     0.137790
      f0      :     0.008716  f :     0.081361
      f+1     :     0.005731
      f-1     :     0.009436
      f+2     :     0.013291
      f-2     :     0.011522
      f+3     :     0.012559
      f-3     :     0.020107

  8 H s       :     0.810430  s :     0.810430
      pz      :     0.033710  p :     0.055711
      px      :     0.012525
      py      :     0.009476

  9 C s       :     2.766971  s :     2.766971
      pz      :     1.022415  p :     3.019338
      px      :     0.995065
      py      :     1.001858
      dz2     :     0.089540  d :     0.385728
      dxz     :     0.056674
      dyz     :     0.053768
      dx2y2   :     0.089876
      dxy     :     0.095870
      f0      :     0.005484  f :     0.038029
      f+1     :     0.003858
      f-1     :     0.002540
      f+2     :     0.006299
      f-2     :     0.005320
      f+3     :     0.006308
      f-3     :     0.008219

 10 O s       :     3.366472  s :     3.366472
      pz      :     1.722598  p :     4.592862
      px      :     1.389924
      py      :     1.480339
      dz2     :     0.006930  d :     0.064168
      dxz     :     0.008767
      dyz     :     0.011868
      dx2y2   :     0.025421
      dxy     :     0.011183
      f0      :     0.000418  f :     0.004070
      f+1     :     0.000117
      f-1     :     0.000510
      f+2     :     0.001086
      f-2     :     0.000269
      f+3     :     0.001043
      f-3     :     0.000627

 11 C s       :     2.728987  s :     2.728987
      pz      :     1.006608  p :     2.988380
      px      :     0.984522
      py      :     0.997250
      dz2     :     0.120504  d :     0.521351
      dxz     :     0.114140
      dyz     :     0.091447
      dx2y2   :     0.112772
      dxy     :     0.082487
      f0      :     0.007817  f :     0.052322
      f+1     :     0.008735
      f-1     :     0.008339
      f+2     :     0.008550
      f-2     :     0.005975
      f+3     :     0.005583
      f-3     :     0.007324

 12 C s       :     2.823932  s :     2.823932
      pz      :     1.052353  p :     3.164123
      px      :     1.055337
      py      :     1.056433
      dz2     :     0.085021  d :     0.266960
      dxz     :     0.024690
      dyz     :     0.036310
      dx2y2   :     0.092746
      dxy     :     0.028194
      f0      :     0.002687  f :     0.024632
      f+1     :     0.004214
      f-1     :     0.003055
      f+2     :     0.004171
      f-2     :     0.003510
      f+3     :     0.003127
      f-3     :     0.003868

 13 C s       :     2.821468  s :     2.821468
      pz      :     1.040079  p :     3.169208
      px      :     1.061568
      py      :     1.067560
      dz2     :     0.060291  d :     0.266793
      dxz     :     0.053033
      dyz     :     0.086017
      dx2y2   :     0.052698
      dxy     :     0.014753
      f0      :     0.005245  f :     0.024585
      f+1     :     0.005692
      f-1     :     0.004578
      f+2     :     0.001992
      f-2     :     0.003804
      f+3     :     0.002390
      f-3     :     0.000884

 14 H s       :     0.822364  s :     0.822364
      pz      :     0.014509  p :     0.059875
      px      :     0.016079
      py      :     0.029288

 15 H s       :     0.820786  s :     0.820786
      pz      :     0.034044  p :     0.059779
      px      :     0.012514
      py      :     0.013222

 16 H s       :     0.821393  s :     0.821393
      pz      :     0.017101  p :     0.059937
      px      :     0.017871
      py      :     0.024965

 17 H s       :     0.805557  s :     0.805557
      pz      :     0.032294  p :     0.057212
      px      :     0.012353
      py      :     0.012566

 18 H s       :     0.808783  s :     0.808783
      pz      :     0.014468  p :     0.057655
      px      :     0.015341
      py      :     0.027846

 19 H s       :     0.805280  s :     0.805280
      pz      :     0.017193  p :     0.058857
      px      :     0.017864
      py      :     0.023800

 20 H s       :     0.805173  s :     0.805173
      pz      :     0.032297  p :     0.058108
      px      :     0.012920
      py      :     0.012891

 21 H s       :     0.800132  s :     0.800132
      pz      :     0.032662  p :     0.057502
      px      :     0.012113
      py      :     0.012727

 22 H s       :     0.802857  s :     0.802857
      pz      :     0.016904  p :     0.057933
      px      :     0.016703
      py      :     0.024326

 23 H s       :     0.680849  s :     0.680849
      pz      :     0.051203  p :     0.158021
      px      :     0.074214
      py      :     0.032604

 24 H s       :     0.798724  s :     0.798724
      pz      :     0.014610  p :     0.056504
      px      :     0.014208
      py      :     0.027686

 25 H s       :     0.822377  s :     0.822377
      pz      :     0.015496  p :     0.060545
      px      :     0.013791
      py      :     0.031259

 26 H s       :     0.819867  s :     0.819867
      pz      :     0.032399  p :     0.059982
      px      :     0.014744
      py      :     0.012839

 27 H s       :     0.821448  s :     0.821448
      pz      :     0.012926  p :     0.060059
      px      :     0.033422
      py      :     0.013711

 28 H s       :     0.819508  s :     0.819508
      pz      :     0.015186  p :     0.060628
      px      :     0.014638
      py      :     0.030804

 29 H s       :     0.819318  s :     0.819318
      pz      :     0.012813  p :     0.060121
      px      :     0.033939
      py      :     0.013369

 30 H s       :     0.824033  s :     0.824033
      pz      :     0.019555  p :     0.060684
      px      :     0.017747
      py      :     0.023383


---------------------------------
LOEWDIN BOND ORDERS (THRESH 0.050000)
---------------------------------
B(  0-C ,  1-C ) :   1.2214 B(  0-C ,  2-H ) :   0.0714 B(  0-C ,  3-C ) :   0.1452 
B(  0-C ,  9-C ) :   0.1470 B(  0-C , 14-H ) :   0.9032 B(  0-C , 15-H ) :   0.8997 
B(  0-C , 16-H ) :   0.9031 B(  1-C ,  2-H ) :   0.7905 B(  1-C ,  3-C ) :   1.1429 
B(  1-C ,  4-C ) :   0.1362 B(  1-C ,  7-C ) :   0.1358 B(  1-C ,  9-C ) :   1.1346 
B(  1-C , 14-H ) :   0.0777 B(  1-C , 15-H ) :   0.0771 B(  1-C , 16-H ) :   0.0775 
B(  1-C , 17-H ) :   0.0727 B(  1-C , 18-H ) :   0.0746 B(  1-C , 21-H ) :   0.0719 
B(  1-C , 22-H ) :   0.0739 B(  2-H ,  3-C ) :   0.0706 B(  2-H ,  9-C ) :   0.0703 
B(  3-C ,  4-C ) :   1.1976 B(  3-C ,  5-C ) :   0.1359 B(  3-C ,  9-C ) :   0.1352 
B(  3-C , 17-H ) :   0.8358 B(  3-C , 18-H ) :   0.8451 B(  3-C , 19-H ) :   0.0764 
B(  3-C , 20-H ) :   0.0733 B(  4-C ,  5-C ) :   1.1219 B(  4-C ,  6-H ) :   0.0685 
B(  4-C ,  7-C ) :   0.1386 B(  4-C , 11-C ) :   0.1206 B(  4-C , 17-H ) :   0.0731 
B(  4-C , 18-H ) :   0.0757 B(  4-C , 19-H ) :   0.8374 B(  4-C , 20-H ) :   0.8336 
B(  5-C ,  6-H ) :   0.7743 B(  5-C ,  7-C ) :   1.0946 B(  5-C ,  8-H ) :   0.0706 
B(  5-C ,  9-C ) :   0.1343 B(  5-C , 10-O ) :   0.1044 B(  5-C , 11-C ) :   1.0834 
B(  5-C , 12-C ) :   0.1368 B(  5-C , 13-C ) :   0.1245 B(  5-C , 19-H ) :   0.0727 
B(  5-C , 20-H ) :   0.0708 B(  5-C , 24-H ) :   0.0730 B(  6-H ,  7-C ) :   0.0717 
B(  6-H , 11-C ) :   0.0719 B(  7-C ,  8-H ) :   0.8130 B(  7-C ,  9-C ) :   1.1601 
B(  7-C , 10-O ) :   1.4718 B(  7-C , 11-C ) :   0.1244 B(  7-C , 21-H ) :   0.0764 
B(  7-C , 22-H ) :   0.0786 B(  7-C , 23-H ) :   0.0914 B(  8-H ,  9-C ) :   0.0732 
B(  9-C , 10-O ) :   0.1186 B(  9-C , 21-H ) :   0.8281 B(  9-C , 22-H ) :   0.8373 
B( 10-O , 23-H ) :   1.0310 B( 11-C , 12-C ) :   1.2108 B( 11-C , 13-C ) :   1.2136 
B( 11-C , 24-H ) :   0.7878 B( 11-C , 25-H ) :   0.0744 B( 11-C , 26-H ) :   0.0755 
B( 11-C , 27-H ) :   0.0783 B( 11-C , 28-H ) :   0.0746 B( 11-C , 29-H ) :   0.0789 
B( 11-C , 30-H ) :   0.0755 B( 12-C , 13-C ) :   0.1501 B( 12-C , 24-H ) :   0.0739 
B( 12-C , 25-H ) :   0.8989 B( 12-C , 26-H ) :   0.9009 B( 12-C , 27-H ) :   0.9019 
B( 13-C , 24-H ) :   0.0721 B( 13-C , 28-H ) :   0.8981 B( 13-C , 29-H ) :   0.8992 
B( 13-C , 30-H ) :   0.8989 

------------------------------------------
LOEWDIN REDUCED ORBITAL POPULATIONS PER MO
-------------------------------------------
THRESHOLD FOR PRINTING IS 0.1%%
                      0         1         2         3         4         5   
                 -21.66464 -12.08963 -12.05207 -12.04595 -12.04338 -12.03980
                   2.00000   2.00000   2.00000   2.00000   2.00000   2.00000
                  --------  --------  --------  --------  --------  --------
 0 C  s               0.0       0.0       0.0       0.2       0.0       0.0
 1 C  s               0.0       0.0       0.0      98.4       0.1       0.0
 3 C  s               0.0       0.0       0.0       0.5       0.0       7.8
 4 C  s               0.0       0.0       0.0       0.0       2.4      89.3
 5 C  s               0.0       0.0       0.4       0.1      96.3       2.3
 7 C  s               0.0      99.3       0.0       0.0       0.0       0.0
 9 C  s               0.0       0.0       0.0       0.2       0.0       0.0
10 O  s              99.9       0.0       0.0       0.0       0.0       0.0
11 C  s               0.0       0.0      98.6       0.0       0.4       0.0
12 C  s               0.0       0.0       0.1       0.0       0.0       0.0
13 C  s               0.0       0.0       0.2       0.0       0.1       0.0
13 C  dz2             0.0       0.0       0.1       0.0       0.0       0.0

                      6         7         8         9        10        11   
                 -12.03784 -12.03762 -12.03481 -12.03295 -12.03147  -1.66246
                   2.00000   2.00000   2.00000   2.00000   2.00000   2.00000
                  --------  --------  --------  --------  --------  --------
 0 C  s               0.0       0.1       0.0       1.3      98.0       0.0
 1 C  s               0.0       0.4       0.0       0.2       0.2       0.0
 3 C  s               0.6      90.4       0.0       0.1       0.1       0.0
 4 C  s               0.0       7.6       0.0       0.0       0.0       0.0
 5 C  s               0.1       0.2       0.0       0.0       0.0       0.3
 5 C  py              0.0       0.0       0.0       0.0       0.0       1.0
 5 C  dx2y2           0.0       0.0       0.0       0.0       0.0       0.1
 7 C  s               0.0       0.0       0.0       0.0       0.0       5.7
 7 C  pz              0.0       0.0       0.0       0.0       0.0       0.7
 7 C  px              0.0       0.0       0.0       0.1       0.0       1.3
 7 C  py              0.0       0.0       0.0       0.0       0.0       7.8
 7 C  dz2             0.0       0.0       0.0       0.0       0.0       0.7
 7 C  dyz             0.0       0.0       0.0       0.0       0.0       0.6
 7 C  dx2y2           0.0       0.0       0.0       0.1       0.0       1.4
 7 C  dxy             0.0       0.0       0.0       0.0       0.0       1.3
 7 C  f+3             0.0       0.0       0.0       0.0       0.0       0.3
 8 H  s               0.0       0.0       0.0       0.0       0.0       0.6
 9 C  s               0.0       0.1       0.0      97.9       1.2       0.3
 9 C  px              0.0       0.0       0.0       0.0       0.0       1.0
 9 C  py              0.0       0.0       0.0       0.0       0.0       0.2
 9 C  dxy             0.0       0.0       0.0       0.0       0.0       0.1
10 O  s               0.0       0.0       0.0       0.0       0.0      58.8
10 O  pz              0.0       0.0       0.0       0.0       0.0       0.3
10 O  px              0.0       0.0       0.0       0.0       0.0       0.2
10 O  py              0.0       0.0       0.0       0.0       0.0       0.5
11 C  s               0.2       0.0       0.1       0.0       0.0       0.0
11 C  px              0.0       0.0       0.0       0.0       0.0       0.1
11 C  dz2             0.1       0.0       0.0       0.0       0.0       0.0
12 C  s               0.3       0.0      99.1       0.0       0.0       0.0
13 C  s              98.4       0.6       0.3       0.0       0.0       0.0
23 H  s               0.0       0.0       0.0       0.0       0.0      12.0
23 H  pz              0.0       0.0       0.0       0.0       0.0       0.4
23 H  px              0.0       0.0       0.0       0.0       0.0       2.7

                     12        13        14        15        16        17   
                  -1.35340  -1.31158  -1.25668  -1.25074  -1.17911  -1.17382
                   2.00000   2.00000   2.00000   2.00000   2.00000   2.00000
                  --------  --------  --------  --------  --------  --------
 0 C  s               1.9       4.0       7.7       0.9       0.4      18.0
 0 C  px              1.4       1.7       1.1       0.1       0.0       0.4
 0 C  py              0.0       0.0       0.0       0.2       0.0       0.0
 0 C  dx2y2           0.2       0.2       0.2       0.0       0.0       0.0
 1 C  s               8.4      10.0       6.6       0.6       0.0       0.0
 1 C  pz              0.5       0.4       0.2       0.0       0.0       0.0
 1 C  px              0.8       0.0       2.4       0.5       0.2      11.0
 1 C  py              0.0       0.0       0.8       6.0       0.0       0.0
 1 C  dz2             0.2       0.1       0.0       0.0       0.0       0.0
 1 C  dxz             0.0       0.0       0.1       0.1       0.0       0.5
 1 C  dyz             0.0       0.0       0.0       0.2       0.0       0.0
 1 C  dx2y2           0.0       0.0       0.1       0.0       0.0       1.4
 1 C  dxy             0.0       0.0       0.1       1.1       0.0       0.0
 2 H  s               1.3       1.7       1.3       0.1       0.0       0.0
 2 H  pz              0.1       0.2       0.1       0.0       0.0       0.0
 3 C  s               7.3       3.4       1.7       9.9       0.2       4.4
 3 C  pz              0.4       0.2       0.1       0.0       0.0       0.0
 3 C  px              0.3       0.9       2.3       3.7       0.0       0.2
 3 C  py              1.4       0.9       0.3       0.5       0.0       0.0
 3 C  dz2             0.2       0.0       0.0       0.0       0.0       0.0
 3 C  dx2y2           0.0       0.0       0.0       0.7       0.0       0.2
 3 C  dxy             0.0       0.2       0.3       0.0       0.0       0.0
 4 C  s               8.3       0.0       0.9      15.8       0.0       0.0
 4 C  pz              0.2       0.0       0.0       0.2       0.1       0.0
 4 C  px              0.2       2.6       0.6       1.1       0.2       3.1
 4 C  py              1.9       0.4       0.9       0.2       0.0       1.3
 4 C  dz2             0.3       0.0       0.0       0.0       0.0       0.0
 4 C  dx2y2           0.0       0.2       0.5       0.2       0.0       0.6
 4 C  dxy             0.1       0.2       0.0       0.0       0.0       0.1
 5 C  s              11.7       4.5       4.1       0.7       0.3       6.2
 5 C  pz              0.6       0.1       0.2       0.0       0.7       0.0
 5 C  px              0.2       4.5       3.6       0.4       0.1       0.1
 5 C  py              0.1       0.0       0.4       5.6       0.1       0.1
 5 C  dz2             0.3       0.1       0.0       0.0       0.0       0.0
 5 C  dxz             0.1       0.1       0.2       0.0       0.2       0.0
 5 C  dyz             0.0       0.0       0.1       0.2       0.0       0.0
 5 C  dx2y2           0.0       0.2       0.4       0.3       0.0       0.1
 5 C  dxy             0.0       0.0       0.1       1.1       0.0       0.0
 6 H  s               1.9       0.8       0.8       0.1       0.2       1.6
 6 H  pz              0.2       0.1       0.1       0.0       0.0       0.2
 7 C  s               6.8       0.0       9.1       5.0       0.0       0.0
 7 C  pz              0.4       0.0       0.2       0.0       0.1       0.1
 7 C  px              0.3       3.1       0.0       2.7       0.0       4.4
 7 C  py              3.0       0.2       0.8       0.3       0.0       1.1
 7 C  dxz             0.0       0.1       0.0       0.1       0.0       0.2
 7 C  dyz             0.2       0.0       0.1       0.0       0.0       0.1
 7 C  dx2y2           0.1       0.1       0.0       0.8       0.0       0.2
 7 C  dxy             0.2       0.2       0.3       0.0       0.0       0.2
 8 H  s               1.1       0.0       1.7       1.0       0.0       0.0
[...]
 7 C  f-3             0.5       0.0       0.1       0.2       0.0       0.4
 8 H  s               0.0       0.2       0.1       0.1       0.0       0.0
 9 C  s               0.1       0.0       0.0       0.0       0.2       0.1
 9 C  px              0.3       0.0       0.1       0.0       0.1       0.1
 9 C  py              0.1       0.0       0.1       0.0       0.1       0.1
 9 C  dxy             0.2       0.0       0.0       0.0       0.0       0.1
 9 C  f-3             0.1       0.0       0.0       0.0       0.0       0.0
10 O  s               3.9       0.1       2.1       0.2       2.0       4.1
10 O  pz              0.6       0.0       1.1       0.4       0.0       0.4
10 O  px              2.1       0.0       2.0       0.6       1.0       1.8
10 O  py              0.1       0.0       0.4       0.2       2.3       0.1
10 O  dz2            16.2      42.2       1.1      10.3      16.6       3.9
10 O  dxz            24.1      27.1      14.9      14.1       2.9       7.3
10 O  dyz             2.5       0.0      45.1      32.5       2.9       2.3
10 O  dx2y2           7.9       6.9       2.4      15.6      21.1      29.3
10 O  dxy             2.2      16.5      13.5       7.6      35.8      11.6
10 O  f0              4.0       0.2       5.6       0.4       0.1       3.3
10 O  f+1             1.4       2.3       0.3       0.1       0.2       0.1
10 O  f-1             0.1       0.2       0.1       3.4       1.6       0.1
10 O  f+2             5.5       0.2       0.2       2.6       1.5      11.0
10 O  f-2             4.4       0.0       0.0       1.5       1.1       0.6
10 O  f+3            10.0       0.0       2.0       0.0       2.1      12.4
10 O  f-3             4.0       0.3       2.5       4.4       0.8       0.0
23 H  s               4.2       0.0       2.1       0.2       0.1       7.9
23 H  pz              0.4       0.3       0.0       0.0       0.0       0.1
23 H  px              1.6       0.1       0.3       0.0       0.0       0.5
23 H  py              0.0       0.0       0.1       0.0       0.1       0.0

                    450       451       452       453       454       455   
                  20.78095  20.78850  20.79500  20.90416  20.92917  20.96557
                   0.00000   0.00000   0.00000   0.00000   0.00000   0.00000
                  --------  --------  --------  --------  --------  --------
 0 C  s              15.1      76.9       0.0       4.1       1.6       0.1
 1 C  s               1.3       0.5       0.0       6.4      13.3       2.1
 3 C  s               0.7       1.3       0.7      47.8       0.1      35.3
 4 C  s               5.7       0.0       2.5       0.8      53.8       2.4
 5 C  s               0.5       0.1       0.2       3.9       0.2       0.1
 7 C  s               3.0       0.0       0.4       0.0      16.8      19.2
 9 C  s               0.2       1.8       1.2      35.1       2.1      35.2
11 C  s               0.1       0.1       0.0       0.0       1.7       0.6
12 C  s               2.8       1.2      88.0       0.1       2.8       2.7
13 C  s              69.0      16.6       5.3       0.1       6.3       0.3
14 H  s               0.0       0.2       0.0       0.0       0.0       0.0
15 H  s               0.0       0.2       0.0       0.0       0.0       0.0
16 H  s               0.0       0.2       0.0       0.0       0.0       0.0
17 H  s               0.0       0.0       0.0       0.1       0.0       0.1
18 H  s               0.0       0.0       0.0       0.2       0.0       0.1
19 H  s               0.0       0.0       0.0       0.0       0.2       0.0
20 H  s               0.0       0.0       0.0       0.0       0.1       0.0
21 H  s               0.0       0.0       0.0       0.1       0.0       0.1
22 H  s               0.0       0.0       0.0       0.1       0.0       0.1
25 H  s               0.0       0.0       0.2       0.0       0.0       0.0
26 H  s               0.0       0.0       0.2       0.0       0.0       0.0
27 H  s               0.0       0.0       0.2       0.0       0.0       0.0
27 H  px              0.0       0.0       0.1       0.0       0.0       0.0
28 H  s               0.2       0.0       0.0       0.0       0.0       0.0
29 H  s               0.1       0.0       0.0       0.0       0.0       0.0
30 H  s               0.2       0.0       0.0       0.0       0.0       0.0

                    456       457       458       459       460   
                  21.05273  21.06893  21.11590  21.20909  41.64544
                   0.00000   0.00000   0.00000   0.00000   0.00000
                  --------  --------  --------  --------  --------
 0 C  s               0.0       0.2       0.1       0.1       0.0
 1 C  s              44.3       3.7       1.3      26.0       0.0
 2 H  s               0.2       0.0       0.0       0.1       0.0
 3 C  s               0.0       1.9       5.0       5.7       0.0
 4 C  s              10.6       0.5      20.3       1.9       0.0
 5 C  s              29.5       4.9       6.2      53.2       0.0
 6 H  s               0.1       0.0       0.0       0.2       0.0
 7 C  s               0.6       2.4      48.5       7.1       0.1
 8 H  s               0.0       0.0       0.2       0.0       0.0
 9 C  s               2.9       3.0      13.6       3.4       0.0
10 O  s               0.0       0.0       0.0       0.0      99.7
11 C  s              10.0      82.2       2.8       1.2       0.0
12 C  s               0.0       0.1       0.4       0.1       0.0
13 C  s               0.5       0.1       0.3       0.1       0.0
24 H  s               0.1       0.3       0.0       0.0       0.0


                      *****************************
                      * MAYER POPULATION ANALYSIS *
                      *****************************

  NA   - Mulliken gross atomic population
  ZA   - Total nuclear charge
  QA   - Mulliken gross atomic charge
  VA   - Mayer's total valence
  BVA  - Mayer's bonded valence
  FA   - Mayer's free valence

  ATOM       NA         ZA         QA         VA         BVA        FA
  0 C      6.3417     6.0000    -0.3417     3.9180     3.9180    -0.0000
  1 C      6.0317     6.0000    -0.0317     3.9116     3.9116     0.0000
  2 H      0.9367     1.0000     0.0633     0.9684     0.9684    -0.0000
  3 C      6.1936     6.0000    -0.1936     3.9506     3.9506     0.0000
  4 C      6.2447     6.0000    -0.2447     3.9712     3.9712     0.0000
  5 C      6.0035     6.0000    -0.0035     3.7276     3.7276     0.0000
  6 H      0.9300     1.0000     0.0700     0.9841     0.9841     0.0000
  7 C      5.9589     6.0000     0.0411     4.0936     4.0936     0.0000
  8 H      0.9164     1.0000     0.0836     0.9607     0.9607     0.0000
  9 C      6.2067     6.0000    -0.2067     3.8922     3.8922     0.0000
 10 O      8.4345     8.0000    -0.4345     1.9933     1.9933     0.0000
 11 C      6.0285     6.0000    -0.0285     3.8332     3.8332     0.0000
 12 C      6.3857     6.0000    -0.3857     3.9554     3.9554     0.0000
 13 C      6.3797     6.0000    -0.3797     3.8979     3.8979     0.0000
 14 H      0.8891     1.0000     0.1109     0.9744     0.9744     0.0000
 15 H      0.8948     1.0000     0.1052     0.9795     0.9795    -0.0000
 16 H      0.8869     1.0000     0.1131     0.9752     0.9752    -0.0000
 17 H      0.9110     1.0000     0.0890     0.9821     0.9821     0.0000
 18 H      0.8993     1.0000     0.1007     0.9740     0.9740     0.0000
 19 H      0.8921     1.0000     0.1079     0.9703     0.9703     0.0000
 20 H      0.9008     1.0000     0.0992     0.9730     0.9730     0.0000
 21 H      0.9035     1.0000     0.0965     0.9924     0.9924     0.0000
 22 H      0.8939     1.0000     0.1061     0.9869     0.9869     0.0000
 23 H      0.7012     1.0000     0.2988     0.9273     0.9273    -0.0000
 24 H      0.9275     1.0000     0.0725     0.9813     0.9813     0.0000
 25 H      0.8884     1.0000     0.1116     0.9726     0.9726    -0.0000
 26 H      0.8832     1.0000     0.1168     0.9738     0.9738     0.0000
 27 H      0.8837     1.0000     0.1163     0.9750     0.9750     0.0000
 28 H      0.8837     1.0000     0.1163     0.9722     0.9722     0.0000
 29 H      0.8820     1.0000     0.1180     0.9754     0.9754     0.0000
 30 H      0.8864     1.0000     0.1136     0.9718     0.9718     0.0000

  Mayer bond orders larger than 0.100000
B(  0-C ,  1-C ) :   0.9732 B(  0-C , 14-H ) :   0.9870 B(  0-C , 15-H ) :   0.9748 
B(  0-C , 16-H ) :   0.9864 B(  1-C ,  2-H ) :   0.9709 B(  1-C ,  3-C ) :   0.9792 
B(  1-C ,  9-C ) :   0.9772 B(  3-C ,  4-C ) :   1.0101 B(  3-C , 17-H ) :   0.9660 
B(  3-C , 18-H ) :   0.9746 B(  4-C ,  5-C ) :   0.9419 B(  4-C , 19-H ) :   0.9732 
B(  4-C , 20-H ) :   0.9661 B(  5-C ,  6-H ) :   0.9584 B(  5-C ,  7-C ) :   0.9447 
B(  5-C , 11-C ) :   0.9229 B(  7-C ,  8-H ) :   0.9940 B(  7-C ,  9-C ) :   0.9856 
B(  7-C , 10-O ) :   1.0815 B(  9-C , 21-H ) :   0.9658 B(  9-C , 22-H ) :   0.9722 
B( 10-O , 23-H ) :   0.9046 B( 11-C , 12-C ) :   0.9769 B( 11-C , 13-C ) :   0.9484 
B( 11-C , 24-H ) :   0.9834 B( 12-C , 25-H ) :   0.9802 B( 12-C , 26-H ) :   0.9836 
B( 12-C , 27-H ) :   0.9846 B( 13-C , 28-H ) :   0.9764 B( 13-C , 29-H ) :   0.9835 
B( 13-C , 30-H ) :   0.9809 

-------
TIMINGS
-------

Total SCF time: 0 days 0 hours 5 min 47 sec 

Total time                  ....     347.206 sec
Sum of individual times     ....     341.104 sec  ( 98.2%)

SCF preparation             ....       0.314 sec  (  0.1%)
Fock matrix formation       ....     338.533 sec  ( 97.5%)
  Startup                   ....       0.088 sec  (  0.0% of F)
  Split-RI-J                ....      13.944 sec  (  4.1% of F)
  Chain of spheres X        ....     300.619 sec  ( 88.8% of F)
  XC integration            ....      28.748 sec  (  8.5% of F)
    XC Preparation          ....       0.000 sec  (  0.0% of XC)
    Basis function eval.    ....       6.045 sec  ( 21.0% of XC)
    Density eval.           ....       6.278 sec  ( 21.8% of XC)
    XC-Functional eval.     ....       6.377 sec  ( 22.2% of XC)
    XC-Potential eval.      ....       9.265 sec  ( 32.2% of XC)
Diagonalization             ....       0.000 sec  (  0.0%)
Density matrix formation    ....       0.245 sec  (  0.1%)
Total Energy calculation    ....       0.073 sec  (  0.0%)
Population analysis         ....       0.364 sec  (  0.1%)
Orbital Transformation      ....       0.160 sec  (  0.0%)
Orbital Orthonormalization  ....       0.000 sec  (  0.0%)
DIIS solution               ....       0.699 sec  (  0.2%)
  MO trafo                  ....       0.000 sec  (  0.0 % of DIIS)
  Orb grad                  ....       0.000 sec  (  0.0 % of DIIS)
  Energy W gradient         ....       0.000 sec  (  0.0 % of DIIS)
  DIIS error                ....       0.038 sec  (  5.5 % of DIIS)
  DIIS work                 ....       0.557 sec  ( 79.7 % of DIIS)
  Form Q                    ....       0.000 sec  (  0.0 % of DIIS)
  Form QpQm                 ....       0.000 sec  (  0.0 % of DIIS)
  Exp/Cayley                ....       0.000 sec  (  0.0 % of DIIS)
  Orb update                ....       0.000 sec  (  0.0 % of DIIS)
  Wake-sleep                ....       0.024 sec  (  3.5 % of DIIS)
SOSCF solution              ....       0.311 sec  (  0.1%)
  MO trafo                  ....       0.150 sec  ( 48.1 % of SOSCF)
  Orb grad                  ....       0.003 sec  (  1.1 % of SOSCF)
  Rot update                ....       0.032 sec  ( 10.4 % of SOSCF)
  Step                      ....       0.126 sec  ( 40.4 % of SOSCF)
Grid generation             ....       0.404 sec  (  0.1%)
Finished LeanSCF after 347.3 sec

Maximum memory used throughout the entire LEANSCF-calculation: 79.6 MB
------------------   -----------------
gCP correction             0.022931599
------------------   -----------------

-------------------------   --------------------
FINAL SINGLE POINT ENERGY      -468.378066281657
-------------------------   --------------------


------------------------------------------------------------------------------
                              ORCA PROPERTY CALCULATIONS
------------------------------------------------------------------------------

GBWName                                 ... sp_gas.gbw
Number of atoms                         ...     31
Number of basis functions               ...    461
Max core memory                         ...   1024 MB

Electric properties:
Dipole moment                           ... YES
Quadrupole moment                       ...  NO
Static polarizability (Dipole/Dipole)   ...  NO
Static polarizability (Dipole/Quad.)    ...  NO
Static polarizability (Quad./Quad.)     ...  NO
Static polarizability (Velocity)        ...  NO

Atomic electric properties:
Dipole moment                           ...  NO
Quadrupole moment                       ...  NO
Static polarizability                   ...  NO

Choice of electric origin               ... Center of mass
Position of electric origin             ...    -0.002384    -0.002072    -0.014141

General magnetic properties:
Magnetizability                         ...  NO

EPR properties:
g-Tensor (aka g-matrix)                 ...  NO
Zero-Field splitting spin-orbit         ...  NO
Zero-field splitting spin-spin          ...  NO
Hyperfine couplings                     ...  NO (   0 nuclei)
Quadrupole couplings                    ...  NO (   0 nuclei)
Contact density                         ...  NO (   0 nuclei)

NMR properties:
Chemical shifts                         ...  NO (   0 nuclei)
Spin-rotation constants                 ...  NO (   0 nuclei)
Spin-spin couplings                     ...  NO (   0 nuclei,    0 pairs)

Choice of magnetic origin               ... GIAO
Position of magnetic origin             ...     0.000000     0.000000     0.000000

Properties with geometric perturbations:
SCF Hessian                             ...  NO
IR spectrum                             ...  NO
VCD spectrum                            ...  NO
X-ray spectroscopy properties:
SCF XES/XAS/RIXS spectra                ...  NO


-------------
DIPOLE MOMENT
-------------

Method             : SCF
Type of density    : Electron Density
Multiplicity       :   1
Irrep              :   0
Energy             :  -468.4009978810572647 Eh
Relativity type    : 
Basis              : AO
                                X                 Y                 Z
Electronic contribution:      0.663184694      -5.035915021       0.303067955
Nuclear contribution   :     -0.974608980       5.542498216      -0.608261822
                        -----------------------------------------
Total Dipole Moment    :     -0.311424286       0.506583195      -0.305193867
                        -----------------------------------------
Magnitude (a.u.)       :      0.668397274
Magnitude (Debye)      :      1.698930855



--------------------
Rotational spectrum 
--------------------
 
Rotational constants in cm-1:             0.059044             0.023242             0.019070 
Rotational constants in MHz :          1770.084849           696.766477           571.715783 

Dipole components along the rotational axes: 
x,y,z [a.u.] :    -0.313724     0.462677    -0.366418 
x,y,z [Debye]:    -0.797423     1.176031    -0.931361 

 

Dipole moment calculation done in   0.1 sec 

Maximum memory used throughout the entire PROP-calculation: 49.2 MB

--------------------------------
SUGGESTED CITATIONS FOR THIS RUN
--------------------------------

Below you find a list of papers that are relevant to this ORCA run
We neither can nor want to force you to cite these papers, but we appreciate if you do
You receive ORCA, which is the product of decades of hard work by many enthusiastic individuals, for free
The only thing we kindly ask in return is that you cite our papers,
We deeply appreciate it, if you show your appreciation for ORCA by not just citing the generic ORCA reference.

Please note that relegating all ORCA citations to the supporting information does *not* help us.
SI sections are not indexed - citations you put there will not count into any citation statistics
But we need these citations in order to attract the funding resources that allow us to do what we are doing

Therefore, if you are a happy ORCA user, please consider citing a few of the papers listed below in the main body of your paper

In addition to the list printed below, the program has created the file sp_gas.bibtex that contains the list in bibtex format
You can import this file easily into all common literature databanks and citation aid programs


List of essential papers. We consider these as the minimum necessary citations

  1. Neese,F.
     Software update: the ORCA program system, version 5.0
     WIRES Comput. Molec. Sci., 2022 12(1)e1606
     doi.org/10.1002/wcms.1606

List of papers to cite with high priority. The work reported in these papers was absolutely
necessary for this run to complete.
Our perspective: the developers of density functionals and basis sets usually get cited in chemistry papers
Good! But without the algorithms to do something with them, the functionals or basis sets would not do anything.
Hence, in our opinion, the algorithm design and method developments papers are equally worthy of getting cited

  1. Neese,F.
     An improvement of the resolution of the identity approximation for the formation of the Coulomb matrix
     J. Comp. Chem., 2003 24(14)1740-1747
     doi.org/10.1002/jcc.10318
  2. Neese,F.; Wennmohs,F.; Hansen,A.; Becker,U.
     Efficient, approximate and parallel Hartree-Fock and hybrid DFT calculations. A 'chain-of-spheres' algorithm for the Hartree-Fock exchange
     Chem. Phys., 2009 356(1-3)98-109
     doi.org/10.1016/j.chemphys.2008.10.036
  3. Helmich-Paris,B.; de Souza,B.; Neese,F.; Izsák,R.
     An improved chain of spheres for exchange algorithm
     J. Chem. Phys., 2021 155 104109
     doi.org/doi: 10.1063/5.0058766.
  4. Neese,F.
     The SHARK Integral Generation and Digestion System
     J. Comp. Chem., 2022  1-16
     doi.org/10.1002/jcc.26942

List of suggested additional citations. These are papers that are important in the 'surrounding' of 
of this run, or papers that preceded the highly important papers. If you like your results we are grateful for a citation.

  1. Izsak,R.; Neese,F.
     An overlap fitted chain of spheres exchange method
     J. Chem. Phys., 2011 135 144105
     doi.org/10.1063/1.3646921
  2. Izsak,R.; Hansen,A.; Neese,F.
     The resolution of identity and chain of spheres approximations for the LPNO-CCSD singles Fock term
     Molec. Phys., 2012 110 2413-2417
     doi.org/10.1080/00268976.2012.687466
  3. Neese,F.
     The ORCA program system
     WIRES Comput. Molec. Sci., 2012 2(1)73-78
     doi.org/10.1002/wcms.81
  4. Izsak,R.; Neese,F.; Klopper,W.
     Robust fitting techniques in the chain of spheres approximation to the Fock exchange: The role of the complementary space
     J. Chem. Phys., 2013 139 
     doi.org/10.1063/1.4819264
  5. Neese,F.
     Software update: the ORCA program system, version 4.0
     WIRES Comput. Molec. Sci., 2018 8(1)1-6
     doi.org/10.1002/wcms.1327
  6. Neese,F.; Wennmohs,F.; Becker,U.; Riplinger,C.
     The ORCA quantum chemistry program package
     J. Chem. Phys., 2020 152 Art. No. L224108
     doi.org/10.1063/5.0004608

List of optional additional citations

  1. Neese,F.
     Approximate second-order SCF convergence for spin unrestricted wavefunctions
     Chem. Phys. Lett., 2000 325(1-3)93-98
     doi.org/10.1016/s0009-2614(00)00662-x

Timings for individual modules:

Sum of individual times          ...      352.462 sec (=   5.874 min)
Startup calculation              ...        4.423 sec (=   0.074 min)   1.3 %
SCF iterations                   ...      347.860 sec (=   5.798 min)  98.7 %
Property calculations            ...        0.180 sec (=   0.003 min)   0.1 %
                             ****ORCA TERMINATED NORMALLY****
TOTAL RUN TIME: 0 days 0 hours 5 minutes 53 seconds 305 msec
