
                                 *****************
                                 * O   R   C   A *
                                 *****************

                                            #,                                       
                                            ###                                      
                                            ####                                     
                                            #####                                    
                                            ######                                   
                                           ########,                                 
                                     ,,################,,,,,                         
                               ,,#################################,,                 
                          ,,##########################################,,             
                       ,#########################################, ''#####,          
                    ,#############################################,,   '####,        
                  ,##################################################,,,,####,       
                ,###########''''           ''''###############################       
              ,#####''   ,,,,##########,,,,          '''####'''          '####       
            ,##' ,,,,###########################,,,                        '##       
           ' ,,###''''                  '''############,,,                           
         ,,##''                                '''############,,,,        ,,,,,,###''
      ,#''                                            '''#######################'''  
     '                                                          ''''####''''         
             ,#######,   #######,   ,#######,      ##                                
            ,#'     '#,  ##    ##  ,#'     '#,    #''#        ,####,   ,####,        
            ##       ##  ##   ,#'  ##            #'  '#       #'       #'  '#        
            ##       ##  #######   ##           ,######,      #####,   #    #        
            '#,     ,#'  ##    ##  '#,     ,#' ,#      #,     #,   #   #,  ,#        
             '#######'   ##     ##  '#######'  #'      '#     '####' # '####'        



                #########################################################
                #                        -***-                          #
                #          Department of theory and spectroscopy        #
                #                                                       #
                #                      Frank Neese                      #
                #                                                       #
                #     Directorship, Architecture, Infrastructure        #
                #                    SHARK, DRIVERS                     #
                #        Core code/Algorithms in most modules           #
                #                                                       #
                #        Max Planck Institute fuer Kohlenforschung      #
                #                Kaiser Wilhelm Platz 1                 #
                #                 D-45470 Muelheim/Ruhr                 #
                #                      Germany                          #
                #                                                       #
                #                  All rights reserved                  #
                #                        -***-                          #
                #########################################################


                         Program Version 6.0.0  -   RELEASE  -


 With contributions from (in alphabetic order):
   Daniel Aravena         : Magnetic Suceptibility
   Michael Atanasov       : Ab Initio Ligand Field Theory (pilot matlab implementation)
   Alexander A. Auer      : GIAO ZORA, VPT2 properties, NMR spectrum
   Ute Becker             : All parallelization in ORCA, NUMFREQ, NUMCALC
   Giovanni Bistoni       : ED, misc. LED, open-shell LED, HFLD
   Martin Brehm           : Molecular dynamics
   Dmytro Bykov           : pre 5.0 version of the SCF Hessian
   Marcos Casanova-Páez   : Triplet and SCS-CIS(D). UHF-(DLPNO)-IP/EA/STEOM-CCSD. UHF-CVS-IP/STEOM-CCSD
   Vijay G. Chilkuri      : MRCI spin determinant printing, contributions to CSF-ICE
   Pauline Colinet        : FMM embedding
   Dipayan Datta          : RHF DLPNO-CCSD density
   Achintya Kumar Dutta   : EOM-CC, STEOM-CC
   Nicolas Foglia         : Exact transition moments, OPA infrastructure, MCD improvements
   Dmitry Ganyushin       : Spin-Orbit,Spin-Spin,Magnetic field MRCI
   Miquel Garcia          : C-PCM and meta-GGA Hessian, CCSD/C-PCM, Gaussian charge scheme
   Tiago L. C. Gouveia    : GS-ROHF, GS-ROCIS
   Yang Guo               : DLPNO-NEVPT2, F12-NEVPT2, CIM, IAO-localization
   Andreas Hansen         : Spin unrestricted coupled pair/coupled cluster methods
   Ingolf Harden          : AUTO-CI MPn and infrastructure 
   Benjamin Helmich-Paris : MC-RPA, TRAH-(SCF,CASSCF), AVAS, COSX integrals, SCF dyn. polar.
   Lee Huntington         : MR-EOM, pCC
   Robert Izsak           : Overlap fitted RIJCOSX, COSX-SCS-MP3, EOM
   Riya Kayal             : Wick's Theorem for AUTO-CI, AUTO-CI UHF-CCSDT
   Emily Kempfer          : AUTO-CI, RHF CISDT and CCSDT
   Christian Kollmar      : KDIIS, OOCD, Brueckner-CCSD(T), CCSD density, CASPT2, CASPT2-K, improved NEVPT2
   Axel Koslowski         : Symmetry handling
   Simone Kossmann        : Meta GGA functionals, TD-DFT gradient, OOMP2, (MP2 Hessian; deprecated post 5.0)
   Lucas Lang             : DCDCAS
   Marvin Lechner         : AUTO-CI (C++ implementation), FIC-MRCC
   Spencer Leger          : CASSCF response
   Dagmar Lenk            : GEPOL surface, SMD, ORCA-2-JSON
   Dimitrios Liakos       : Extrapolation schemes; Compound Job, initial MDCI parallelization
   Dimitrios Manganas     : Further ROCIS development; embedding schemes. LFT, Crystal Embedding
   Dimitrios Pantazis     : SARC Basis sets
   Anastasios Papadopoulos: AUTO-CI, single reference methods and gradients
   Taras Petrenko         : pre 6.0 DFT Hessian and TD-DFT gradient, (ASA, deprecated), ECA, 1-Electron XAS/XES, NRVS
   Peter Pinski           : DLPNO-MP2, DLPNO-MP2 Gradient
   Christoph Reimann      : Effective Core Potentials
   Marius Retegan         : Local ZFS, SOC
   Christoph Riplinger    : Optimizer, TS searches, QM/MM, DLPNO-CCSD(T), (RO)-DLPNO pert. Triples
   Michael Roemelt        : Original ROCIS implementation
   Masaaki Saitow         : Open-shell DLPNO-CCSD energy and density
   Barbara Sandhoefer     : DKH picture change effects
   Kantharuban Sivalingam : CASSCF convergence/infrastructure, NEVPT2 and variants, FIC-MRCI
   Bernardo de Souza      : ESD, SOC TD-DFT
   Georgi Stoychev        : AutoAux, RI-MP2 NMR, DLPNO-MP2 response, X2C
   Van Anh Tran           : RI-MP2 g-tensors
   Willem Van den Heuvel  : Paramagnetic NMR
   Zikuan Wang            : NOTCH, Electric field optimization 
   Frank Wennmohs         : Technical directorship and infrastructure
   Hang Xu                : AUTO-CI-Response properties 


 We gratefully acknowledge several colleagues who have allowed us to
 interface, adapt or use parts of their codes:
   Stefan Grimme, W. Hujo, H. Kruse, P. Pracht,  : VdW corrections, initial TS optimization,
                  C. Bannwarth, S. Ehlert,         DFT functionals, gCP, sTDA/sTD-DF
                  L. Wittmann, M. Mueller
   Ed Valeev, F. Pavosevic, A. Kumar             : LibInt (2-el integral package), F12 methods
   Garnet Chan, S. Sharma, J. Yang, R. Olivares  : DMRG
   Ulf Ekstrom                                   : XCFun DFT Library
   Mihaly Kallay                                 : mrcc  (arbitrary order and MRCC methods)
   Frank Weinhold                                : gennbo (NPA and NBO analysis)
   Simon Mueller                                 : openCOSMO-RS
   Christopher J. Cramer and Donald G. Truhlar   : smd solvation model
   Lars Goerigk                                  : TD-DFT with DH, B97 family of functionals
   V. Asgeirsson, H. Jonsson                     : NEB implementation
   FAccTs GmbH                                   : IRC, NEB, NEB-TS, DLPNO-Multilevel, CI-OPT
                                                   MM, QMMM, 2- and 3-layer-ONIOM, Crystal-QMMM,
                                                   LR-CPCM, SF, NACMEs, symmetry and pop. for TD-DFT,
                                                   nearIR, NL-DFT gradient (VV10), updates on ESD,
                                                   ML-optimized integration grids, MBIS, APM,
                                                   GOAT, DOCKER, SOLVATOR, interface openCOSMO-RS
   S Lehtola, MJT Oliveira, MAL Marques          : LibXC Library
   Liviu Ungur et al                             : ANISO software


 Your calculation uses the libint2 library for the computation of 2-el integrals
 For citations please refer to: http://libint.valeyev.net

 Your ORCA version has been built with support for libXC version: 6.2.2
 For citations please refer to: https://libxc.gitlab.io

 This ORCA versions uses:
   CBLAS   interface :  Fast vector & matrix operations
   LAPACKE interface :  Fast linear algebra routines
   SCALAPACK package :  Parallel linear algebra routines
   Shared memory     :  Shared parallel matrices
   BLAS/LAPACK       :  OpenBLAS 0.3.27  USE64BITINT DYNAMIC_ARCH NO_AFFINITY SkylakeX SINGLE_THREADED
        Core in use  :  SkylakeX
   Copyright (c) 2011-2014, The OpenBLAS Project


Your calculation utilizes the geometrical counterpoise correction gCP
Please cite in your paper:
H.Kruse, S. Grimme J.Chem.Phys., 136, (2012), 154101 
   

Your calculation utilizes the DFT-NL dispersion correction.
Cite in your paper:
Vydrov, O. A.; Van Voorhis, T. J. Chem. Phys. 2010, 133, 244103
Hujo, W.; Grimme, S. J. Chem. Theory Comput. 2011, 7, 3866 
   

================================================================================

----- Orbital basis set information -----
Your calculation utilizes the basis: def2-TZVP
   F. Weigend and R. Ahlrichs, Phys. Chem. Chem. Phys. 7, 3297 (2005).

----- AuxJ basis set information -----
Your calculation utilizes the auxiliary basis: def2/J
   F. Weigend, Phys. Chem. Chem. Phys. 8, 1057 (2006).

================================================================================
                                        WARNINGS
                       Please study these warnings very carefully!
================================================================================


================================================================================
                                       INPUT FILE
================================================================================
NAME = sp_gas.inp
|  1> ! wb97x-v def2-tzvp def2/J RIJCOSX DEFGRID2 scfconv7 GCP(DFT/TZ) printgap
|  2> %output
|  3>     printlevel normal
|  4> end
|  5> * xyz 0 1
|  6> C 1.2979713534273662 1.5255462678661131 -0.1908741565735365
|  7> C 0.6865857276634263 0.1580103494864889 -0.47299084473178965
|  8> C 1.426412475959747 -0.9508857359529057 0.30025577338666704
|  9> C -0.7769077004879476 0.08989343511184948 -0.08613726334646717
| 10> O -1.238118932996899 0.7920934757736904 0.809480172047792
| 11> C -1.6342124532743236 -0.8824784358205698 -0.8379507231527492
| 12> H 1.278037975372658 1.7493272566808953 0.8799525272287925
| 13> H 2.34072243207522 1.5412336804921878 -0.521693783997453
| 14> H 0.7589735856110686 2.319727449384896 -0.7167155729548362
| 15> H 0.754154768168211 -0.07273382809731775 -1.5435475810890218
| 16> H 1.36593348228139 -0.7659382053307761 1.3779827302939576
| 17> H 2.4814532946139436 -0.9547665155139986 0.01083127707933399
| 18> H 1.011595119886197 -1.9416082372765562 0.09307282938168018
| 19> H -1.103728708611171 -1.821477650567373 -1.0208551794888712
| 20> H -1.8460179458479684 -0.4443668550087576 -1.8221655120182514
| 21> H -2.5764714113265903 -1.0639534662281405 -0.31829981970759036
| 22> *
| 23> 
| 24>                          ****END OF INPUT****
================================================================================

                       ****************************
                       * Single Point Calculation *
                       ****************************

---------------------------------
CARTESIAN COORDINATES (ANGSTROEM)
---------------------------------
  C      1.297971    1.525546   -0.190874
  C      0.686586    0.158010   -0.472991
  C      1.426412   -0.950886    0.300256
  C     -0.776908    0.089893   -0.086137
  O     -1.238119    0.792093    0.809480
  C     -1.634212   -0.882478   -0.837951
  H      1.278038    1.749327    0.879953
  H      2.340722    1.541234   -0.521694
  H      0.758974    2.319727   -0.716716
  H      0.754155   -0.072734   -1.543548
  H      1.365933   -0.765938    1.377983
  H      2.481453   -0.954767    0.010831
  H      1.011595   -1.941608    0.093073
  H     -1.103729   -1.821478   -1.020855
  H     -1.846018   -0.444367   -1.822166
  H     -2.576471   -1.063953   -0.318300

----------------------------
CARTESIAN COORDINATES (A.U.)
----------------------------
  NO LB      ZA    FRAG     MASS         X           Y           Z
   0 C     6.0000    0    12.011    2.452810    2.882865   -0.360700
   1 C     6.0000    0    12.011    1.297459    0.298596   -0.893823
   2 C     6.0000    0    12.011    2.695529   -1.796914    0.567401
   3 C     6.0000    0    12.011   -1.468143    0.169874   -0.162776
   4 O     8.0000    0    15.999   -2.339706    1.496840    1.529696
   5 C     6.0000    0    12.011   -3.088214   -1.667643   -1.583497
   6 H     1.0000    0     1.008    2.415142    3.305749    1.662869
   7 H     1.0000    0     1.008    4.423324    2.912510   -0.985858
   8 H     1.0000    0     1.008    1.434252    4.383650   -1.354396
   9 H     1.0000    0     1.008    1.425146   -0.137447   -2.916882
  10 H     1.0000    0     1.008    2.581240   -1.447413    2.604010
  11 H     1.0000    0     1.008    4.689267   -1.804247    0.020468
  12 H     1.0000    0     1.008    1.911638   -3.669108    0.175882
  13 H     1.0000    0     1.008   -2.085745   -3.442094   -1.929137
  14 H     1.0000    0     1.008   -3.488468   -0.839732   -3.443394
  15 H     1.0000    0     1.008   -4.868825   -2.010581   -0.601499

--------------------------------
INTERNAL COORDINATES (ANGSTROEM)
--------------------------------
 C      0   0   0     0.000000000000     0.00000000     0.00000000
 C      1   0   0     1.524315156779     0.00000000     0.00000000
 C      2   1   0     1.541072509076   111.10859218     0.00000000
 C      2   1   3     1.515291596260   112.36200955   120.68188399
 O      4   2   1     1.227978537549   121.54998858   332.09045612
 C      4   2   1     1.498566639451   116.97585202   152.62093106
 H      1   2   3     1.094141241915   110.93553698   302.16370915
 H      1   2   3     1.094082964324   109.82643580    61.58117622
 H      1   2   3     1.094418356010   111.38102847   181.53317131
 H      2   1   3     1.097223849761   110.15422297   240.38650006
 H      3   2   1     1.095152359904   110.22728499    60.12657364
 H      3   2   1     1.094025926813   109.43745670   301.10665001
 H      3   2   1     1.093859810860   112.00113671   181.11491444
 H      6   4   2     1.093885994423   111.31187853    39.85721549
 H      6   4   2     1.097944476987   107.52761434   283.41002288
 H      6   4   2     1.091247997543   111.28331042   164.02558707

---------------------------
INTERNAL COORDINATES (A.U.)
---------------------------
 C      0   0   0     0.000000000000     0.00000000     0.00000000
 C      1   0   0     2.880538188098     0.00000000     0.00000000
 C      2   1   0     2.912204994668   111.10859218     0.00000000
 C      2   1   3     2.863486129964   112.36200955   120.68188399
 O      4   2   1     2.320543134300   121.54998858   332.09045612
 C      4   2   1     2.831880541994   116.97585202   152.62093106
 H      1   2   3     2.067627299047   110.93553698   302.16370915
 H      1   2   3     2.067517170362   109.82643580    61.58117622
 H      1   2   3     2.068150968795   111.38102847   181.53317131
 H      2   1   3     2.073452583654   110.15422297   240.38650006
 H      3   2   1     2.069538035137   110.22728499    60.12657364
 H      3   2   1     2.067409385086   109.43745670   301.10665001
 H      3   2   1     2.067095471429   112.00113671   181.11491444
 H      6   4   2     2.067144951191   111.31187853    39.85721549
 H      6   4   2     2.074814371758   107.52761434   283.41002288
 H      6   4   2     2.062159859547   111.28331042   164.02558707

---------------------
BASIS SET INFORMATION
---------------------
There are 3 groups of distinct atoms

 Group   1 Type C   : 11s6p2d1f contracted to 5s3p2d1f pattern {62111/411/11/1}
 Group   2 Type O   : 11s6p2d1f contracted to 5s3p2d1f pattern {62111/411/11/1}
 Group   3 Type H   : 5s1p contracted to 3s1p pattern {311/1}

Atom   0C    basis set group =>   1
Atom   1C    basis set group =>   1
Atom   2C    basis set group =>   1
Atom   3C    basis set group =>   1
Atom   4O    basis set group =>   2
Atom   5C    basis set group =>   1
Atom   6H    basis set group =>   3
Atom   7H    basis set group =>   3
Atom   8H    basis set group =>   3
Atom   9H    basis set group =>   3
Atom  10H    basis set group =>   3
Atom  11H    basis set group =>   3
Atom  12H    basis set group =>   3
Atom  13H    basis set group =>   3
Atom  14H    basis set group =>   3
Atom  15H    basis set group =>   3
---------------------------------
AUXILIARY/J BASIS SET INFORMATION
---------------------------------
There are 3 groups of distinct atoms

 Group   1 Type C   : 12s5p4d2f1g contracted to 6s4p3d1f1g pattern {711111/2111/211/2/1}
 Group   2 Type O   : 12s5p4d2f1g contracted to 6s4p3d1f1g pattern {711111/2111/211/2/1}
 Group   3 Type H   : 5s2p1d contracted to 3s1p1d pattern {311/2/1}

Atom   0C    basis set group =>   1
Atom   1C    basis set group =>   1
Atom   2C    basis set group =>   1
Atom   3C    basis set group =>   1
Atom   4O    basis set group =>   2
Atom   5C    basis set group =>   1
Atom   6H    basis set group =>   3
Atom   7H    basis set group =>   3
Atom   8H    basis set group =>   3
Atom   9H    basis set group =>   3
Atom  10H    basis set group =>   3
Atom  11H    basis set group =>   3
Atom  12H    basis set group =>   3
Atom  13H    basis set group =>   3
Atom  14H    basis set group =>   3
Atom  15H    basis set group =>   3

Checking for AutoStart:
The File: sp_gas.gbw exists
Trying to determine its content:
     ... Fine, the file contains calculation information
     ... Fine, the calculation information was read
     ... Fine, the file contains a basis set
     ... Fine, the basis set was read
     ... Fine, the file contains a geometry
     ... Fine, the geometry was read
     ... Fine, the file contains a set of orbitals
     ... Fine, the orbitals can be read
     => possible old guess file was deleted
     => GBW file was renamed to GES file
     => GES file is set as startup file
     => Guess is set to MORead
     ... now leaving AutoStart

------------------------------------------------------------------------------
                             ORCA STARTUP CALCULATIONS
                           -- RI-GTO INTEGRALS CHOSEN --
------------------------------------------------------------------------------
------------------------------------------------------------------------------
                   ___                                                        
                  /   \      - P O W E R E D   B Y -                         
                 /     \                                                     
                 |  |  |   _    _      __       _____    __    __             
                 |  |  |  | |  | |    /  \     |  _  \  |  |  /  |          
                  \  \/   | |  | |   /    \    | | | |  |  | /  /          
                 / \  \   | |__| |  /  /\  \   | |_| |  |  |/  /          
                |  |  |   |  __  | /  /__\  \  |    /   |      \           
                |  |  |   | |  | | |   __   |  |    \   |  |\   \          
                \     /   | |  | | |  |  |  |  | |\  \  |  | \   \       
                 \___/    |_|  |_| |__|  |__|  |_| \__\ |__|  \__/        
                                                                              
                      - O R C A' S   B I G   F R I E N D -                    
                                      &                                       
                       - I N T E G R A L  F E E D E R -                       
                                                                              
 v1 FN, 2020, v2 2021, v3 2022-2024                                           
------------------------------------------------------------------------------


----------------------
SHARK INTEGRAL PACKAGE
----------------------

Number of atoms                             ...     16
Number of basis functions                   ...    246
Number of shells                            ...    106
Maximum angular momentum                    ...      3
Integral batch strategy                     ... SHARK/LIBINT Hybrid
RI-J (if used) integral strategy            ... SPLIT-RIJ (Revised 2003 algorithm where possible)
Printlevel                                  ...      1
Contraction scheme used                     ... SEGMENTED contraction
Prescreening option                         ... SCHWARTZ
   Thresh                                   ... 3.000e-11
   Tcut                                     ... 1.000e-12
   Tpresel                                  ... 1.000e-12 
Coulomb Range Separation                    ... NOT USED
Exchange Range Separation                   ... Long Range
   Mu parameter                             ... 3.000e-01
   Scaling (regular/separated)              ... 1.670e-01 8.330e-01
Multipole approximations                    ... NOT USED
Finite Nucleus Model                        ... NOT USED
CABS basis                                  ... NOT available
Auxiliary Coulomb fitting basis             ... AVAILABLE
   # of basis functions in Aux-J            ...    404
   # of shells in Aux-J                     ...    140
   Maximum angular momentum in Aux-J        ...      4
Auxiliary J/K fitting basis                 ... NOT available
Auxiliary Correlation fitting basis         ... NOT available
Auxiliary 'external' fitting basis          ... NOT available

Checking pre-screening integrals            ... done (  0.0 sec) Dimension = 106
Check shell pair data                       ... done (  0.0 sec)
Shell pair information
Shell pair cut-off parameter TPreSel        ...   1.0e-12
Total number of shell pairs                 ...      5671
Shell pairs after pre-screening             ...      5407
Total number of primitive shell pairs       ...     16452
Primitive shell pairs kept                  ...     12283
          la=0 lb=0:   1693 shell pairs
          la=1 lb=0:   1603 shell pairs
          la=1 lb=1:    394 shell pairs
          la=2 lb=0:    694 shell pairs
          la=2 lb=1:    333 shell pairs
          la=2 lb=2:     78 shell pairs
          la=3 lb=0:    351 shell pairs
          la=3 lb=1:    168 shell pairs
          la=3 lb=2:     72 shell pairs
          la=3 lb=3:     21 shell pairs

Calculating one electron integrals          ... done (  0.0 sec)
Calculating RI/J V-Matrix + Cholesky decomp.... done (  0.1 sec)
Calculating Nuclear repulsion               ... done (  0.0 sec) ENN=    245.097522776042 Eh

Diagonalization of the overlap matrix:
Smallest eigenvalue                        ... 1.941e-04
Time for diagonalization                   ...    0.006 sec
Threshold for overlap eigenvalues          ... 1.000e-07
Number of eigenvalues below threshold      ... 0
Time for construction of square roots      ...    0.225 sec
Total time needed                          ...    0.237 sec

-------------------
DFT GRID GENERATION
-------------------

General Integration Accuracy     IntAcc      ... 4.388
Radial Grid Type                 RadialGrid  ... OptM3 with GC (2021)
Angular Grid (max. ang.)         AngularGrid ... 4 (Lebedev-302)
Angular grid pruning method      GridPruning ... 4 (adaptive)
Weight generation scheme         WeightScheme... mBecke (2022)
Basis function cutoff            BFCut       ... 1.0000e-11
Integration weight cutoff        WCut        ... 1.0000e-14
Partially contracted basis set               ... off
Rotationally invariant grid construction     ... off
Angular grids for H and He will be reduced by one unit

Total number of grid points                  ...    68343
Total number of batches                      ...     1076
Average number of points per batch           ...       63
Average number of grid points per atom       ...     4271

--------------------
COSX GRID GENERATION
--------------------

GRIDX 1
-------
General Integration Accuracy     IntAcc      ... 3.816
Radial Grid Type                 RadialGrid  ... OptM3 with GC (2021)
Angular Grid (max. ang.)         AngularGrid ... 1 (Lebedev-50)
Angular grid pruning method      GridPruning ... 4 (adaptive)
Weight generation scheme         WeightScheme... mBecke (2022)
Basis function cutoff            BFCut       ... 1.0000e-11
Integration weight cutoff        WCut        ... 1.0000e-14
Partially contracted basis set               ... on
Rotationally invariant grid construction     ... off
Angular grids for H and He will be reduced by one unit

Total number of grid points                  ...     8778
Total number of batches                      ...       80
Average number of points per batch           ...      109
Average number of grid points per atom       ...      549
UseSFitting                                  ... on

GRIDX 2
-------
General Integration Accuracy     IntAcc      ... 4.020
Radial Grid Type                 RadialGrid  ... OptM3 with GC (2021)
Angular Grid (max. ang.)         AngularGrid ... 2 (Lebedev-110)
Angular grid pruning method      GridPruning ... 4 (adaptive)
Weight generation scheme         WeightScheme... mBecke (2022)
Basis function cutoff            BFCut       ... 1.0000e-11
Integration weight cutoff        WCut        ... 1.0000e-14
Partially contracted basis set               ... on
Rotationally invariant grid construction     ... off
Angular grids for H and He will be reduced by one unit

Total number of grid points                  ...    18465
Total number of batches                      ...      153
Average number of points per batch           ...      120
Average number of grid points per atom       ...     1154
UseSFitting                                  ... on

GRIDX 3
-------
General Integration Accuracy     IntAcc      ... 4.338
Radial Grid Type                 RadialGrid  ... OptM3 with GC (2021)
Angular Grid (max. ang.)         AngularGrid ... 3 (Lebedev-194)
Angular grid pruning method      GridPruning ... 4 (adaptive)
Weight generation scheme         WeightScheme... mBecke (2022)
Basis function cutoff            BFCut       ... 1.0000e-11
Integration weight cutoff        WCut        ... 1.0000e-14
Partially contracted basis set               ... on
Rotationally invariant grid construction     ... off
Angular grids for H and He will be reduced by one unit

Total number of grid points                  ...    40363
Total number of batches                      ...      324
Average number of points per batch           ...      124
Average number of grid points per atom       ...     2523
UseSFitting                                  ... on
Initializing property integral containers    ... done (  0.0 sec)

SHARK setup successfully completed in   1.9 seconds

Maximum memory used throughout the entire STARTUP-calculation: 37.6 MB
-------------------------------------------------------------------------------
                                 ORCA GUESS
                   Start orbitals & Density for SCF / CASSCF
-------------------------------------------------------------------------------

------------
SCF SETTINGS
------------
Hamiltonian:
 Density Functional     Method          .... DFT(GTOs)
 Exchange Functional    Exchange        .... WB97X-V
 Correlation Functional Correlation     .... WB97X-V
 Gradients option       PostSCFGGA      .... off
 Hybrid DFT is turned on
   Fraction HF Exchange ScalHFX         ....  0.167000
   Scaling of DF-GGA-X  ScalDFX         ....  0.000000
   Scaling of DF-GGA-C  ScalDFC         ....  1.000000
   Scaling of DF-LDA-C  ScalLDAC        ....  1.000000
   Perturbative correction              ....  0.000000
 Long-range corrected/Screened/Range-Separated Hybrid DFT is turned on
   Amount of maximum screened exact exchange              ....  0.833000
   Range separation parameter mu (erf(mu*r12)/r12)        ....  0.300000
   NL short-range parameter             ....  6.000000
   NL long-range parameter              ....  0.010000
 RI-approximation to the Coulomb term is turned on
   Number of AuxJ basis functions       .... 404
   RIJ-COSX (HFX calculated with COS-X)).... on


General Settings:
 Integral files         IntName         .... sp_gas
 Hartree-Fock type      HFTyp           .... RHF
 Total Charge           Charge          ....    0
 Multiplicity           Mult            ....    1
 Number of Electrons    NEL             ....   48
 Basis Dimension        Dim             ....  246
 Nuclear Repulsion      ENuc            ....    245.0975227760 Eh

Convergence Acceleration:
 AO-DIIS                CNVDIIS         .... on
   Start iteration      DIISMaxIt       ....    12
   Startup error        DIISStart       ....  0.200000
   # of expansion vecs  DIISMaxEq       ....     5
   Bias factor          DIISBfac        ....   1.050
   Max. coefficient     DIISMaxC        ....  10.000
 MO-DIIS                CNVKDIIS        .... off
 Trust-Rad. Augm. Hess. CNVTRAH         .... auto
   Auto Start mean grad. ratio tolernc. ....  1.125000
   Auto Start start iteration           ....     1
   Auto Start num. interpolation iter.  ....    10
   Max. Number of Micro iterations      ....    24
   Max. Number of Macro iterations      .... Maxiter - #DIIS iter
   Number of Davidson start vectors     ....     2
   Converg. threshold    (grad. norm)   ....   1.000e-04
   Grad. Scal. Fac. for Micro threshold ....   0.100
   Minimum threshold for Micro iter.    ....   1.000e-02
   NR start threshold (gradient norm)   ....   1.000e-04
   Initial trust radius                 ....   0.400
   Minimum AH scaling param. (alpha)    ....   1.000
   Maximum AH scaling param. (alpha)    .... 1000.000
   Quad. conv. algorithm                .... NR
   White noise on init. David. guess    .... on
   Maximum white noise                  ....   0.010
   Pseudo random numbers                .... off
   Inactive MOs                         .... canonical
   Orbital update algorithm             .... Taylor
   Preconditioner                       .... Diag
   Full preconditioner red. dimension   ....   250
 SOSCF                  CNVSOSCF        .... on
   Start iteration      SOSCFMaxIt      ....   150
   Startup grad/error   SOSCFStart      ....  0.003300
   Hessian update       SOSCFHessUp     .... L-BFGS
 Level Shifting         CNVShift        .... on
   Level shift para.    LevelShift      ....    0.2500
   Turn off err/grad.   ShiftErr        ....    0.0010
 Zerner damping         CNVZerner       .... off
 Static damping         CNVDamp         .... on
   Fraction old density DampFac         ....    0.7000
   Max. Damping (<1)    DampMax         ....    0.9800
   Min. Damping (>=0)   DampMin         ....    0.0000
   Turn off err/grad.   DampErr         ....    0.1000

SCF Procedure:
 Maximum # iterations   MaxIter         ....   125
 SCF integral mode      SCFMode         .... Direct
   Integral package                     .... SHARK and LIBINT hybrid scheme
 Reset frequency        DirectResetFreq ....    20
 Integral Threshold     Thresh          ....  3.000e-11 Eh
 Primitive CutOff       TCut            ....  1.000e-12 Eh

Convergence Tolerance:
 Convergence Check Mode ConvCheckMode   .... Total+1el-Energy
 Convergence forced     ConvForced      .... 0
 Energy Change          TolE            ....  1.000e-07 Eh
 1-El. energy change                    ....  1.000e-04 Eh
 Orbital Gradient       TolG            ....  1.000e-04
 Orbital Rotation angle TolX            ....  1.000e-04
 DIIS Error             TolErr          ....  1.000e-07

---------------------
INITIAL GUESS: MOREAD
---------------------
Guess MOs are being read from file: sp_gas.ges
Input Geometry matches current geometry (good)
Atom 0: N(Shells)= 11 and 9 - projection required
Input basis set needs projection
NBasis(read)= 169
NBasis(calc)= 246
Basis set overlap was calculated
Using GuessMode=FMatrix for the initial guess
C*T matrix was formed
Effective Fockian was calculated
Effective Fockian was diagonalized
Initial density was built
                      ------------------
                      INITIAL GUESS DONE (   0.0 sec)
                      ------------------
             **** ENERGY FILE WAS UPDATED (sp_gas.en.tmp) ****
Finished Guess after   0.2 sec
Maximum memory used throughout the entire GUESS-calculation: 20.4 MB

-------------------------------------------------------------------------------------------
                                      ORCA LEAN-SCF
                              memory conserving SCF solver
-------------------------------------------------------------------------------------------

----------------------------------------D-I-I-S--------------------------------------------
Iteration    Energy (Eh)           Delta-E    RMSDP     MaxDP     DIISErr   Damp  Time(sec)
-------------------------------------------------------------------------------------------
               ***  Starting incremental Fock matrix formation  ***
    1    -271.9725283201862567     0.00e+00  9.29e-04  2.47e-02  4.79e-02  0.700  11.2
    2    -271.9772925031571731    -4.76e-03  8.22e-04  2.30e-02  3.43e-02  0.700   5.7
                               ***Turning on AO-DIIS***
    3    -271.9807607742648088    -3.47e-03  6.54e-04  1.75e-02  2.43e-02  0.700   5.9
    4    -271.9832441226950550    -2.48e-03  1.65e-03  4.34e-02  1.59e-02  0.000   5.9
                              *** Initializing SOSCF ***
---------------------------------------S-O-S-C-F--------------------------------------
Iteration    Energy (Eh)           Delta-E    RMSDP     MaxDP     MaxGrad    Time(sec)
--------------------------------------------------------------------------------------
    5    -271.9897113476521326    -6.47e-03  9.57e-05  3.52e-03  2.18e-03     6.1
               *** Restarting incremental Fock matrix formation ***
    6    -271.9897542340131622    -4.29e-05  8.63e-05  5.95e-03  7.92e-04    11.5
    7    -271.9897634472830532    -9.21e-06  4.36e-05  2.63e-03  9.22e-04     9.3
    8    -271.9897686959420753    -5.25e-06  1.20e-05  4.75e-04  1.51e-04     9.3
    9    -271.9897689693301572    -2.73e-07  2.58e-06  8.88e-05  1.72e-05     7.6
                  *** Gradient check signals convergence ***

               *****************************************************
               *                     SUCCESS                       *
               *           SCF CONVERGED AFTER   9 CYCLES          *
               *****************************************************


------------------
NL GRID GENERATION
------------------

General Integration Accuracy     IntAcc      ... 4.004
Radial Grid Type                 RadialGrid  ... OptM3 with GC (2021)
Angular Grid (max. ang.)         AngularGrid ... 2 (Lebedev-110)
Angular grid pruning method      GridPruning ... 4 (adaptive)
Weight generation scheme         WeightScheme... mBecke (2022)
Basis function cutoff            BFCut       ... 1.0000e-10
Integration weight cutoff        WCut        ... 1.0000e-14
Partially contracted basis set               ... off
Rotationally invariant grid construction     ... off
Angular grids for H and He will be reduced by one unit

Total number of grid points                  ...    20549
Total number of batches                      ...      328
Average number of points per batch           ...       62
Average number of grid points per atom       ...     1284
Final grid set up in    0.1 sec

-------------------------------------------------------------------------------
                    post-SCF DFT-NL dispersion correction                      
-------------------------------------------------------------------------------

SCF Energy:     -271.989768969 
NL    Energy:      0.184897035 
SC+NL Energy:   -271.804871935 
NL done in  :              1.5 sec
-------------------------------------------------------------------------------
Recomputing exchange energy using gridx3       ... done (   18.077 sec)
Old exchange energy                            :    -12.545202120 Eh
New exchange energy                            :    -12.545203461 Eh
Exchange energy change after final integration :     -0.000001342 Eh
Total energy after final integration           :   -271.804873276 Eh
             **** ENERGY FILE WAS UPDATED (sp_gas.en.tmp) ****

----------------
TOTAL SCF ENERGY
----------------

Total Energy       :       -271.80487327640429 Eh           -7396.18662 eV

Components:
Nuclear Repulsion  :        245.09752277604170 Eh            6669.44266 eV
Electronic Energy  :       -517.08729174537189 Eh          -14070.66055 eV
One Electron Energy:       -852.34647354143624 Eh          -23193.52668 eV
Two Electron Energy:        335.25918179606435 Eh            9122.86613 eV

Virial components:
Potential Energy   :       -542.46298663659525 Eh          -14761.16831 eV
Kinetic Energy     :        270.65811336019095 Eh            7364.98169 eV
Virial Ratio       :          2.00423693161079

DFT components:
N(Alpha)           :       24.000005374009 electrons
N(Beta)            :       24.000005374009 electrons
N(Total)           :       48.000010748018 electrons
E(X)               :      -25.116827489445 Eh       
E(C)               :       -1.942307937027 Eh       
NL Energy, E(C,NL) :        0.184897034583 Eh       
E(XC)              :      -26.874238391889 Eh       

---------------
SCF CONVERGENCE
---------------

  Last Energy change         ...    2.7339e-07  Tolerance :   1.0000e-07
  Last MAX-Density change    ...    8.8771e-05  Tolerance :   1.0000e-05
  Last RMS-Density change    ...    2.5847e-06  Tolerance :   1.0000e-06
  Last DIIS Error            ...    2.1804e-03  Tolerance :   1.0000e-07
  Last Orbital Gradient      ...    1.7201e-05  Tolerance :   1.0000e-04
  Last Orbital Rotation      ...    4.1841e-05  Tolerance :   1.0000e-04


----------------
ORBITAL ENERGIES
----------------

  NO   OCC          E(Eh)            E(eV) 
   0   2.0000     -21.657015      -589.3173 
   1   2.0000     -12.135198      -330.2155 
   2   2.0000     -12.063359      -328.2607 
   3   2.0000     -12.052840      -327.9744 
   4   2.0000     -12.050616      -327.9139 
   5   2.0000     -12.037173      -327.5481 
   6   2.0000      -1.700067       -46.2612 
   7   2.0000      -1.327180       -36.1144 
   8   2.0000      -1.253427       -34.1075 
   9   2.0000      -1.185419       -32.2569 
  10   2.0000      -1.124265       -30.5928 
  11   2.0000      -1.062887       -28.9226 
  12   2.0000      -0.965452       -26.2713 
  13   2.0000      -0.953861       -25.9559 
  14   2.0000      -0.912914       -24.8416 
  15   2.0000      -0.882815       -24.0226 
  16   2.0000      -0.848502       -23.0889 
  17   2.0000      -0.843562       -22.9545 
  18   2.0000      -0.835236       -22.7279 
  19   2.0000      -0.830117       -22.5886 
  20   2.0000      -0.815826       -22.1997 
  21   2.0000      -0.793489       -21.5919 
  22   2.0000      -0.777487       -21.1565 
  23   2.0000      -0.769260       -20.9326 
  24   0.0000      -0.308454        -8.3935 
  25   0.0000      -0.051920        -1.4128 
  26   0.0000      -0.038957        -1.0601 
  27   0.0000      -0.025059        -0.6819 
  28   0.0000      -0.017744        -0.4828 
  29   0.0000       0.006414         0.1745 
  30   0.0000       0.012013         0.3269 
  31   0.0000       0.027858         0.7581 
  32   0.0000       0.036863         1.0031 
  33   0.0000       0.042677         1.1613 
  34   0.0000       0.053485         1.4554 
*Only the first 10 virtual orbitals were printed.

                    ********************************
                    * MULLIKEN POPULATION ANALYSIS *
                    ********************************

-----------------------
MULLIKEN ATOMIC CHARGES
-----------------------
   0 C :   -0.334142
   1 C :   -0.007242
   2 C :   -0.365588
   3 C :    0.208373
   4 O :   -0.321124
   5 C :   -0.360014
   6 H :    0.124949
   7 H :    0.109959
   8 H :    0.114444
   9 H :    0.079300
  10 H :    0.129462
  11 H :    0.120029
  12 H :    0.109580
  13 H :    0.120895
  14 H :    0.132666
  15 H :    0.138455
Sum of atomic charges:   -0.0000000

--------------------------------
MULLIKEN REDUCED ORBITAL CHARGES
--------------------------------
  0 C s       :     3.231555  s :     3.231555
      pz      :     1.072421  p :     3.042920
      px      :     1.027729
      py      :     0.942770
      dz2     :     0.012065  d :     0.056287
      dxz     :     0.004663
      dyz     :     0.014218
      dx2y2   :     0.015406
      dxy     :     0.009935
      f0      :     0.000902  f :     0.003380
      f+1     :     0.000074
      f-1     :     0.000383
      f+2     :     0.000200
      f-2     :     0.000279
      f+3     :     0.000852
      f-3     :     0.000689

  1 C s       :     3.077452  s :     3.077452
      pz      :     0.943311  p :     2.792349
      px      :     0.906331
      py      :     0.942707
      dz2     :     0.031981  d :     0.130003
      dxz     :     0.011303
      dyz     :     0.023326
      dx2y2   :     0.038277
      dxy     :     0.025116
      f0      :     0.001029  f :     0.007439
      f+1     :     0.000680
      f-1     :     0.000991
      f+2     :     0.000929
      f-2     :     0.000709
      f+3     :     0.001252
      f-3     :     0.001849

  2 C s       :     3.248005  s :     3.248005
      pz      :     1.034859  p :     3.058014
      px      :     1.031420
      py      :     0.991736
      dz2     :     0.021949  d :     0.056285
      dxz     :     0.004365
      dyz     :     0.005456
      dx2y2   :     0.016646
      dxy     :     0.007869
      f0      :     0.000699  f :     0.003283
      f+1     :     0.000238
      f-1     :     0.000645
      f+2     :     0.000317
      f-2     :     0.000202
      f+3     :     0.000756
      f-3     :     0.000426

  3 C s       :     3.155766  s :     3.155766
      pz      :     0.739796  p :     2.408509
      px      :     0.913243
      py      :     0.755470
      dz2     :     0.047034  d :     0.209986
      dxz     :     0.051637
      dyz     :     0.028311
      dx2y2   :     0.046559
      dxy     :     0.036445
      f0      :     0.002139  f :     0.017366
      f+1     :     0.002514
      f-1     :     0.002461
      f+2     :     0.003781
      f-2     :     0.002369
      f+3     :     0.001322
      f-3     :     0.002780

  4 O s       :     3.801960  s :     3.801960
      pz      :     1.340372  p :     4.485502
      px      :     1.724593
      py      :     1.420537
      dz2     :     0.009798  d :     0.031863
      dxz     :     0.005747
      dyz     :     0.007244
      dx2y2   :     0.004276
      dxy     :     0.004799
      f0      :     0.000324  f :     0.001799
      f+1     :     0.000233
      f-1     :     0.000298
      f+2     :     0.000304
      f-2     :     0.000320
      f+3     :     0.000176
      f-3     :     0.000144

  5 C s       :     3.233632  s :     3.233632
      pz      :     1.048053  p :     3.076786
      px      :     1.034026
      py      :     0.994707
      dz2     :     0.009543  d :     0.046489
      dxz     :     0.007573
      dyz     :     0.008370
      dx2y2   :     0.009766
      dxy     :     0.011238
      f0      :     0.000255  f :     0.003107
      f+1     :     0.000216
      f-1     :     0.000647
      f+2     :     0.000593
      f-2     :     0.000578
      f+3     :     0.000543
      f-3     :     0.000274

  6 H s       :     0.853773  s :     0.853773
      pz      :     0.012530  p :     0.021277
      px      :     0.004226
      py      :     0.004522

  7 H s       :     0.869124  s :     0.869124
      pz      :     0.004889  p :     0.020917
      px      :     0.011871
      py      :     0.004157

  8 H s       :     0.864437  s :     0.864437
      pz      :     0.005960  p :     0.021120
      px      :     0.006055
      py      :     0.009104

  9 H s       :     0.899036  s :     0.899036
      pz      :     0.012852  p :     0.021664
      px      :     0.004274
      py      :     0.004538

 10 H s       :     0.849595  s :     0.849595
      pz      :     0.012641  p :     0.020943
      px      :     0.004098
      py      :     0.004204

 11 H s       :     0.858817  s :     0.858817
      pz      :     0.004637  p :     0.021154
      px      :     0.012358
      py      :     0.004159

 12 H s       :     0.869200  s :     0.869200
      pz      :     0.004384  p :     0.021221
      px      :     0.005226
      py      :     0.011610

 13 H s       :     0.857716  s :     0.857716
      pz      :     0.004686  p :     0.021389
      px      :     0.005835
      py      :     0.010869

 14 H s       :     0.845812  s :     0.845812
      pz      :     0.011371  p :     0.021522
      px      :     0.004645
      py      :     0.005506

 15 H s       :     0.840235  s :     0.840235
      pz      :     0.005925  p :     0.021310
      px      :     0.011263
      py      :     0.004122


------------------------
MULLIKEN OVERLAP CHARGES
------------------------
B(  0-C ,  1-C ) :   0.5904 B(  0-C ,  2-C ) :  -0.0621 B(  0-C ,  3-C ) :  -0.0585 
B(  0-C ,  6-H ) :   0.8109 B(  0-C ,  7-H ) :   0.8395 B(  0-C ,  8-H ) :   0.8266 
B(  0-C ,  9-H ) :  -0.0938 B(  1-C ,  2-C ) :   0.5917 B(  1-C ,  3-C ) :   0.3766 
B(  1-C ,  4-O ) :  -0.2520 B(  1-C ,  5-C ) :  -0.3023 B(  1-C ,  7-H ) :  -0.0980 
B(  1-C ,  8-H ) :  -0.0782 B(  1-C ,  9-H ) :   0.8041 B(  1-C , 10-H ) :  -0.0749 
B(  1-C , 11-H ) :  -0.0754 B(  1-C , 12-H ) :  -0.0725 B(  2-C ,  9-H ) :  -0.0838 
B(  2-C , 10-H ) :   0.8233 B(  2-C , 11-H ) :   0.8352 B(  2-C , 12-H ) :   0.8015 
B(  3-C ,  4-O ) :   1.4118 B(  3-C ,  5-C ) :   0.6898 B(  3-C ,  9-H ) :  -0.0744 
B(  3-C , 13-H ) :  -0.0879 B(  3-C , 15-H ) :  -0.0772 B(  4-O ,  5-C ) :  -0.1936 
B(  5-C , 13-H ) :   0.7715 B(  5-C , 14-H ) :   0.7578 B(  5-C , 15-H ) :   0.8086 
B(  6-H ,  7-H ) :  -0.0554 


                     *******************************
                     * LOEWDIN POPULATION ANALYSIS *
                     *******************************

----------------------
LOEWDIN ATOMIC CHARGES
----------------------
   0 C :   -0.272425
   1 C :   -0.279627
   2 C :   -0.265096
   3 C :   -0.319614
   4 O :    0.108772
   5 C :   -0.259225
   6 H :    0.126951
   7 H :    0.118862
   8 H :    0.122302
   9 H :    0.153275
  10 H :    0.126807
  11 H :    0.122380
  12 H :    0.117292
  13 H :    0.129021
  14 H :    0.139547
  15 H :    0.130777

-------------------------------
LOEWDIN REDUCED ORBITAL CHARGES
-------------------------------
  0 C s       :     2.822347  s :     2.822347
      pz      :     1.078463  p :     3.163992
      px      :     1.054574
      py      :     1.030955
      dz2     :     0.055730  d :     0.261249
      dxz     :     0.020739
      dyz     :     0.058175
      dx2y2   :     0.073101
      dxy     :     0.053503
      f0      :     0.004177  f :     0.024837
      f+1     :     0.001015
      f-1     :     0.002433
      f+2     :     0.003529
      f-2     :     0.004347
      f+3     :     0.004765
      f-3     :     0.004572

  1 C s       :     2.733371  s :     2.733371
      pz      :     0.986984  p :     2.995458
      px      :     0.994080
      py      :     1.014395
      dz2     :     0.122494  d :     0.499442
      dxz     :     0.053591
      dyz     :     0.081356
      dx2y2   :     0.134880
      dxy     :     0.107121
      f0      :     0.005714  f :     0.051356
      f+1     :     0.004612
      f-1     :     0.006103
      f+2     :     0.008441
      f-2     :     0.007111
      f+3     :     0.007758
      f-3     :     0.011617

  2 C s       :     2.825243  s :     2.825243
      pz      :     1.067185  p :     3.155059
      px      :     1.049764
      py      :     1.038111
      dz2     :     0.087677  d :     0.260567
      dxz     :     0.021263
      dyz     :     0.030167
      dx2y2   :     0.080786
      dxy     :     0.040674
      f0      :     0.002851  f :     0.024227
      f+1     :     0.002195
      f-1     :     0.004124
      f+2     :     0.004333
      f-2     :     0.003655
      f+3     :     0.004384
      f-3     :     0.002686

  3 C s       :     2.769850  s :     2.769850
      pz      :     0.845295  p :     2.675274
      px      :     0.995327
      py      :     0.834653
      dz2     :     0.143689  d :     0.766418
      dxz     :     0.187300
      dyz     :     0.129245
      dx2y2   :     0.160782
      dxy     :     0.145404
      f0      :     0.012628  f :     0.108071
      f+1     :     0.015796
      f-1     :     0.015356
      f+2     :     0.023193
      f-2     :     0.014159
      f+3     :     0.008593
      f-3     :     0.018345

  4 O s       :     3.405413  s :     3.405413
      pz      :     1.386642  p :     4.413271
      px      :     1.618011
      py      :     1.408618
      dz2     :     0.012241  d :     0.066903
      dxz     :     0.015764
      dyz     :     0.019461
      dx2y2   :     0.009765
      dxy     :     0.009673
      f0      :     0.000515  f :     0.005641
      f+1     :     0.000676
      f-1     :     0.001131
      f+2     :     0.001254
      f-2     :     0.001279
      f+3     :     0.000326
      f-3     :     0.000461

  5 C s       :     2.826423  s :     2.826423
      pz      :     1.066868  p :     3.178421
      px      :     1.056153
      py      :     1.055400
      dz2     :     0.047897  d :     0.230693
      dxz     :     0.039208
      dyz     :     0.040955
      dx2y2   :     0.048249
      dxy     :     0.054383
      f0      :     0.002718  f :     0.023688
      f+1     :     0.001906
      f-1     :     0.005148
      f+2     :     0.004061
      f-2     :     0.003291
      f+3     :     0.003983
      f-3     :     0.002580

  6 H s       :     0.811961  s :     0.811961
      pz      :     0.035252  p :     0.061089
      px      :     0.012806
      py      :     0.013030

  7 H s       :     0.820948  s :     0.820948
      pz      :     0.015444  p :     0.060190
      px      :     0.032207
      py      :     0.012538

  8 H s       :     0.817544  s :     0.817544
      pz      :     0.018050  p :     0.060154
      px      :     0.018410
      py      :     0.023693

  9 H s       :     0.790546  s :     0.790546
      pz      :     0.030417  p :     0.056179
      px      :     0.012361
      py      :     0.013401

 10 H s       :     0.812449  s :     0.812449
      pz      :     0.034850  p :     0.060744
      px      :     0.012782
      py      :     0.013111

 11 H s       :     0.816998  s :     0.816998
      pz      :     0.014630  p :     0.060622
      px      :     0.033361
      py      :     0.012632

 12 H s       :     0.821981  s :     0.821981
      pz      :     0.013901  p :     0.060728
      px      :     0.016288
      py      :     0.030539

 13 H s       :     0.809964  s :     0.809964
      pz      :     0.014105  p :     0.061015
      px      :     0.018119
      py      :     0.028791

 14 H s       :     0.799744  s :     0.799744
      pz      :     0.030203  p :     0.060709
      px      :     0.013633
      py      :     0.016872

 15 H s       :     0.808107  s :     0.808107
      pz      :     0.018162  p :     0.061116
      px      :     0.030515
      py      :     0.012439


---------------------------------
LOEWDIN BOND ORDERS (THRESH 0.050000)
---------------------------------
B(  0-C ,  1-C ) :   1.2187 B(  0-C ,  2-C ) :   0.1442 B(  0-C ,  3-C ) :   0.1419 
B(  0-C ,  6-H ) :   0.8970 B(  0-C ,  7-H ) :   0.8998 B(  0-C ,  8-H ) :   0.9018 
B(  0-C ,  9-H ) :   0.0689 B(  1-C ,  2-C ) :   1.1865 B(  1-C ,  3-C ) :   1.1072 
B(  1-C ,  4-O ) :   0.1653 B(  1-C ,  5-C ) :   0.1414 B(  1-C ,  6-H ) :   0.0774 
B(  1-C ,  7-H ) :   0.0825 B(  1-C ,  8-H ) :   0.0783 B(  1-C ,  9-H ) :   0.7884 
B(  1-C , 10-H ) :   0.0738 B(  1-C , 11-H ) :   0.0782 B(  1-C , 12-H ) :   0.0739 
B(  2-C ,  3-C ) :   0.1619 B(  2-C ,  9-H ) :   0.0698 B(  2-C , 10-H ) :   0.9002 
B(  2-C , 11-H ) :   0.9004 B(  2-C , 12-H ) :   0.9036 B(  3-C ,  4-O ) :   2.6100 
B(  3-C ,  5-C ) :   1.2569 B(  3-C ,  9-H ) :   0.0793 B(  3-C , 13-H ) :   0.0865 
B(  3-C , 14-H ) :   0.0971 B(  3-C , 15-H ) :   0.0848 B(  4-O ,  5-C ) :   0.1812 
B(  5-C , 13-H ) :   0.8863 B(  5-C , 14-H ) :   0.8755 B(  5-C , 15-H ) :   0.8967 


------------------------------------------
LOEWDIN REDUCED ORBITAL POPULATIONS PER MO
-------------------------------------------
THRESHOLD FOR PRINTING IS 0.1%%
                      0         1         2         3         4         5   
                 -21.65702 -12.13520 -12.06336 -12.05284 -12.05062 -12.03717
                   2.00000   2.00000   2.00000   2.00000   2.00000   2.00000
                  --------  --------  --------  --------  --------  --------
 0 C  s               0.0       0.0       0.1       0.0       0.0      99.5
 1 C  s               0.0       0.0      99.0       0.1       0.2       0.1
 2 C  s               0.0       0.0       0.2       0.0      99.4       0.0
 3 C  s               0.0      99.1       0.0       0.0       0.0       0.0
 4 O  s              99.7       0.0       0.0       0.0       0.0       0.0
 4 O  dyz             0.0       0.1       0.0       0.0       0.0       0.0
 5 C  s               0.0       0.0       0.0      99.4       0.0       0.0

                      6         7         8         9        10        11   
                  -1.70007  -1.32718  -1.25343  -1.18542  -1.12426  -1.06289
                   2.00000   2.00000   2.00000   2.00000   2.00000   2.00000
                  --------  --------  --------  --------  --------  --------
 0 C  s               0.1       8.4       4.1      18.8       6.8       1.9
 0 C  pz              0.0       0.1       0.0       0.1       0.1       0.3
 0 C  px              0.2       0.6       0.0       0.0       1.1       0.7
 0 C  py              0.1       3.5       0.5       0.4       0.7       1.8
 0 C  dz2             0.0       0.2       0.0       0.0       0.1       0.0
 0 C  dyz             0.0       0.0       0.0       0.0       0.0       0.1
 0 C  dx2y2           0.0       0.3       0.1       0.1       0.0       0.1
 0 C  dxy             0.0       0.3       0.0       0.0       0.4       0.1
 1 C  s               0.5      24.7       2.1       0.1       2.5       4.0
 1 C  pz              0.3       0.6       0.4       0.7       0.5       2.2
 1 C  px              1.3       0.0       4.3       0.1      10.5       0.6
 1 C  py              0.0       0.0       0.6      16.7       0.2       0.3
 1 C  dz2             0.0       0.3       0.0       0.1       0.0       0.2
 1 C  dxz             0.3       0.0       0.0       0.1       0.6       0.0
 1 C  dyz             0.0       0.1       0.0       0.9       0.0       0.0
 1 C  dx2y2           0.2       0.0       0.7       0.1       1.2       0.0
 1 C  dxy             0.1       0.0       0.1       1.6       0.0       0.0
 1 C  f+3             0.0       0.2       0.0       0.0       0.0       0.0
 2 C  s               0.0      10.0       3.0      20.6       5.0       1.8
 2 C  pz              0.0       0.9       0.1       0.0       0.3       1.4
 2 C  px              0.1       1.2       0.1       0.0       1.4       0.9
 2 C  py              0.0       2.3       0.3       0.7       0.4       1.0
 2 C  dxz             0.0       0.1       0.0       0.0       0.1       0.2
 2 C  dyz             0.0       0.3       0.0       0.0       0.0       0.2
 2 C  dxy             0.0       0.4       0.0       0.0       0.3       0.1
 3 C  s              13.5       7.3       6.0       0.0       5.5       2.2
 3 C  pz              8.8       2.8       4.3       0.2       0.2       3.1
 3 C  px              2.3       5.2       5.2       0.0       8.0       4.1
 3 C  py              5.4       1.1       6.3       0.5       0.7       1.0
 3 C  dz2             0.5       0.5       0.0       0.0       0.0       0.1
 3 C  dxz             1.1       0.0       0.8       0.0       0.2       0.6
 3 C  dyz             2.5       0.0       0.2       0.0       0.5       0.7
 3 C  dx2y2           0.1       0.8       0.1       0.0       0.3       0.0
 3 C  dxy             0.7       0.3       0.8       0.5       0.0       0.1
 3 C  f+1             0.1       0.0       0.0       0.0       0.0       0.0
 3 C  f-1             0.3       0.0       0.0       0.0       0.0       0.0
 3 C  f-2             0.4       0.0       0.0       0.0       0.0       0.0
 4 O  s              52.4       1.9       1.5       0.1       3.6       9.9
 4 O  pz              2.6       0.8       1.3       0.1       4.9      23.8
 4 O  px              0.7       0.4       0.0       0.1       5.0       3.2
 4 O  py              1.6       0.4       1.2       0.0       2.0      16.9
 4 O  dxz             0.1       0.0       0.0       0.0       0.2       0.1
 4 O  dyz             0.2       0.0       0.1       0.0       0.0       0.4
 5 C  s               0.5       3.8      27.9       0.1       6.5       0.6
 5 C  pz              0.7       0.1       0.2       0.0       0.3       0.9
 5 C  px              0.2       1.1       0.5       0.0       1.6       0.1
 5 C  py              0.8       0.4       0.5       0.0       0.8       0.6
 5 C  dxz             0.1       0.1       0.1       0.0       0.1       0.0
 5 C  dyz             0.3       0.0       0.1       0.0       0.0       0.2
 5 C  dx2y2           0.1       0.0       0.0       0.0       0.0       0.1
 5 C  dxy             0.0       0.2       0.1       0.0       0.4       0.0
 6 H  s               0.0       1.3       0.9       4.9       2.6       1.3
 6 H  pz              0.0       0.1       0.1       0.5       0.2       0.1
 7 H  s               0.0       1.4       0.9       5.1       3.1       1.0
 7 H  px              0.0       0.1       0.1       0.5       0.3       0.1
 8 H  s               0.0       1.4       0.8       5.3       2.3       1.0
 8 H  pz              0.0       0.0       0.0       0.1       0.1       0.0
 8 H  px              0.0       0.0       0.0       0.1       0.1       0.0
 8 H  py              0.0       0.1       0.0       0.3       0.1       0.0
 9 H  s               0.1       4.6       0.3       0.0       1.0       3.6
 9 H  pz              0.0       0.4       0.0       0.0       0.1       0.3
10 H  s               0.0       1.7       0.6       5.7       2.0       1.4
10 H  pz              0.0       0.2       0.1       0.6       0.2       0.1
11 H  s               0.0       1.7       0.7       5.8       2.5       1.1
11 H  px              0.0       0.2       0.1       0.5       0.2       0.1
12 H  s               0.0       1.8       0.6       6.3       1.8       1.0
12 H  px              0.0       0.0       0.0       0.1       0.0       0.0
12 H  py              0.0       0.1       0.1       0.5       0.1       0.0
13 H  s               0.1       0.8       6.2       0.0       2.6       0.7
13 H  px              0.0       0.0       0.1       0.0       0.1       0.0
13 H  py              0.0       0.1       0.5       0.0       0.1       0.0
14 H  s               0.1       0.8       6.5       0.0       2.6       0.4
14 H  pz              0.0       0.1       0.6       0.0       0.2       0.0
15 H  s               0.1       0.6       5.9       0.0       3.1       0.1
15 H  pz              0.0       0.0       0.1       0.0       0.1       0.0
15 H  px              0.0       0.0       0.5       0.0       0.2       0.0

                     12        13        14        15        16        17   
                  -0.96545  -0.95386  -0.91291  -0.88281  -0.84850  -0.84356
                   2.00000   2.00000   2.00000   2.00000   2.00000   2.00000
                  --------  --------  --------  --------  --------  --------
 0 C  s               0.0       0.8       0.0       0.2       0.1       0.1
 0 C  pz              1.6       1.0       1.2       6.1       5.5       2.9
 0 C  px              0.8       0.1       0.6       0.8      19.0       0.1
 0 C  py              0.8       7.7       0.4       8.4       0.1       3.5
 0 C  dxz             0.0       0.0       0.0       0.0       0.4       0.0
 0 C  dyz             0.2       0.2       0.0       0.0       0.0       0.0
 0 C  dx2y2           0.2       0.4       0.1       0.2       0.2       0.0
 0 C  dxy             0.0       0.0       0.0       0.2       0.0       0.0
 1 C  s               0.8       1.8       0.1       0.3       0.1       0.2
 1 C  pz              6.4       1.6       4.6      14.6       0.8       0.9
 1 C  px              4.6      10.5       0.6       0.4       2.2       0.6
 1 C  py              0.4       0.3       1.1       2.4      10.4       5.1
 1 C  dz2             0.1       0.5       0.1       0.0       0.1       0.0
 1 C  dxz             0.2       0.0       0.1       0.8       0.1       0.0
 1 C  dyz             0.0       0.1       0.0       0.0       0.1       0.0
 1 C  dx2y2           0.1       0.2       0.0       0.2       0.6       1.2
 1 C  dxy             0.1       0.4       0.6       0.0       0.0       0.1
 1 C  f-3             0.0       0.0       0.0       0.0       0.1       0.1
 2 C  s               0.1       0.2       0.3       0.0       0.1       0.1
 2 C  pz              2.6       2.3       0.1       6.3       7.8       0.5
 2 C  px              0.1       0.3       2.6       0.1       0.4      28.3
 2 C  py              0.5       3.3       3.5      12.9       4.4       1.2
 2 C  dxz             0.0       0.0       0.0       0.0       0.0       0.4
 2 C  dyz             0.2       0.3       0.0       0.0       0.1       0.0
 2 C  dx2y2           0.0       0.2       0.0       0.1       0.0       0.7
 2 C  dxy             0.0       0.0       0.2       0.3       0.0       0.0
 3 C  s               0.0       3.5       0.0       0.1       0.1       0.4
 3 C  pz              0.7       5.5      13.2       1.8       0.4       0.0
 3 C  px             12.0       0.5       0.8       0.5       0.3       0.1
 3 C  py              2.0       5.9      13.7       0.9       0.0       1.9
 3 C  dz2             0.0       0.0       0.5       0.9       0.0       1.6
 3 C  dxz             1.5       0.0       0.0       0.4       0.6       0.3
 3 C  dyz             0.4       0.0       0.1       0.1       0.7       0.2
 3 C  dx2y2           0.9       0.0       0.4       0.5       0.6       0.5
 3 C  dxy             0.4       0.1       0.2       0.0       1.0       1.4
 3 C  f0              0.0       0.0       0.2       0.1       0.0       0.1
 3 C  f+2             0.2       0.0       0.1       0.0       0.0       0.0
 3 C  f-2             0.1       0.0       0.0       0.0       0.0       0.0
 4 O  s               0.0       1.1       0.0       0.0       0.0       0.0
 4 O  pz              0.9       5.6      15.3       1.1       1.3       5.7
 4 O  px             31.3       3.5       0.2       4.6       1.6       7.7
 4 O  py              5.8       1.5      21.0       2.1       2.3       0.4
 4 O  dz2             0.0       0.0       0.4       0.0       0.0       0.0
 5 C  s               0.8       1.1       0.0       0.0       0.0       0.1
 5 C  pz              3.8       2.9       3.9       0.1       4.0       0.1
 5 C  px              0.6      10.7       0.0       1.2       6.7       4.8
 5 C  py              5.2       5.5       4.1       3.5       0.2       1.9
 5 C  dz2             0.0       0.1       0.1       0.0       0.0       0.1
 5 C  dxz             0.0       0.4       0.1       0.0       0.1       0.2
 5 C  dyz             0.4       0.1       0.1       0.0       0.0       0.0
 5 C  dx2y2           0.1       0.0       0.3       0.0       0.2       0.0
 5 C  dxy             0.1       0.5       0.1       0.1       0.1       0.0
 6 H  s               0.8       1.9       0.3       0.6       2.5       2.2
 6 H  pz              0.0       0.1       0.0       0.0       0.1       0.1
 6 H  px              0.0       0.0       0.0       0.0       0.2       0.0
 6 H  py              0.0       0.0       0.0       0.2       0.0       0.0
 7 H  s               0.1       0.4       0.0       1.8       6.4       0.2
 7 H  pz              0.0       0.0       0.0       0.0       0.2       0.0
 8 H  s               0.1       1.9       0.6       4.1       4.1       0.4
 8 H  px              0.0       0.1       0.0       0.2       0.0       0.0
 8 H  py              0.0       0.0       0.0       0.0       0.3       0.0
 9 H  s               4.4       2.8       0.9       6.7       0.1       0.0
 9 H  pz              0.2       0.1       0.0       0.1       0.0       0.0
 9 H  px              0.0       0.1       0.0       0.0       0.0       0.0
 9 H  py              0.0       0.0       0.0       0.0       0.2       0.1
10 H  s               1.0       0.9       0.1       3.2       3.2       0.2
10 H  pz              0.0       0.0       0.0       0.2       0.1       0.0
10 H  px              0.0       0.0       0.0       0.0       0.0       0.4
10 H  py              0.0       0.1       0.0       0.1       0.1       0.0
11 H  s               0.0       0.0       1.4       0.3       0.0      13.3
11 H  pz              0.0       0.0       0.0       0.0       0.1       0.1
11 H  px              0.0       0.0       0.1       0.0       0.0       0.2
11 H  py              0.0       0.0       0.0       0.1       0.1       0.0
12 H  s               0.2       1.4       1.0       6.4       0.9       4.8
12 H  pz              0.0       0.0       0.0       0.0       0.1       0.0
12 H  px              0.0       0.0       0.1       0.1       0.0       0.1
12 H  py              0.0       0.0       0.0       0.1       0.0       0.3
13 H  s               2.6       1.3       0.7       2.1       0.7       0.2
13 H  px              0.1       0.3       0.0       0.0       0.0       0.0
14 H  s               1.4       2.0       1.9       0.2       0.9       0.1
14 H  px              0.0       0.1       0.0       0.0       0.1       0.1
14 H  py              0.1       0.2       0.0       0.0       0.0       0.0
15 H  s               0.4       4.4       0.5       0.2       5.9       2.8
15 H  pz              0.1       0.3       0.0       0.0       0.0       0.0
15 H  px              0.0       0.1       0.1       0.0       0.1       0.0

                     18        19        20        21        22        23   
                  -0.83524  -0.83012  -0.81583  -0.79349  -0.77749  -0.76926
                   2.00000   2.00000   2.00000   2.00000   2.00000   2.00000
                  --------  --------  --------  --------  --------  --------
 0 C  s               0.0       0.0       0.0       0.2       0.1       0.0
 0 C  pz              0.3       0.1      15.3       1.3      13.7       4.5
 0 C  px              1.7       0.0      14.0       1.1       6.1       5.6
 0 C  py              0.5       0.3       0.6      22.0       0.2       0.0
 0 C  dz2             0.0       0.0       0.5       0.0       0.8       0.9
 0 C  dxz             0.1       0.0       0.2       0.1       0.0       0.1
 0 C  dyz             0.0       0.0       0.1       0.6       1.1       0.4
 0 C  dx2y2           0.1       0.0       0.5       0.3       0.6       0.7
 0 C  dxy             0.0       0.0       0.0       0.7       0.3       0.3
 1 C  s               0.0       0.0       0.0       0.0       0.1       0.1
 1 C  pz              0.0       0.0       0.4       0.1       9.2       5.9
 1 C  px              0.1       0.1       0.1       0.3       5.9       7.4
 1 C  py              1.9       0.1       0.0      10.9       0.0       0.1
 1 C  dz2             0.0       0.1       0.2       0.4       2.0       1.9
 1 C  dyz             0.0       0.0       1.2       0.3       1.0       0.3
 1 C  dx2y2           0.1       0.1       0.2       0.1       1.0       0.8
 1 C  dxy             0.1       0.0       0.9       1.1       0.0       0.0
 1 C  f-1             0.0       0.0       0.1       0.0       0.0       0.0
 1 C  f+2             0.0       0.0       0.0       0.1       0.0       0.1
 1 C  f-2             0.0       0.0       0.0       0.1       0.1       0.0
 1 C  f-3             0.0       0.0       0.1       0.1       0.0       0.0
 2 C  s               0.0       0.0       0.0       0.1       0.3       0.0
 2 C  pz              4.6       0.4      14.6       0.5       7.8       3.1
 2 C  px              0.2       1.9       6.3       1.4       3.8       3.6
 2 C  py              0.0       0.2       0.5      19.7       0.8       0.2
 2 C  dz2             0.1       0.0       1.0       0.9       0.6       1.5
 2 C  dx2y2           0.0       0.0       0.2       1.6       0.4       0.5
 2 C  dxy             0.0       0.0       0.0       0.5       0.0       0.2
 3 C  s               0.2       0.1       0.0       0.0       0.0       0.3
 3 C  pz              0.3       0.7       0.0       0.1       0.1       0.0
 3 C  px              0.2       0.2       0.0       0.2       1.6       8.4
 3 C  py              0.4       0.1       0.1       0.1       0.6       1.0
 3 C  dz2             0.0       2.6       0.0       0.0       0.2       0.3
 3 C  dxz             0.9       0.1       0.1       0.1       1.8       0.8
 3 C  dyz             0.0       0.0       0.0       0.0       0.2       0.7
 3 C  dx2y2           0.1       1.6       0.1       0.0       0.3       1.6
 3 C  dxy             0.5       0.1       0.0       0.6       0.1       0.4
 3 C  f+1             0.1       0.2       0.0       0.0       0.0       0.1
 3 C  f-1             0.1       0.0       0.0       0.0       0.0       0.0
 3 C  f+2             0.4       0.0       0.0       0.0       0.0       0.1
 3 C  f+3             0.0       0.1       0.0       0.0       0.0       0.0
 3 C  f-3             0.5       0.0       0.0       0.0       0.0       0.1
 4 O  pz              1.6       3.7       0.1       0.3       0.0       0.1
 4 O  px              8.3       0.0       1.1       0.2       1.4      11.6
 4 O  py              2.7       8.5       1.1       0.0       1.5       1.2
 4 O  dxz             0.0       0.0       0.0       0.0       0.0       0.2
 4 O  dx2y2           0.0       0.0       0.0       0.0       0.0       0.1
 5 C  s               0.1       0.0       0.0       0.0       0.1       0.2
 5 C  pz             10.6      23.7       0.5       0.1       0.1       1.4
 5 C  px             16.7       2.1       0.0       0.4       2.3       3.6
 5 C  py             10.3      15.5       0.0       0.3       1.3       1.8
 5 C  dz2             0.0       1.8       0.0       0.0       0.0       0.0
 5 C  dxz             0.0       0.4       0.0       0.0       0.1       0.0
 5 C  dyz             0.2       0.5       0.0       0.0       0.0       0.0
 5 C  dx2y2           1.2       0.0       0.0       0.0       0.1       0.1
 5 C  dxy             1.0       0.0       0.0       0.0       0.1       0.0
 6 H  s               0.3       0.0       8.6       0.1       8.4       3.9
 6 H  pz              0.0       0.0       0.2       0.0       0.1       0.0
 6 H  px              0.0       0.0       0.2       0.0       0.1       0.1
 6 H  py              0.0       0.0       0.0       0.3       0.0       0.0
 7 H  s               0.8       0.0      12.4       0.4       0.9       5.9
 7 H  pz              0.0       0.0       0.0       0.0       0.3       0.0
 7 H  px              0.0       0.0       0.3       0.0       0.0       0.1
 7 H  py              0.0       0.0       0.0       0.3       0.0       0.0
 8 H  s               0.1       0.2       0.2      12.2       6.1       0.1
 8 H  pz              0.0       0.0       0.3       0.1       0.0       0.1
 8 H  px              0.0       0.0       0.1       0.1       0.0       0.1
 8 H  py              0.0       0.0       0.0       0.0       0.2       0.0
 9 H  s               0.1       0.1       0.2       0.6       7.7       6.5
 9 H  px              0.0       0.0       0.0       0.0       0.2       0.1
 9 H  py              0.0       0.0       0.0       0.2       0.0       0.0
10 H  s               2.2       0.2       9.0       1.7       4.1       3.3
10 H  pz              0.1       0.0       0.2       0.1       0.0       0.0
10 H  py              0.0       0.0       0.0       0.2       0.0       0.0
11 H  s               0.4       1.1       6.5       0.8       0.7       4.3
11 H  pz              0.0       0.0       0.1       0.0       0.2       0.0
11 H  px              0.0       0.0       0.2       0.0       0.0       0.0
11 H  py              0.0       0.0       0.0       0.3       0.0       0.0
12 H  s               0.1       0.3       0.1      14.0       0.5       0.0
12 H  pz              0.0       0.0       0.2       0.0       0.1       0.0
12 H  px              0.0       0.0       0.1       0.1       0.0       0.1
13 H  s              15.6       6.7       0.1       0.0       0.0       0.1
13 H  pz              0.0       0.5       0.0       0.0       0.0       0.0
13 H  py              0.3       0.0       0.0       0.0       0.0       0.0
14 H  s               0.3      22.2       0.2       0.0       0.1       0.3
14 H  pz              0.1       0.4       0.0       0.0       0.0       0.0
14 H  px              0.2       0.0       0.0       0.0       0.0       0.0
14 H  py              0.2       0.0       0.0       0.0       0.0       0.1
15 H  s              11.6       1.8       0.1       0.2       1.5       1.2
15 H  pz              0.0       0.1       0.0       0.0       0.0       0.1
15 H  px              0.2       0.3       0.0       0.0       0.0       0.0
15 H  py              0.3       0.1       0.0       0.0       0.0       0.0

                     24        25        26        27        28        29   
                  -0.30845  -0.05192  -0.03896  -0.02506  -0.01774   0.00641
                   0.00000   0.00000   0.00000   0.00000   0.00000   0.00000
                  --------  --------  --------  --------  --------  --------
 0 C  s               0.1       0.4       6.2       1.6       0.6       3.4
 0 C  pz              0.0       0.1       0.5       0.4       0.2       0.1
 0 C  px              0.1       0.3       0.3       3.3       0.0       0.4
 0 C  py              0.2       0.6       2.3       7.3       1.2       1.2
 0 C  dz2             0.0       0.6       0.8       1.5       0.3       0.3
 0 C  dxz             0.0       0.1       0.2       0.1       0.0       0.2
 0 C  dyz             0.0       0.0       0.2       0.4       2.3       0.2
 0 C  dx2y2           0.0       0.1       0.1       6.1       0.5       0.1
 0 C  dxy             0.0       1.8       1.2       1.0       1.5       1.2
 0 C  f-1             0.0       0.0       0.0       0.1       0.0       0.0
 0 C  f+2             0.0       0.0       0.0       0.1       0.0       0.0
 0 C  f-2             0.0       0.0       0.0       0.0       0.1       0.1
 0 C  f+3             0.0       0.1       0.3       0.1       0.0       0.0
 0 C  f-3             0.0       0.0       0.0       0.1       0.0       0.0
 1 C  s               0.0       5.1       0.4       8.7       0.3       2.0
 1 C  pz              0.1       0.7       4.8       0.8       3.7       0.7
 1 C  px              0.0       6.8       0.5       8.2       0.8       2.3
 1 C  py              0.1       0.1       4.0       0.3       8.1       0.1
 1 C  dz2             0.4       0.6       7.0       0.2       0.0       0.0
 1 C  dxz             1.8       1.3       0.2       2.0       0.0       1.1
 1 C  dyz             0.0       0.2       0.0       0.0       6.0       0.3
 1 C  dx2y2           0.1       4.2       0.0       5.8       0.1       0.9
 1 C  dxy             2.6       0.0       3.0       0.3       4.5       0.0
 1 C  f-1             0.0       0.0       0.0       0.1       0.0       0.0
 1 C  f+2             0.1       0.1       0.0       0.2       0.0       0.0
 1 C  f-2             0.2       0.0       0.0       0.0       0.2       0.0
 1 C  f+3             0.1       0.3       0.4       0.2       0.0       0.0
 1 C  f-3             0.2       0.0       0.1       0.1       0.0       0.0
 2 C  s               0.7       0.6       1.3       0.4      10.4       1.3
 2 C  pz              0.4       0.5       0.2       2.0       2.0       1.2
 2 C  px              0.7       0.5       0.2       3.7       3.0       1.0
 2 C  py              0.8       0.7       1.1       3.6       2.2       1.1
 2 C  dz2             0.1       0.2       1.0       0.1       0.1       0.7
 2 C  dxz             0.0       0.7       0.6       0.6       1.9       0.6
 2 C  dyz             0.0       0.1       0.6       3.8       0.4       0.1
 2 C  dx2y2           0.3       0.2       0.1       4.2       0.7       0.1
 2 C  dxy             0.1       1.6       0.0       1.4       0.4       0.0
 2 C  f0              0.0       0.0       0.0       0.0       0.2       0.0
 2 C  f+2             0.0       0.0       0.0       0.3       0.0       0.0
 2 C  f-2             0.0       0.1       0.0       0.1       0.1       0.0
 2 C  f+3             0.0       0.0       0.2       0.1       0.2       0.0
 3 C  s               0.0      13.6       1.5       1.6       0.4       0.1
 3 C  pz             20.1       0.9       3.4       0.1       1.0       0.3
 3 C  px              2.3       0.6       0.5       0.2       0.1       6.2
 3 C  py             22.2       0.6       2.0       0.2       0.1       1.0
 3 C  dz2             1.5       0.5       0.9       0.2       0.1       0.3
 3 C  dxz             0.0       0.6       1.6       0.4       0.0       0.5
 3 C  dyz             0.1       7.8       0.8       0.1       1.3       1.8
 3 C  dx2y2           0.2       2.1       0.9       0.4       0.4       1.1
 3 C  dxy             0.4       1.0       2.5       0.4       1.2       0.1
 3 C  f0              0.5       0.2       0.0       0.0       0.0       0.0
 3 C  f+1             0.1       0.4       0.0       0.0       0.1       0.0
 3 C  f-1             0.3       0.1       0.1       0.0       0.0       0.0
 3 C  f+2             0.1       0.2       0.0       0.0       0.0       0.5
 3 C  f-2             0.1       0.8       0.0       0.0       0.0       0.3
 3 C  f+3             0.1       0.9       0.0       0.0       0.0       0.0
 4 O  s               0.0       2.4       1.0       0.1       0.2       0.0
 4 O  pz             13.7       1.9       0.5       0.6       0.1       0.9
 4 O  px              1.7       1.1       0.7       0.3       0.5       2.6
 4 O  py             14.4       1.2       0.4       0.2       0.5       1.6
 4 O  dz2             1.8       0.2       0.0       0.0       0.0       0.1
 4 O  dxz             0.0       0.3       0.0       0.1       0.1       0.2
 4 O  dyz             0.0       0.4       0.0       0.1       0.1       0.4
 4 O  dx2y2           0.3       0.1       0.0       0.0       0.1       0.4
 4 O  dxy             0.4       0.4       0.0       0.1       0.1       0.0
[...]
 5 C  f0              0.0       0.1       0.2       0.0       0.1       0.0
 5 C  f+1             0.0       0.0       0.2       0.0       0.0       0.0
 5 C  f-1             0.1       0.3       0.0       0.1       0.0       0.0
 5 C  f+2             0.1       0.0       0.0       0.1       0.0       0.1
 5 C  f+3             0.0       0.0       0.6       0.0       0.0       0.0
 5 C  f-3             0.0       0.0       0.0       0.1       0.2       0.0
 9 H  s               0.0       0.0       0.1       0.0       0.1       0.0
13 H  s               0.0       0.1       0.1       0.0       0.0       0.0

                    234       235       236       237       238       239   
                   5.94349   6.09890   6.10491   6.40952   6.59559   6.61757
                   0.00000   0.00000   0.00000   0.00000   0.00000   0.00000
                  --------  --------  --------  --------  --------  --------
 1 C  s               0.0       0.9       0.1       0.0       0.1       0.0
 1 C  pz              0.0       0.3       0.0       0.0       0.0       0.0
 1 C  px              0.0       0.6       0.2       0.0       0.0       0.1
 1 C  py              0.0       0.1       0.1       0.0       0.0       0.0
 1 C  dz2             0.0       0.0       0.2       0.0       0.0       0.0
 1 C  dxz             0.0       0.1       0.5       0.0       0.0       0.0
 1 C  dxy             0.1       0.0       0.4       0.0       0.1       0.0
 1 C  f0              0.0       0.0       0.2       0.0       0.0       0.0
 1 C  f+2             0.0       0.0       0.4       0.0       0.0       0.0
 1 C  f-3             0.0       0.0       0.7       0.0       0.0       0.0
 3 C  s               0.0       1.5       0.0       0.0       0.1       3.9
 3 C  pz              0.0       0.2       0.0       0.9       0.1       1.1
 3 C  px              0.0       0.1       0.7       0.2       1.5       0.4
 3 C  py              0.0       0.2       0.1       0.9       0.4       0.7
 3 C  dz2             0.1       0.3       0.2       2.3       0.1       0.0
 3 C  dxz             0.3       0.1       2.0       0.0       1.4       0.2
 3 C  dyz             0.1       0.0       0.7       0.0       0.8       0.3
 3 C  dx2y2           0.1       0.5       1.6       0.3       1.4       0.1
 3 C  dxy             0.3       0.6       0.9       0.5       0.5       0.1
 3 C  f0              0.0       0.0       0.4       0.3       0.0       0.0
 3 C  f+1             0.1       0.0       1.6       0.1       0.0       0.4
 3 C  f-1             0.0       0.0       1.6       0.1       0.2       0.4
 3 C  f+2             0.0       0.0       6.5       0.1       0.8       0.1
 3 C  f-2             0.0       0.0       1.6       0.0       0.1       1.2
 3 C  f+3             0.0       0.0       0.0       0.1       0.0       0.3
 3 C  f-3             0.1       0.0       4.2       0.0       0.2       0.0
 4 O  s               0.0       0.2       0.0       0.0       0.1       1.7
 4 O  pz              0.0       0.0       0.1       1.0       0.2       1.2
 4 O  px              0.0       0.0       1.4       0.1       2.5       0.7
 4 O  py              0.0       0.0       0.3       1.1       0.8       0.6
 4 O  dz2             2.4      11.8       1.3      48.5       2.6       5.4
 4 O  dxz            34.4       0.0      12.9       0.5      16.2      23.1
 4 O  dyz             3.7      26.9       4.7       1.0      16.2      30.0
 4 O  dx2y2          22.2      24.8      11.9       6.1      22.4       0.4
 4 O  dxy            30.8      24.0       3.8      11.5       4.1      12.7
 4 O  f0              0.8       1.7       0.7      11.4       0.3       0.5
 4 O  f+1             1.7       0.0       2.6       3.1       1.5       2.6
 4 O  f-1             0.2       0.8       4.3       4.0       3.8       3.7
 4 O  f+2             0.0       0.1      16.0       1.6      13.0       0.1
 4 O  f-2             0.0       0.1       4.4       1.4       2.1       6.1
 4 O  f+3             0.0       1.8       0.0       2.7       0.0       0.5
 4 O  f-3             1.4       0.1       7.2       0.0       5.1       0.3
 5 C  s               0.0       0.6       0.2       0.0       0.0       0.1
 5 C  pz              0.1       0.2       0.0       0.0       0.0       0.0
 5 C  px              0.0       0.0       0.2       0.0       0.1       0.0
 5 C  py              0.1       0.3       0.0       0.0       0.0       0.0
 5 C  dz2             0.0       0.0       0.2       0.0       0.0       0.0
 5 C  dyz             0.0       0.1       0.3       0.0       0.0       0.0
 5 C  dx2y2           0.0       0.0       0.6       0.0       0.1       0.0
 5 C  dxy             0.0       0.0       0.2       0.0       0.0       0.0
 5 C  f+1             0.0       0.0       0.1       0.0       0.0       0.0
 5 C  f-1             0.0       0.0       0.2       0.0       0.0       0.0
 5 C  f+2             0.0       0.0       0.4       0.0       0.0       0.0
 5 C  f-3             0.0       0.0       0.2       0.0       0.0       0.0

                    240       241       242       243       244       245   
                  20.71794  20.76030  20.79055  21.00778  21.45380  41.52837
                   0.00000   0.00000   0.00000   0.00000   0.00000   0.00000
                  --------  --------  --------  --------  --------  --------
 0 C  s               0.7      21.5      75.8       0.3       0.1       0.0
 1 C  s               2.1       0.3       0.3      96.0       0.1       0.0
 1 C  py              0.0       0.0       0.2       0.0       0.0       0.0
 2 C  s              38.2      48.7      10.2       1.1       0.3       0.0
 3 C  s               0.1       0.4       0.5       0.1      95.7       0.0
 3 C  pz              0.0       0.0       0.0       0.0       0.2       0.0
 3 C  px              0.1       0.0       0.0       0.1       0.0       0.0
 3 C  py              0.1       0.0       0.0       0.0       0.1       0.0
 3 C  dyz             0.0       0.0       0.0       0.0       0.1       0.0
 4 O  s               0.0       0.0       0.0       0.0       1.1      99.9
 4 O  pz              0.0       0.0       0.0       0.0       0.4       0.0
 4 O  py              0.0       0.0       0.0       0.0       0.2       0.0
 5 C  s              57.3      27.5      11.6       1.2       0.8       0.0
 6 H  s               0.0       0.1       0.2       0.0       0.0       0.0
 7 H  s               0.0       0.1       0.2       0.0       0.0       0.0
 8 H  s               0.0       0.1       0.2       0.0       0.0       0.0
 9 H  s               0.0       0.0       0.0       0.3       0.0       0.0
 9 H  pz              0.0       0.0       0.0       0.1       0.0       0.0
10 H  s               0.1       0.1       0.0       0.0       0.0       0.0
11 H  s               0.1       0.1       0.0       0.0       0.0       0.0
12 H  s               0.1       0.1       0.0       0.0       0.0       0.0
13 H  s               0.1       0.1       0.0       0.0       0.0       0.0
14 H  s               0.1       0.1       0.0       0.0       0.0       0.0
15 H  s               0.1       0.1       0.0       0.0       0.0       0.0



                      *****************************
                      * MAYER POPULATION ANALYSIS *
                      *****************************

  NA   - Mulliken gross atomic population
  ZA   - Total nuclear charge
  QA   - Mulliken gross atomic charge
  VA   - Mayer's total valence
  BVA  - Mayer's bonded valence
  FA   - Mayer's free valence

  ATOM       NA         ZA         QA         VA         BVA        FA
  0 C      6.3341     6.0000    -0.3341     3.9359     3.9359    -0.0000
  1 C      6.0072     6.0000    -0.0072     3.7568     3.7568    -0.0000
  2 C      6.3656     6.0000    -0.3656     3.9218     3.9218     0.0000
  3 C      5.7916     6.0000     0.2084     4.0417     4.0417     0.0000
  4 O      8.3211     8.0000    -0.3211     2.1568     2.1568    -0.0000
  5 C      6.3600     6.0000    -0.3600     3.8337     3.8337    -0.0000
  6 H      0.8751     1.0000     0.1249     0.9883     0.9883    -0.0000
  7 H      0.8900     1.0000     0.1100     0.9699     0.9699    -0.0000
  8 H      0.8856     1.0000     0.1144     0.9788     0.9788     0.0000
  9 H      0.9207     1.0000     0.0793     0.9636     0.9636    -0.0000
 10 H      0.8705     1.0000     0.1295     0.9803     0.9803     0.0000
 11 H      0.8800     1.0000     0.1200     0.9737     0.9737    -0.0000
 12 H      0.8904     1.0000     0.1096     0.9742     0.9742     0.0000
 13 H      0.8791     1.0000     0.1209     0.9719     0.9719    -0.0000
 14 H      0.8673     1.0000     0.1327     0.9736     0.9736    -0.0000
 15 H      0.8615     1.0000     0.1385     0.9928     0.9928    -0.0000

  Mayer bond orders larger than 0.100000
B(  0-C ,  1-C ) :   0.9844 B(  0-C ,  6-H ) :   0.9693 B(  0-C ,  7-H ) :   0.9800 
B(  0-C ,  8-H ) :   0.9799 B(  1-C ,  2-C ) :   0.9551 B(  1-C ,  3-C ) :   0.9229 
B(  1-C ,  9-H ) :   0.9597 B(  2-C , 10-H ) :   0.9763 B(  2-C , 11-H ) :   0.9798 
B(  2-C , 12-H ) :   0.9716 B(  3-C ,  4-O ) :   2.1260 B(  3-C ,  5-C ) :   0.9777 
B(  5-C , 13-H ) :   0.9619 B(  5-C , 14-H ) :   0.9509 B(  5-C , 15-H ) :   0.9813 


-------
TIMINGS
-------

Total SCF time: 0 days 0 hours 1 min 32 sec 

Total time                  ....      92.647 sec
Sum of individual times     ....      90.700 sec  ( 97.9%)

SCF preparation             ....       0.208 sec  (  0.2%)
Fock matrix formation       ....      89.405 sec  ( 96.5%)
  Startup                   ....       0.051 sec  (  0.1% of F)
  Split-RI-J                ....       3.500 sec  (  3.9% of F)
  Chain of spheres X        ....      74.822 sec  ( 83.7% of F)
  XC integration            ....      12.076 sec  ( 13.5% of F)
    XC Preparation          ....       0.000 sec  (  0.0% of XC)
    Basis function eval.    ....       2.770 sec  ( 22.9% of XC)
    Density eval.           ....       2.474 sec  ( 20.5% of XC)
    XC-Functional eval.     ....       2.443 sec  ( 20.2% of XC)
    XC-Potential eval.      ....       3.604 sec  ( 29.8% of XC)
Diagonalization             ....       0.000 sec  (  0.0%)
Density matrix formation    ....       0.181 sec  (  0.2%)
Total Energy calculation    ....       0.036 sec  (  0.0%)
Population analysis         ....       0.122 sec  (  0.1%)
Orbital Transformation      ....       0.060 sec  (  0.1%)
Orbital Orthonormalization  ....       0.000 sec  (  0.0%)
DIIS solution               ....       0.348 sec  (  0.4%)
  MO trafo                  ....       0.000 sec  (  0.0 % of DIIS)
  Orb grad                  ....       0.000 sec  (  0.0 % of DIIS)
  Energy W gradient         ....       0.000 sec  (  0.0 % of DIIS)
  DIIS error                ....       0.009 sec  (  2.6 % of DIIS)
  DIIS work                 ....       0.294 sec  ( 84.3 % of DIIS)
  Form Q                    ....       0.000 sec  (  0.0 % of DIIS)
  Form QpQm                 ....       0.000 sec  (  0.0 % of DIIS)
  Exp/Cayley                ....       0.000 sec  (  0.0 % of DIIS)
  Orb update                ....       0.000 sec  (  0.0 % of DIIS)
  Wake-sleep                ....       0.014 sec  (  3.9 % of DIIS)
SOSCF solution              ....       0.192 sec  (  0.2%)
  MO trafo                  ....       0.069 sec  ( 36.0 % of SOSCF)
  Orb grad                  ....       0.003 sec  (  1.3 % of SOSCF)
  Rot update                ....       0.073 sec  ( 38.1 % of SOSCF)
  Step                      ....       0.047 sec  ( 24.5 % of SOSCF)
Grid generation             ....       0.147 sec  (  0.2%)
Finished LeanSCF after  92.8 sec

Maximum memory used throughout the entire LEANSCF-calculation: 30.4 MB
------------------   -----------------
gCP correction             0.010738843
------------------   -----------------

-------------------------   --------------------
FINAL SINGLE POINT ENERGY      -271.794134432904
-------------------------   --------------------


------------------------------------------------------------------------------
                              ORCA PROPERTY CALCULATIONS
------------------------------------------------------------------------------

GBWName                                 ... sp_gas.gbw
Number of atoms                         ...     16
Number of basis functions               ...    246
Max core memory                         ...   1024 MB

Electric properties:
Dipole moment                           ... YES
Quadrupole moment                       ...  NO
Static polarizability (Dipole/Dipole)   ...  NO
Static polarizability (Dipole/Quad.)    ...  NO
Static polarizability (Quad./Quad.)     ...  NO
Static polarizability (Velocity)        ...  NO

Atomic electric properties:
Dipole moment                           ...  NO
Quadrupole moment                       ...  NO
Static polarizability                   ...  NO

Choice of electric origin               ... Center of mass
Position of electric origin             ...    -0.072380     0.230076    -0.134395

General magnetic properties:
Magnetizability                         ...  NO

EPR properties:
g-Tensor (aka g-matrix)                 ...  NO
Zero-Field splitting spin-orbit         ...  NO
Zero-field splitting spin-spin          ...  NO
Hyperfine couplings                     ...  NO (   0 nuclei)
Quadrupole couplings                    ...  NO (   0 nuclei)
Contact density                         ...  NO (   0 nuclei)

NMR properties:
Chemical shifts                         ...  NO (   0 nuclei)
Spin-rotation constants                 ...  NO (   0 nuclei)
Spin-spin couplings                     ...  NO (   0 nuclei,    0 pairs)

Choice of magnetic origin               ... GIAO
Position of magnetic origin             ...     0.000000     0.000000     0.000000

Properties with geometric perturbations:
SCF Hessian                             ...  NO
IR spectrum                             ...  NO
VCD spectrum                            ...  NO
X-ray spectroscopy properties:
SCF XES/XAS/RIXS spectra                ...  NO


-------------
DIPOLE MOMENT
-------------

Method             : SCF
Type of density    : Electron Density
Multiplicity       :   1
Irrep              :   0
Energy             :  -271.8048732764042938 Eh
Relativity type    : 
Basis              : AO
                                X                 Y                 Z
Electronic contribution:     -4.036090571       1.822655034       1.839799677
Nuclear contribution   :      4.530227579      -2.496953748      -2.679777407
                        -----------------------------------------
Total Dipole Moment    :      0.494137008      -0.674298714      -0.839977730
                        -----------------------------------------
Magnitude (a.u.)       :      1.185079206
Magnitude (Debye)      :      3.012231956



--------------------
Rotational spectrum 
--------------------
 
Rotational constants in cm-1:             0.158614             0.094859             0.075080 
Rotational constants in MHz :          4755.135603          2843.815986          2250.835463 

Dipole components along the rotational axes: 
x,y,z [a.u.] :     0.243382    -0.968246    -0.638497 
x,y,z [Debye]:     0.618629    -2.461085    -1.622930 

 

Dipole moment calculation done in   0.0 sec 

Maximum memory used throughout the entire PROP-calculation: 18.1 MB

--------------------------------
SUGGESTED CITATIONS FOR THIS RUN
--------------------------------

Below you find a list of papers that are relevant to this ORCA run
We neither can nor want to force you to cite these papers, but we appreciate if you do
You receive ORCA, which is the product of decades of hard work by many enthusiastic individuals, for free
The only thing we kindly ask in return is that you cite our papers,
We deeply appreciate it, if you show your appreciation for ORCA by not just citing the generic ORCA reference.

Please note that relegating all ORCA citations to the supporting information does *not* help us.
SI sections are not indexed - citations you put there will not count into any citation statistics
But we need these citations in order to attract the funding resources that allow us to do what we are doing

Therefore, if you are a happy ORCA user, please consider citing a few of the papers listed below in the main body of your paper

In addition to the list printed below, the program has created the file sp_gas.bibtex that contains the list in bibtex format
You can import this file easily into all common literature databanks and citation aid programs


List of essential papers. We consider these as the minimum necessary citations

  1. Neese,F.
     Software update: the ORCA program system, version 5.0
     WIRES Comput. Molec. Sci., 2022 12(1)e1606
     doi.org/10.1002/wcms.1606

List of papers to cite with high priority. The work reported in these papers was absolutely
necessary for this run to complete.
Our perspective: the developers of density functionals and basis sets usually get cited in chemistry papers
Good! But without the algorithms to do something with them, the functionals or basis sets would not do anything.
Hence, in our opinion, the algorithm design and method developments papers are equally worthy of getting cited

  1. Neese,F.
     An improvement of the resolution of the identity approximation for the formation of the Coulomb matrix
     J. Comp. Chem., 2003 24(14)1740-1747
     doi.org/10.1002/jcc.10318
  2. Neese,F.; Wennmohs,F.; Hansen,A.; Becker,U.
     Efficient, approximate and parallel Hartree-Fock and hybrid DFT calculations. A 'chain-of-spheres' algorithm for the Hartree-Fock exchange
     Chem. Phys., 2009 356(1-3)98-109
     doi.org/10.1016/j.chemphys.2008.10.036
  3. Helmich-Paris,B.; de Souza,B.; Neese,F.; Izsák,R.
     An improved chain of spheres for exchange algorithm
     J. Chem. Phys., 2021 155 104109
     doi.org/doi: 10.1063/5.0058766.
  4. Neese,F.
     The SHARK Integral Generation and Digestion System
     J. Comp. Chem., 2022  1-16
     doi.org/10.1002/jcc.26942

List of suggested additional citations. These are papers that are important in the 'surrounding' of 
of this run, or papers that preceded the highly important papers. If you like your results we are grateful for a citation.

  1. Izsak,R.; Neese,F.
     An overlap fitted chain of spheres exchange method
     J. Chem. Phys., 2011 135 144105
     doi.org/10.1063/1.3646921
  2. Izsak,R.; Hansen,A.; Neese,F.
     The resolution of identity and chain of spheres approximations for the LPNO-CCSD singles Fock term
     Molec. Phys., 2012 110 2413-2417
     doi.org/10.1080/00268976.2012.687466
  3. Neese,F.
     The ORCA program system
     WIRES Comput. Molec. Sci., 2012 2(1)73-78
     doi.org/10.1002/wcms.81
  4. Izsak,R.; Neese,F.; Klopper,W.
     Robust fitting techniques in the chain of spheres approximation to the Fock exchange: The role of the complementary space
     J. Chem. Phys., 2013 139 
     doi.org/10.1063/1.4819264
  5. Neese,F.
     Software update: the ORCA program system, version 4.0
     WIRES Comput. Molec. Sci., 2018 8(1)1-6
     doi.org/10.1002/wcms.1327
  6. Neese,F.; Wennmohs,F.; Becker,U.; Riplinger,C.
     The ORCA quantum chemistry program package
     J. Chem. Phys., 2020 152 Art. No. L224108
     doi.org/10.1063/5.0004608

List of optional additional citations

  1. Neese,F.
     Approximate second-order SCF convergence for spin unrestricted wavefunctions
     Chem. Phys. Lett., 2000 325(1-3)93-98
     doi.org/10.1016/s0009-2614(00)00662-x

Timings for individual modules:

Sum of individual times          ...       95.097 sec (=   1.585 min)
Startup calculation              ...        1.957 sec (=   0.033 min)   2.1 %
SCF iterations                   ...       93.046 sec (=   1.551 min)  97.8 %
Property calculations            ...        0.093 sec (=   0.002 min)   0.1 %
                             ****ORCA TERMINATED NORMALLY****
TOTAL RUN TIME: 0 days 0 hours 1 minutes 35 seconds 772 msec
