      -----------------------------------------------------------      
     |                   =====================                   |     
     |                           x T B                           |     
     |                   =====================                   |     
     |                         S. Grimme                         |     
     |          Mulliken Center for Theoretical Chemistry        |     
     |                    University of Bonn                     |     
      -----------------------------------------------------------      

   * xtb version 6.7.1 (edcfbbe) compiled by 'albert@albert-system' on 2024-07-22

   xtb is free software: you can redistribute it and/or modify it under
   the terms of the GNU Lesser General Public License as published by
   the Free Software Foundation, either version 3 of the License, or
   (at your option) any later version.
   
   xtb is distributed in the hope that it will be useful,
   but WITHOUT ANY WARRANTY; without even the implied warranty of
   MERCHANTABILITY or FITNESS FOR A PARTICULAR PURPOSE.  See the
   GNU Lesser General Public License for more details.
   
   Cite this work as:
   * C. Bannwarth, E. Caldeweyher, S. Ehlert, A. Hansen, P. Pracht,
     J. Seibert, S. Spicher, S. Grimme, WIREs Comput. Mol. Sci., 2020, 11,
     e01493. DOI: 10.1002/wcms.1493
   
   for GFN2-xTB:
   * C. Bannwarth, S. Ehlert and S. Grimme., J. Chem. Theory Comput., 2019,
     15, 1652-1671. DOI: 10.1021/acs.jctc.8b01176
   for GFN1-xTB:
   * S. Grimme, C. Bannwarth, P. Shushkov, J. Chem. Theory Comput., 2017,
     13, 1989-2009. DOI: 10.1021/acs.jctc.7b00118
   for GFN0-xTB:
   * P. Pracht, E. Caldeweyher, S. Ehlert, S. Grimme, ChemRxiv, 2019, preprint.
     DOI: 10.26434/chemrxiv.8326202.v1
   for GFN-FF:
   * S. Spicher and S. Grimme, Angew. Chem. Int. Ed., 2020, 59, 15665-15673.
     DOI: 10.1002/anie.202004239
   
   for ALPB and GBSA implicit solvation:
   * S. Ehlert, M. Stahn, S. Spicher, S. Grimme, J. Chem. Theory Comput.,
     2021, 17, 4250-4261. DOI: 10.1021/acs.jctc.1c00471
   
   for ddCOSMO and CPCM-X implicit solvation:
   * M. Stahn, S. Ehlert, S. Grimme, J. Phys. Chem. A,
     2023, XX, XXXX-XXXX. DOI: 10.1021/acs.jpca.3c04382
   
   for DFT-D4:
   * E. Caldeweyher, C. Bannwarth and S. Grimme, J. Chem. Phys., 2017,
     147, 034112. DOI: 10.1063/1.4993215
   * E. Caldeweyher, S. Ehlert, A. Hansen, H. Neugebauer, S. Spicher,
     C. Bannwarth and S. Grimme, J. Chem. Phys., 2019, 150, 154122.
     DOI: 10.1063/1.5090222
   * E. Caldeweyher, J.-M. Mewes, S. Ehlert and S. Grimme, Phys. Chem. Chem. Phys.
     2020, 22, 8499-8512. DOI: 10.1039/D0CP00502A
   
   for sTDA-xTB:
   * S. Grimme and C. Bannwarth, J. Chem. Phys., 2016, 145, 054103.
     DOI: 10.1063/1.4959605
   
   in the mass-spec context:
   * V. Asgeirsson, C. Bauer and S. Grimme, Chem. Sci., 2017, 8, 4879.
     DOI: 10.1039/c7sc00601b
   * J. Koopman and S. Grimme, ACS Omega 2019, 4, 12, 15120-15133.
     DOI: 10.1021/acsomega.9b02011
   
   for metadynamics refer to:
   * S. Grimme, J. Chem. Theory Comput., 2019, 155, 2847-2862
     DOI: 10.1021/acs.jctc.9b00143
   
   for SPH calculations refer to:
   * S. Spicher and S. Grimme, J. Chem. Theory Comput., 2021, 17, 1701-1714
     DOI: 10.1021/acs.jctc.0c01306
   
   for ONIOM refer to:
   * C. Plett, A. Katbashev, S. Ehlert, S. Grimme, M. Bursch,
     Phys. Chem. Chem. Phys., 2023, 25, 17860-17868. DOI: 10.1039/D3CP02178E
   
   for DIPRO refer to:
   * J. Kohn, N. Gildemeister, S. Grimme, D. Fazzi, A. Hansen,
     J. Chem. Phys., 2023, just accepted.
   
   for PTB refer to:
   * S. Grimme, M. Mueller, A. Hansen, J. Chem. Phys., 2023, 158, 124111.
     DOI: 10.1063/5.0137838
   
   with help from (in alphabetical order)
   P. Atkinson, C. Bannwarth, F. Bohle, G. Brandenburg, E. Caldeweyher
   M. Checinski, S. Dohm, S. Ehlert, S. Ehrlich, I. Gerasimov, C. Hölzer
   A. Katbashev, J. Kohn, J. Koopman, C. Lavigne, S. Lehtola, F. März, M. Müller,
   F. Musil, H. Neugebauer, J. Pisarek, C. Plett, P. Pracht, F. Pultar,
   J. Seibert, P. Shushkov, S. Spicher, M. Stahn, M. Steiner, T. Strunk,
   J. Stückrath, T. Rose, and J. Unsleber
   
 * started run on 2025/04/06 at 18:00:46.202     
   ID    Z sym.   atoms
    1    6 C      1, 2, 4, 6, 8, 10
    2    1 H      3, 5, 7, 9, 11, 18-24
    3    8 O      12-17

           -------------------------------------------------
          |                Calculation Setup                |
           -------------------------------------------------

          program call               : /srv/scratch/z5358697/.xtb/bin/xtb gas.coord --gfn2 --sp --chrg 0 --norestart --parallel 1
          hostname                   : k155
          coordinate file            : gas.coord
          omp threads                :                     1


           -------------------------------------------------
          |                 G F N 2 - x T B                 |
           -------------------------------------------------

        Reference                      10.1021/acs.jctc.8b01176
      * Hamiltonian:
        H0-scaling (s, p, d)           1.850000    2.230000    2.230000
        zeta-weighting                 0.500000
      * Dispersion:
        s8                             2.700000
        a1                             0.520000
        a2                             5.000000
        s9                             5.000000
      * Repulsion:
        kExp                           1.500000    1.000000
        rExp                           1.000000
      * Coulomb:
        alpha                          2.000000
        third order                    shell-resolved
        anisotropic                    true
        a3                             3.000000
        a5                             4.000000
        cn-shift                       1.200000
        cn-exp                         4.000000
        max-rad                        5.000000


          ...................................................
          :                      SETUP                      :
          :.................................................:
          :  # basis functions                  60          :
          :  # atomic orbitals                  60          :
          :  # shells                           36          :
          :  # electrons                        72          :
          :  max. iterations                   250          :
          :  Hamiltonian                  GFN2-xTB          :
          :  restarted?                      false          :
          :  GBSA solvation                  false          :
          :  PC potential                    false          :
          :  electronic temp.          300.0000000     K    :
          :  accuracy                    1.0000000          :
          :  -> integral cutoff          0.2500000E+02      :
          :  -> integral neglect         0.1000000E-07      :
          :  -> SCF convergence          0.1000000E-05 Eh   :
          :  -> wf. convergence          0.1000000E-03 e    :
          :  Broyden damping             0.4000000          :
          :  net charge                          0          :
          :  unpaired electrons                  0          :
          ...................................................

 iter      E             dE          RMSdq      gap      omega  full diag
   1    -43.6237482 -0.436237E+02  0.466E+00    9.89       0.0  T
   2    -43.6535907 -0.298425E-01  0.259E+00    9.74       1.0  T
   3    -43.6548441 -0.125334E-02  0.628E-01    9.73       1.0  T
   4    -43.6554385 -0.594408E-03  0.142E-01    9.74       1.0  T
   5    -43.6554941 -0.556222E-04  0.588E-02    9.75       1.0  T
   6    -43.6555058 -0.116611E-04  0.194E-02    9.76       1.0  T
   7    -43.6555065 -0.750004E-06  0.574E-03    9.76       3.6  T
   8    -43.6555067 -0.207692E-06  0.177E-03    9.76      11.6  T
   9    -43.6555067 -0.640570E-08  0.717E-04    9.76      28.5  T
  10    -43.6555067 -0.130066E-08  0.258E-04    9.76      79.2  T

   *** convergence criteria satisfied after 10 iterations ***

         #    Occupation            Energy/Eh            Energy/eV
      -------------------------------------------------------------
         1        2.0000           -0.7201357             -19.5959
       ...           ...                  ...                  ...
        30        2.0000           -0.4551701             -12.3858
        31        2.0000           -0.4380161             -11.9190
        32        2.0000           -0.4343715             -11.8199
        33        2.0000           -0.4301287             -11.7044
        34        2.0000           -0.4253507             -11.5744
        35        2.0000           -0.4213086             -11.4644
        36        2.0000           -0.3915966             -10.6559 (HOMO)
        37                         -0.0329297              -0.8961 (LUMO)
        38                          0.0057150               0.1555
        39                          0.0247612               0.6738
        40                          0.0441864               1.2024
        41                          0.0536874               1.4609
       ...                                ...                  ...
        60                          0.2924421               7.9578
      -------------------------------------------------------------
                  HL-Gap            0.3586669 Eh            9.7598 eV
             Fermi-level           -0.2122632 Eh           -5.7760 eV

 SCC (total)                   0 d,  0 h,  0 min,  0.044 sec
 SCC setup                      ...        0 min,  0.000 sec (  0.445%)
 Dispersion                     ...        0 min,  0.000 sec (  0.332%)
 classical contributions        ...        0 min,  0.000 sec (  0.066%)
 integral evaluation            ...        0 min,  0.003 sec (  6.229%)
 iterations                     ...        0 min,  0.033 sec ( 75.428%)
 molecular gradient             ...        0 min,  0.008 sec ( 17.143%)
 printout                       ...        0 min,  0.000 sec (  0.318%)

         :::::::::::::::::::::::::::::::::::::::::::::::::::::
         ::                     SUMMARY                     ::
         :::::::::::::::::::::::::::::::::::::::::::::::::::::
         :: total energy             -43.354499574750 Eh    ::
         :: gradient norm              0.014522839841 Eh/a0 ::
         :: HOMO-LUMO gap              9.759822936921 eV    ::
         ::.................................................::
         :: SCC energy               -43.655336432814 Eh    ::
         :: -> isotropic ES            0.137018564426 Eh    ::
         :: -> anisotropic ES         -0.004781692178 Eh    ::
         :: -> anisotropic XC         -0.010402055376 Eh    ::
         :: -> dispersion             -0.019701955332 Eh    ::
         :: repulsion energy           0.300836858064 Eh    ::
         :: add. restraining           0.000000000000 Eh    ::
         :: total charge               0.000000000000 e     ::
         :::::::::::::::::::::::::::::::::::::::::::::::::::::

           -------------------------------------------------
          |                Property Printout                |
           -------------------------------------------------

    * Orbital Energies and Occupations

         #    Occupation            Energy/Eh            Energy/eV
      -------------------------------------------------------------
         1        2.0000           -0.7201357             -19.5959
       ...           ...                  ...                  ...
        24        2.0000           -0.5169447             -14.0668
        25        2.0000           -0.5035996             -13.7036
        26        2.0000           -0.5009245             -13.6308
        27        2.0000           -0.4980382             -13.5523
        28        2.0000           -0.4892572             -13.3134
        29        2.0000           -0.4732961             -12.8790
        30        2.0000           -0.4551701             -12.3858
        31        2.0000           -0.4380161             -11.9190
        32        2.0000           -0.4343715             -11.8199
        33        2.0000           -0.4301287             -11.7044
        34        2.0000           -0.4253507             -11.5744
        35        2.0000           -0.4213086             -11.4644
        36        2.0000           -0.3915966             -10.6559 (HOMO)
        37                         -0.0329297              -0.8961 (LUMO)
        38                          0.0057150               0.1555
        39                          0.0247612               0.6738
        40                          0.0441864               1.2024
        41                          0.0536874               1.4609
        42                          0.0578793               1.5750
        43                          0.0763776               2.0783
        44                          0.0828999               2.2558
        45                          0.0926060               2.5199
        46                          0.0962862               2.6201
        47                          0.1138958               3.0993
       ...                                ...                  ...
        60                          0.2924421               7.9578
      -------------------------------------------------------------
                  HL-Gap            0.3586669 Eh            9.7598 eV
             Fermi-level           -0.2122632 Eh           -5.7760 eV

     #   Z          covCN         q      C6AA      α(0)
     1   6 C        3.676     0.075    19.539     6.333
     2   6 C        3.756     0.104    18.926     6.203
     3   1 H        0.923     0.037     2.486     2.466
     4   6 C        3.727     0.101    19.013     6.225
     5   1 H        0.924     0.051     2.306     2.375
     6   6 C        3.727     0.106    18.932     6.212
     7   1 H        0.923     0.039     2.469     2.457
     8   6 C        3.726     0.084    19.276     6.269
     9   1 H        0.924     0.059     2.215     2.328
    10   6 C        3.630     0.243    17.184     5.969
    11   1 H        0.921     0.013     2.839     2.635
    12   8 O        1.701    -0.339    19.684     5.990
    13   8 O        1.657    -0.429    21.410     6.246
    14   8 O        1.655    -0.450    21.854     6.311
    15   8 O        1.656    -0.434    21.511     6.261
    16   8 O        1.655    -0.454    21.934     6.322
    17   8 O        1.656    -0.447    21.774     6.299
    18   1 H        0.924     0.039     2.464     2.455
    19   1 H        0.924     0.044     2.401     2.423
    20   1 H        0.804     0.318     0.670     1.286
    21   1 H        0.804     0.319     0.666     1.282
    22   1 H        0.805     0.304     0.710     1.324
    23   1 H        0.804     0.316     0.675     1.290
    24   1 H        0.805     0.301     0.719     1.332

 Mol. C6AA /au·bohr⁶  :       4715.522135
 Mol. C8AA /au·bohr⁸  :     100043.153340
 Mol. α(0) /au        :         98.293389


Wiberg/Mayer (AO) data.
largest (>0.10) Wiberg bond orders for each atom

 ---------------------------------------------------------------------------
     #   Z sym  total        # sym  WBO       # sym  WBO       # sym  WBO
 ---------------------------------------------------------------------------
     1   6 C    3.955 --    17 O    0.998     2 C    0.987    18 H    0.970
                            19 H    0.968
     2   6 C    3.950 --     1 C    0.987    12 O    0.975     4 C    0.959
                             3 H    0.955
     3   1 H    0.999 --     2 C    0.955
     4   6 C    3.954 --    16 O    0.994     6 C    0.972     2 C    0.959
                             5 H    0.958
     5   1 H    0.997 --     4 C    0.958
     6   6 C    3.961 --    15 O    1.004     4 C    0.972     8 C    0.969
                             7 H    0.954
     7   1 H    0.998 --     6 C    0.954
     8   6 C    3.963 --    14 O    1.009     6 C    0.969     9 H    0.956
                            10 C    0.947
     9   1 H    0.997 --     8 C    0.956
    10   6 C    3.925 --    13 O    1.017    12 O    0.957     8 C    0.947
                            11 H    0.943
    11   1 H    1.000 --    10 C    0.943
    12   8 O    2.073 --     2 C    0.975    10 C    0.957
    13   8 O    1.982 --    10 C    1.017    20 H    0.879
    14   8 O    1.959 --     8 C    1.009    21 H    0.865
    15   8 O    1.966 --     6 C    1.004    22 H    0.890
    16   8 O    1.967 --     4 C    0.994    23 H    0.880
    17   8 O    1.949 --     1 C    0.998    24 H    0.896
    18   1 H    0.998 --     1 C    0.970
    19   1 H    0.998 --     1 C    0.968
    20   1 H    0.899 --    13 O    0.879
    21   1 H    0.898 --    14 O    0.865
    22   1 H    0.908 --    15 O    0.890
    23   1 H    0.900 --    16 O    0.880
    24   1 H    0.909 --    17 O    0.896
 ---------------------------------------------------------------------------

Topologies differ in total number of bonds
Writing topology from bond orders to xtbtopo.mol

molecular dipole:
                 x           y           z       tot (Debye)
 q only:       -0.977      -0.278      -0.321
   full:       -1.389      -0.502      -0.409       3.895
molecular quadrupole (traceless):
                xx          xy          yy          xz          yz          zz
 q only:        5.711       2.490      -0.044      -4.072       0.652      -5.666
  q+dip:        6.400       5.075       2.331      -3.606      -2.290      -8.730
   full:        7.221       4.507       1.251      -4.426      -0.762      -8.472


           -------------------------------------------------
          | TOTAL ENERGY              -43.354499574750 Eh   |
          | GRADIENT NORM               0.014522839841 Eh/α |
          | HOMO-LUMO GAP               9.759822936921 eV   |
           -------------------------------------------------

------------------------------------------------------------------------
 * finished run on 2025/04/06 at 18:00:46.292     
------------------------------------------------------------------------
 total:
 * wall-time:     0 d,  0 h,  0 min,  0.089 sec
 *  cpu-time:     0 d,  0 h,  0 min,  0.044 sec
 * ratio c/w:     0.496 speedup
 SCF:
 * wall-time:     0 d,  0 h,  0 min,  0.044 sec
 *  cpu-time:     0 d,  0 h,  0 min,  0.036 sec
 * ratio c/w:     0.810 speedup

