      -----------------------------------------------------------      
     |                   =====================                   |     
     |                           x T B                           |     
     |                   =====================                   |     
     |                         S. Grimme                         |     
     |          Mulliken Center for Theoretical Chemistry        |     
     |                    University of Bonn                     |     
      -----------------------------------------------------------      

   * xtb version 6.7.1 (edcfbbe) compiled by 'albert@albert-system' on 2024-07-22

   xtb is free software: you can redistribute it and/or modify it under
   the terms of the GNU Lesser General Public License as published by
   the Free Software Foundation, either version 3 of the License, or
   (at your option) any later version.
   
   xtb is distributed in the hope that it will be useful,
   but WITHOUT ANY WARRANTY; without even the implied warranty of
   MERCHANTABILITY or FITNESS FOR A PARTICULAR PURPOSE.  See the
   GNU Lesser General Public License for more details.
   
   Cite this work as:
   * C. Bannwarth, E. Caldeweyher, S. Ehlert, A. Hansen, P. Pracht,
     J. Seibert, S. Spicher, S. Grimme, WIREs Comput. Mol. Sci., 2020, 11,
     e01493. DOI: 10.1002/wcms.1493
   
   for GFN2-xTB:
   * C. Bannwarth, S. Ehlert and S. Grimme., J. Chem. Theory Comput., 2019,
     15, 1652-1671. DOI: 10.1021/acs.jctc.8b01176
   for GFN1-xTB:
   * S. Grimme, C. Bannwarth, P. Shushkov, J. Chem. Theory Comput., 2017,
     13, 1989-2009. DOI: 10.1021/acs.jctc.7b00118
   for GFN0-xTB:
   * P. Pracht, E. Caldeweyher, S. Ehlert, S. Grimme, ChemRxiv, 2019, preprint.
     DOI: 10.26434/chemrxiv.8326202.v1
   for GFN-FF:
   * S. Spicher and S. Grimme, Angew. Chem. Int. Ed., 2020, 59, 15665-15673.
     DOI: 10.1002/anie.202004239
   
   for ALPB and GBSA implicit solvation:
   * S. Ehlert, M. Stahn, S. Spicher, S. Grimme, J. Chem. Theory Comput.,
     2021, 17, 4250-4261. DOI: 10.1021/acs.jctc.1c00471
   
   for ddCOSMO and CPCM-X implicit solvation:
   * M. Stahn, S. Ehlert, S. Grimme, J. Phys. Chem. A,
     2023, XX, XXXX-XXXX. DOI: 10.1021/acs.jpca.3c04382
   
   for DFT-D4:
   * E. Caldeweyher, C. Bannwarth and S. Grimme, J. Chem. Phys., 2017,
     147, 034112. DOI: 10.1063/1.4993215
   * E. Caldeweyher, S. Ehlert, A. Hansen, H. Neugebauer, S. Spicher,
     C. Bannwarth and S. Grimme, J. Chem. Phys., 2019, 150, 154122.
     DOI: 10.1063/1.5090222
   * E. Caldeweyher, J.-M. Mewes, S. Ehlert and S. Grimme, Phys. Chem. Chem. Phys.
     2020, 22, 8499-8512. DOI: 10.1039/D0CP00502A
   
   for sTDA-xTB:
   * S. Grimme and C. Bannwarth, J. Chem. Phys., 2016, 145, 054103.
     DOI: 10.1063/1.4959605
   
   in the mass-spec context:
   * V. Asgeirsson, C. Bauer and S. Grimme, Chem. Sci., 2017, 8, 4879.
     DOI: 10.1039/c7sc00601b
   * J. Koopman and S. Grimme, ACS Omega 2019, 4, 12, 15120-15133.
     DOI: 10.1021/acsomega.9b02011
   
   for metadynamics refer to:
   * S. Grimme, J. Chem. Theory Comput., 2019, 155, 2847-2862
     DOI: 10.1021/acs.jctc.9b00143
   
   for SPH calculations refer to:
   * S. Spicher and S. Grimme, J. Chem. Theory Comput., 2021, 17, 1701-1714
     DOI: 10.1021/acs.jctc.0c01306
   
   for ONIOM refer to:
   * C. Plett, A. Katbashev, S. Ehlert, S. Grimme, M. Bursch,
     Phys. Chem. Chem. Phys., 2023, 25, 17860-17868. DOI: 10.1039/D3CP02178E
   
   for DIPRO refer to:
   * J. Kohn, N. Gildemeister, S. Grimme, D. Fazzi, A. Hansen,
     J. Chem. Phys., 2023, just accepted.
   
   for PTB refer to:
   * S. Grimme, M. Mueller, A. Hansen, J. Chem. Phys., 2023, 158, 124111.
     DOI: 10.1063/5.0137838
   
   with help from (in alphabetical order)
   P. Atkinson, C. Bannwarth, F. Bohle, G. Brandenburg, E. Caldeweyher
   M. Checinski, S. Dohm, S. Ehlert, S. Ehrlich, I. Gerasimov, C. Hölzer
   A. Katbashev, J. Kohn, J. Koopman, C. Lavigne, S. Lehtola, F. März, M. Müller,
   F. Musil, H. Neugebauer, J. Pisarek, C. Plett, P. Pracht, F. Pultar,
   J. Seibert, P. Shushkov, S. Spicher, M. Stahn, M. Steiner, T. Strunk,
   J. Stückrath, T. Rose, and J. Unsleber
   
 * started run on 2025/04/03 at 21:51:47.129     
   ID    Z sym.   atoms
    1    6 C      1-8
    2    1 H      9-18

           -------------------------------------------------
          |                Calculation Setup                |
           -------------------------------------------------

          program call               : /srv/scratch/z5358697/.xtb/bin/xtb solv.coord --gfn2 --sp --chrg 0 --norestart --parallel 1 --alpb water reference -I xtb_sp-xcontrol-inp
          hostname                   : k162
          coordinate file            : solv.coord
          omp threads                :                     1


           -------------------------------------------------
          |                 G F N 2 - x T B                 |
           -------------------------------------------------

        Reference                      10.1021/acs.jctc.8b01176
      * Hamiltonian:
        H0-scaling (s, p, d)           1.850000    2.230000    2.230000
        zeta-weighting                 0.500000
      * Dispersion:
        s8                             2.700000
        a1                             0.520000
        a2                             5.000000
        s9                             5.000000
      * Repulsion:
        kExp                           1.500000    1.000000
        rExp                           1.000000
      * Coulomb:
        alpha                          2.000000
        third order                    shell-resolved
        anisotropic                    true
        a3                             3.000000
        a5                             4.000000
        cn-shift                       1.200000
        cn-exp                         4.000000
        max-rad                        5.000000

      * Solvation model:               ALPB
        Solvent                        water
        Parameter file                 internal GFN2-xTB/ALPB
        Dielectric constant                8.0200E+01
        Reference state                gsolv=reference [X=1]
        Free energy shift                  2.8945E-03 Eh       1.8164E+00 kcal/mol
        Temperature                        2.9815E+02 K
        Density                            1.0000E+00 kg/L
        Solvent mass                       1.8000E+01 g/mol
        Interaction kernel             P16
        Born radius scaling (c1)           1.4744E+00
        Born radii integrator          GBOBC
        Born offset                        0.0000E+00 a0       0.0000E+00 AA
        H-bond correction              true
        Ion screening                  false
        Surface tension                    1.0000E-05 Eh       1.5569E+01 dyn/cm
        Grid points                               974 per atom

          ...................................................
          :                      SETUP                      :
          :.................................................:
          :  # basis functions                  42          :
          :  # atomic orbitals                  42          :
          :  # shells                           26          :
          :  # electrons                        42          :
          :  max. iterations                   250          :
          :  Hamiltonian                  GFN2-xTB          :
          :  restarted?                      false          :
          :  GBSA solvation                   true          :
          :  PC potential                    false          :
          :  electronic temp.          300.0000000     K    :
          :  accuracy                    1.0000000          :
          :  -> integral cutoff          0.2500000E+02      :
          :  -> integral neglect         0.1000000E-07      :
          :  -> SCF convergence          0.1000000E-05 Eh   :
          :  -> wf. convergence          0.1000000E-03 e    :
          :  Broyden damping             0.4000000          :
          :  net charge                          0          :
          :  unpaired electrons                  0          :
          ...................................................

 iter      E             dE          RMSdq      gap      omega  full diag
   1    -22.6232492 -0.226232E+02  0.383E+00    4.62       0.0  T
   2    -22.6325563 -0.930706E-02  0.225E+00    4.68       1.0  T
   3    -22.6331006 -0.544376E-03  0.379E-01    4.57       1.0  T
   4    -22.6334671 -0.366455E-03  0.131E-01    4.65       1.0  T
   5    -22.6336006 -0.133481E-03  0.447E-02    4.63       1.0  T
   6    -22.6336100 -0.940817E-05  0.210E-02    4.64       1.1  T
   7    -22.6336100 -0.389556E-07  0.535E-03    4.64       4.4  T
   8    -22.6336105 -0.456864E-06  0.789E-04    4.64      29.9  T
   9    -22.6336105 -0.453099E-09  0.178E-04    4.64     132.3  T

   *** convergence criteria satisfied after 9 iterations ***

         #    Occupation            Energy/Eh            Energy/eV
      -------------------------------------------------------------
         1        2.0000           -0.6384563             -17.3733
       ...           ...                  ...                  ...
        15        2.0000           -0.4561354             -12.4121
        16        2.0000           -0.4524363             -12.3114
        17        2.0000           -0.4494322             -12.2297
        18        2.0000           -0.4146648             -11.2836
        19        2.0000           -0.4140045             -11.2656
        20        2.0000           -0.3910721             -10.6416
        21        2.0000           -0.3826101             -10.4114 (HOMO)
        22                         -0.2121239              -5.7722 (LUMO)
        23                         -0.2115783              -5.7573
        24                         -0.0844491              -2.2980
        25                          0.1102753               3.0007
        26                          0.1155026               3.1430
       ...                                ...                  ...
        42                          0.6641182              18.0716
      -------------------------------------------------------------
                  HL-Gap            0.1704863 Eh            4.6392 eV
             Fermi-level           -0.2973670 Eh           -8.0918 eV

 SCC (total)                   0 d,  0 h,  0 min,  0.008 sec
 SCC setup                      ...        0 min,  0.001 sec ( 10.089%)
 Dispersion                     ...        0 min,  0.000 sec (  1.048%)
 classical contributions        ...        0 min,  0.000 sec (  0.192%)
 integral evaluation            ...        0 min,  0.001 sec ( 13.643%)
 iterations                     ...        0 min,  0.004 sec ( 43.629%)
 molecular gradient             ...        0 min,  0.003 sec ( 30.333%)
 printout                       ...        0 min,  0.000 sec (  0.965%)

         :::::::::::::::::::::::::::::::::::::::::::::::::::::
         ::                     SUMMARY                     ::
         :::::::::::::::::::::::::::::::::::::::::::::::::::::
         :: total energy             -22.220427976224 Eh    ::
         :: total w/o Gsasa/hb       -22.221239947527 Eh    ::
         :: gradient norm              0.000014502888 Eh/a0 ::
         :: HOMO-LUMO gap              4.639167814202 eV    ::
         ::.................................................::
         :: SCC energy               -22.633561066463 Eh    ::
         :: -> isotropic ES            0.004114412058 Eh    ::
         :: -> anisotropic ES          0.004772305969 Eh    ::
         :: -> anisotropic XC          0.014569792395 Eh    ::
         :: -> dispersion             -0.013564031430 Eh    ::
         :: -> Gsolv                   0.000120456936 Eh    ::
         ::    -> Gelec               -0.000691514367 Eh    ::
         ::    -> Gsasa               -0.001514204792 Eh    ::
         ::    -> Ghb                 -0.000568373065 Eh    ::
         ::    -> Gshift               0.002894549160 Eh    ::
         :: repulsion energy           0.413133090239 Eh    ::
         :: add. restraining           0.000000000000 Eh    ::
         :: total charge              -0.000000000000 e     ::
         :::::::::::::::::::::::::::::::::::::::::::::::::::::

           -------------------------------------------------
          |                Property Printout                |
           -------------------------------------------------

    * Orbital Energies and Occupations

         #    Occupation            Energy/Eh            Energy/eV
      -------------------------------------------------------------
         1        2.0000           -0.6384563             -17.3733
       ...           ...                  ...                  ...
         9        2.0000           -0.5018364             -13.6557
        10        2.0000           -0.4959965             -13.4968
        11        2.0000           -0.4882152             -13.2850
        12        2.0000           -0.4681296             -12.7385
        13        2.0000           -0.4671393             -12.7115
        14        2.0000           -0.4650431             -12.6545
        15        2.0000           -0.4561354             -12.4121
        16        2.0000           -0.4524363             -12.3114
        17        2.0000           -0.4494322             -12.2297
        18        2.0000           -0.4146648             -11.2836
        19        2.0000           -0.4140045             -11.2656
        20        2.0000           -0.3910721             -10.6416
        21        2.0000           -0.3826101             -10.4114 (HOMO)
        22                         -0.2121239              -5.7722 (LUMO)
        23                         -0.2115783              -5.7573
        24                         -0.0844491              -2.2980
        25                          0.1102753               3.0007
        26                          0.1155026               3.1430
        27                          0.1471660               4.0046
        28                          0.1516112               4.1255
        29                          0.1620950               4.4108
        30                          0.1952170               5.3121
        31                          0.1983436               5.3972
        32                          0.2003060               5.4506
       ...                                ...                  ...
        42                          0.6641182              18.0716
      -------------------------------------------------------------
                  HL-Gap            0.1704863 Eh            4.6392 eV
             Fermi-level           -0.2973670 Eh           -8.0918 eV

     #   Z          covCN         q      C6AA      α(0)
     1   6 C        3.758    -0.118    22.818     6.810
     2   6 C        2.970     0.005    27.909     8.666
     3   6 C        2.924    -0.047    29.173     8.857
     4   6 C        2.918    -0.043    29.071     8.842
     5   6 C        2.918    -0.043    29.071     8.842
     6   6 C        2.924    -0.047    29.173     8.857
     7   6 C        2.970     0.005    27.909     8.666
     8   6 C        3.758    -0.118    22.818     6.810
     9   1 H        0.925     0.043     2.403     2.424
    10   1 H        0.925     0.053     2.278     2.360
    11   1 H        0.925     0.053     2.278     2.360
    12   1 H        0.926     0.028     2.613     2.528
    13   1 H        0.926     0.025     2.653     2.547
    14   1 H        0.926     0.025     2.653     2.547
    15   1 H        0.926     0.028     2.613     2.528
    16   1 H        0.925     0.053     2.278     2.360
    17   1 H        0.925     0.043     2.403     2.424
    18   1 H        0.925     0.053     2.278     2.360

 Mol. C6AA /au·bohr⁶  :       3280.671335
 Mol. C8AA /au·bohr⁸  :      77477.026147
 Mol. α(0) /au        :         90.789355


Wiberg/Mayer (AO) data.
largest (>0.10) Wiberg bond orders for each atom

 ---------------------------------------------------------------------------
     #   Z sym  total        # sym  WBO       # sym  WBO       # sym  WBO
 ---------------------------------------------------------------------------
     1   6 C    3.996 --     2 C    1.030     9 H    0.985    11 H    0.969
                            10 H    0.969
     2   6 C    3.989 --     3 C    1.422     7 C    1.373     1 C    1.030
                             5 C    0.107
     3   6 C    3.991 --     4 C    1.438     2 C    1.422    12 H    0.969
                             6 C    0.107
     4   6 C    3.992 --     5 C    1.440     3 C    1.438    13 H    0.971
                             7 C    0.107
     5   6 C    3.992 --     4 C    1.440     6 C    1.438    14 H    0.971
                             2 C    0.107
     6   6 C    3.991 --     5 C    1.438     7 C    1.422    15 H    0.969
                             3 C    0.107
     7   6 C    3.989 --     6 C    1.422     2 C    1.373     8 C    1.030
                             4 C    0.107
     8   6 C    3.996 --     7 C    1.030    17 H    0.985    16 H    0.969
                            18 H    0.969
     9   1 H    0.998 --     1 C    0.985
    10   1 H    0.997 --     1 C    0.969
    11   1 H    0.997 --     1 C    0.969
    12   1 H    0.999 --     3 C    0.969
    13   1 H    0.999 --     4 C    0.971
    14   1 H    0.999 --     5 C    0.971
    15   1 H    0.999 --     6 C    0.969
    16   1 H    0.997 --     8 C    0.969
    17   1 H    0.998 --     8 C    0.985
    18   1 H    0.997 --     8 C    0.969
 ---------------------------------------------------------------------------

Topologies differ in total number of bonds
Writing topology from bond orders to xtbtopo.mol

molecular dipole:
                 x           y           z       tot (Debye)
 q only:       -0.524      -0.000      -0.000
   full:       -0.497      -0.000      -0.000       1.263
molecular quadrupole (traceless):
                xx          xy          yy          xz          yz          zz
 q only:        1.435       0.000       0.358       0.000      -0.000      -1.793
  q+dip:        2.722       0.000       2.355       0.000      -0.001      -5.077
   full:        1.753       0.000       1.035       0.000      -0.000      -2.787


           -------------------------------------------------
          | TOTAL ENERGY              -22.220427976224 Eh   |
          | GRADIENT NORM               0.000014502888 Eh/α |
          | HOMO-LUMO GAP               4.639167814202 eV   |
           -------------------------------------------------

------------------------------------------------------------------------
 * finished run on 2025/04/03 at 21:51:47.163     
------------------------------------------------------------------------
 total:
 * wall-time:     0 d,  0 h,  0 min,  0.034 sec
 *  cpu-time:     0 d,  0 h,  0 min,  0.014 sec
 * ratio c/w:     0.409 speedup
 SCF:
 * wall-time:     0 d,  0 h,  0 min,  0.008 sec
 *  cpu-time:     0 d,  0 h,  0 min,  0.008 sec
 * ratio c/w:     0.989 speedup

