
                                 *****************
                                 * O   R   C   A *
                                 *****************

                                            #,                                       
                                            ###                                      
                                            ####                                     
                                            #####                                    
                                            ######                                   
                                           ########,                                 
                                     ,,################,,,,,                         
                               ,,#################################,,                 
                          ,,##########################################,,             
                       ,#########################################, ''#####,          
                    ,#############################################,,   '####,        
                  ,##################################################,,,,####,       
                ,###########''''           ''''###############################       
              ,#####''   ,,,,##########,,,,          '''####'''          '####       
            ,##' ,,,,###########################,,,                        '##       
           ' ,,###''''                  '''############,,,                           
         ,,##''                                '''############,,,,        ,,,,,,###''
      ,#''                                            '''#######################'''  
     '                                                          ''''####''''         
             ,#######,   #######,   ,#######,      ##                                
            ,#'     '#,  ##    ##  ,#'     '#,    #''#        ,####,   ,####,        
            ##       ##  ##   ,#'  ##            #'  '#       #'       #'  '#        
            ##       ##  #######   ##           ,######,      #####,   #    #        
            '#,     ,#'  ##    ##  '#,     ,#' ,#      #,     #,   #   #,  ,#        
             '#######'   ##     ##  '#######'  #'      '#     '####' # '####'        



                #########################################################
                #                        -***-                          #
                #          Department of theory and spectroscopy        #
                #                                                       #
                #                      Frank Neese                      #
                #                                                       #
                #     Directorship, Architecture, Infrastructure        #
                #                    SHARK, DRIVERS                     #
                #        Core code/Algorithms in most modules           #
                #                                                       #
                #        Max Planck Institute fuer Kohlenforschung      #
                #                Kaiser Wilhelm Platz 1                 #
                #                 D-45470 Muelheim/Ruhr                 #
                #                      Germany                          #
                #                                                       #
                #                  All rights reserved                  #
                #                        -***-                          #
                #########################################################


                         Program Version 6.0.0  -   RELEASE  -


 With contributions from (in alphabetic order):
   Daniel Aravena         : Magnetic Suceptibility
   Michael Atanasov       : Ab Initio Ligand Field Theory (pilot matlab implementation)
   Alexander A. Auer      : GIAO ZORA, VPT2 properties, NMR spectrum
   Ute Becker             : All parallelization in ORCA, NUMFREQ, NUMCALC
   Giovanni Bistoni       : ED, misc. LED, open-shell LED, HFLD
   Martin Brehm           : Molecular dynamics
   Dmytro Bykov           : pre 5.0 version of the SCF Hessian
   Marcos Casanova-Páez   : Triplet and SCS-CIS(D). UHF-(DLPNO)-IP/EA/STEOM-CCSD. UHF-CVS-IP/STEOM-CCSD
   Vijay G. Chilkuri      : MRCI spin determinant printing, contributions to CSF-ICE
   Pauline Colinet        : FMM embedding
   Dipayan Datta          : RHF DLPNO-CCSD density
   Achintya Kumar Dutta   : EOM-CC, STEOM-CC
   Nicolas Foglia         : Exact transition moments, OPA infrastructure, MCD improvements
   Dmitry Ganyushin       : Spin-Orbit,Spin-Spin,Magnetic field MRCI
   Miquel Garcia          : C-PCM and meta-GGA Hessian, CCSD/C-PCM, Gaussian charge scheme
   Tiago L. C. Gouveia    : GS-ROHF, GS-ROCIS
   Yang Guo               : DLPNO-NEVPT2, F12-NEVPT2, CIM, IAO-localization
   Andreas Hansen         : Spin unrestricted coupled pair/coupled cluster methods
   Ingolf Harden          : AUTO-CI MPn and infrastructure 
   Benjamin Helmich-Paris : MC-RPA, TRAH-(SCF,CASSCF), AVAS, COSX integrals, SCF dyn. polar.
   Lee Huntington         : MR-EOM, pCC
   Robert Izsak           : Overlap fitted RIJCOSX, COSX-SCS-MP3, EOM
   Riya Kayal             : Wick's Theorem for AUTO-CI, AUTO-CI UHF-CCSDT
   Emily Kempfer          : AUTO-CI, RHF CISDT and CCSDT
   Christian Kollmar      : KDIIS, OOCD, Brueckner-CCSD(T), CCSD density, CASPT2, CASPT2-K, improved NEVPT2
   Axel Koslowski         : Symmetry handling
   Simone Kossmann        : Meta GGA functionals, TD-DFT gradient, OOMP2, (MP2 Hessian; deprecated post 5.0)
   Lucas Lang             : DCDCAS
   Marvin Lechner         : AUTO-CI (C++ implementation), FIC-MRCC
   Spencer Leger          : CASSCF response
   Dagmar Lenk            : GEPOL surface, SMD, ORCA-2-JSON
   Dimitrios Liakos       : Extrapolation schemes; Compound Job, initial MDCI parallelization
   Dimitrios Manganas     : Further ROCIS development; embedding schemes. LFT, Crystal Embedding
   Dimitrios Pantazis     : SARC Basis sets
   Anastasios Papadopoulos: AUTO-CI, single reference methods and gradients
   Taras Petrenko         : pre 6.0 DFT Hessian and TD-DFT gradient, (ASA, deprecated), ECA, 1-Electron XAS/XES, NRVS
   Peter Pinski           : DLPNO-MP2, DLPNO-MP2 Gradient
   Christoph Reimann      : Effective Core Potentials
   Marius Retegan         : Local ZFS, SOC
   Christoph Riplinger    : Optimizer, TS searches, QM/MM, DLPNO-CCSD(T), (RO)-DLPNO pert. Triples
   Michael Roemelt        : Original ROCIS implementation
   Masaaki Saitow         : Open-shell DLPNO-CCSD energy and density
   Barbara Sandhoefer     : DKH picture change effects
   Kantharuban Sivalingam : CASSCF convergence/infrastructure, NEVPT2 and variants, FIC-MRCI
   Bernardo de Souza      : ESD, SOC TD-DFT
   Georgi Stoychev        : AutoAux, RI-MP2 NMR, DLPNO-MP2 response, X2C
   Van Anh Tran           : RI-MP2 g-tensors
   Willem Van den Heuvel  : Paramagnetic NMR
   Zikuan Wang            : NOTCH, Electric field optimization 
   Frank Wennmohs         : Technical directorship and infrastructure
   Hang Xu                : AUTO-CI-Response properties 


 We gratefully acknowledge several colleagues who have allowed us to
 interface, adapt or use parts of their codes:
   Stefan Grimme, W. Hujo, H. Kruse, P. Pracht,  : VdW corrections, initial TS optimization,
                  C. Bannwarth, S. Ehlert,         DFT functionals, gCP, sTDA/sTD-DF
                  L. Wittmann, M. Mueller
   Ed Valeev, F. Pavosevic, A. Kumar             : LibInt (2-el integral package), F12 methods
   Garnet Chan, S. Sharma, J. Yang, R. Olivares  : DMRG
   Ulf Ekstrom                                   : XCFun DFT Library
   Mihaly Kallay                                 : mrcc  (arbitrary order and MRCC methods)
   Frank Weinhold                                : gennbo (NPA and NBO analysis)
   Simon Mueller                                 : openCOSMO-RS
   Christopher J. Cramer and Donald G. Truhlar   : smd solvation model
   Lars Goerigk                                  : TD-DFT with DH, B97 family of functionals
   V. Asgeirsson, H. Jonsson                     : NEB implementation
   FAccTs GmbH                                   : IRC, NEB, NEB-TS, DLPNO-Multilevel, CI-OPT
                                                   MM, QMMM, 2- and 3-layer-ONIOM, Crystal-QMMM,
                                                   LR-CPCM, SF, NACMEs, symmetry and pop. for TD-DFT,
                                                   nearIR, NL-DFT gradient (VV10), updates on ESD,
                                                   ML-optimized integration grids, MBIS, APM,
                                                   GOAT, DOCKER, SOLVATOR, interface openCOSMO-RS
   S Lehtola, MJT Oliveira, MAL Marques          : LibXC Library
   Liviu Ungur et al                             : ANISO software


 Your calculation uses the libint2 library for the computation of 2-el integrals
 For citations please refer to: http://libint.valeyev.net

 Your ORCA version has been built with support for libXC version: 6.2.2
 For citations please refer to: https://libxc.gitlab.io

 This ORCA versions uses:
   CBLAS   interface :  Fast vector & matrix operations
   LAPACKE interface :  Fast linear algebra routines
   SCALAPACK package :  Parallel linear algebra routines
   Shared memory     :  Shared parallel matrices
   BLAS/LAPACK       :  OpenBLAS 0.3.27  USE64BITINT DYNAMIC_ARCH NO_AFFINITY SkylakeX SINGLE_THREADED
        Core in use  :  SkylakeX
   Copyright (c) 2011-2014, The OpenBLAS Project


Your calculation utilizes the geometrical counterpoise correction gCP
Please cite in your paper:
H.Kruse, S. Grimme J.Chem.Phys., 136, (2012), 154101 
   

Your calculation utilizes the atom-pairwise dispersion correction
based on EEQ partial charges (D4)


================================================================================

----- Orbital basis set information -----
Your calculation utilizes the basis: def2-SV(P)
   F. Weigend and R. Ahlrichs, Phys. Chem. Chem. Phys. 7, 3297 (2005).

----- AuxJ basis set information -----
Your calculation utilizes the auxiliary basis: def2/J
   F. Weigend, Phys. Chem. Chem. Phys. 8, 1057 (2006).

================================================================================
                                        WARNINGS
                       Please study these warnings very carefully!
================================================================================


================================================================================
                                       INPUT FILE
================================================================================
NAME = sp.inp
|  1> ! pbe def2-sv(p) def2/J RI DEFGRID1 loosescf d4 GCP(DFT/SV(P)) printgap
|  2> %output
|  3>     printlevel normal
|  4> end
|  5> * xyz 0 1
|  6> C -2.5528581569 -0.6717440951 -0.370500795
|  7> C -1.1729161721 -0.313908004 0.1754101143
|  8> H -1.2356997346 -0.2689241135 1.2737850049
|  9> C -0.6915612035 1.0462696161 -0.3486811081
| 10> H -0.6540617076 1.0096218349 -1.4490179175
| 11> C 0.7271372786 1.3185505329 0.1676998024
| 12> H 0.6941783821 1.4210817032 1.2644643161
| 13> C 1.6497660659 0.1463374605 -0.1759664793
| 14> H 1.7528570598 0.0740107642 -1.2692020081
| 15> C 1.0190085487 -1.1646694531 0.3220542152
| 16> H 0.9601550166 -1.1311457942 1.4318558276
| 17> O -0.2718607725 -1.3335639214 -0.2083011838
| 18> O 1.8109530281 -2.2130030996 -0.1044141311
| 19> O 2.8941487423 0.3849858682 0.4293055512
| 20> O 1.1697468579 2.5191557355 -0.4149974418
| 21> O -1.5875162203 2.0364772979 0.0778039173
| 22> O -3.0994174922 -1.6981887521 0.4237737808
| 23> H -2.4339234942 -0.9989368926 -1.4097195276
| 24> H -3.1716302615 0.2316831439 -0.3275226914
| 25> H 1.3185462832 -3.0446658712 -0.0223794509
| 26> H 3.4734054849 -0.3746440976 0.2688889971
| 27> H 2.0965856798 2.657497836 -0.1696497402
| 28> H -1.2068271285 2.9016373217 -0.141774876
| 29> H -3.9628655945 -1.949380161 0.0658339816
| 30> *
| 31> 
| 32>                          ****END OF INPUT****
================================================================================

                       ****************************
                       * Single Point Calculation *
                       ****************************

---------------------------------
CARTESIAN COORDINATES (ANGSTROEM)
---------------------------------
  C     -2.552858   -0.671744   -0.370501
  C     -1.172916   -0.313908    0.175410
  H     -1.235700   -0.268924    1.273785
  C     -0.691561    1.046270   -0.348681
  H     -0.654062    1.009622   -1.449018
  C      0.727137    1.318551    0.167700
  H      0.694178    1.421082    1.264464
  C      1.649766    0.146337   -0.175966
  H      1.752857    0.074011   -1.269202
  C      1.019009   -1.164669    0.322054
  H      0.960155   -1.131146    1.431856
  O     -0.271861   -1.333564   -0.208301
  O      1.810953   -2.213003   -0.104414
  O      2.894149    0.384986    0.429306
  O      1.169747    2.519156   -0.414997
  O     -1.587516    2.036477    0.077804
  O     -3.099417   -1.698189    0.423774
  H     -2.433923   -0.998937   -1.409720
  H     -3.171630    0.231683   -0.327523
  H      1.318546   -3.044666   -0.022379
  H      3.473405   -0.374644    0.268889
  H      2.096586    2.657498   -0.169650
  H     -1.206827    2.901637   -0.141775
  H     -3.962866   -1.949380    0.065834

----------------------------
CARTESIAN COORDINATES (A.U.)
----------------------------
  NO LB      ZA    FRAG     MASS         X           Y           Z
   0 C     6.0000    0    12.011   -4.824203   -1.269412   -0.700145
   1 C     6.0000    0    12.011   -2.216490   -0.593200    0.331477
   2 H     1.0000    0     1.008   -2.335134   -0.508193    2.407105
   3 C     6.0000    0    12.011   -1.306861    1.977163   -0.658912
   4 H     1.0000    0     1.008   -1.235998    1.907909   -2.738247
   5 C     6.0000    0    12.011    1.374090    2.491699    0.316907
   6 H     1.0000    0     1.008    1.311807    2.685455    2.389491
   7 C     6.0000    0    12.011    3.117606    0.276538   -0.332528
   8 H     1.0000    0     1.008    3.312420    0.139860   -2.398444
   9 C     6.0000    0    12.011    1.925647   -2.200906    0.608594
  10 H     1.0000    0     1.008    1.814430   -2.137556    2.705815
  11 O     8.0000    0    15.999   -0.513742   -2.520071   -0.393632
  12 O     8.0000    0    15.999    3.422205   -4.181970   -0.197314
  13 O     8.0000    0    15.999    5.469149    0.727518    0.811270
  14 O     8.0000    0    15.999    2.210501    4.760514   -0.784232
  15 O     8.0000    0    15.999   -2.999971    3.848384    0.147028
  16 O     8.0000    0    15.999   -5.857050   -3.209112    0.800816
  17 H     1.0000    0     1.008   -4.599449   -1.887717   -2.663984
  18 H     1.0000    0     1.008   -5.993513    0.437818   -0.618928
  19 H     1.0000    0     1.008    2.491691   -5.753585   -0.042291
  20 H     1.0000    0     1.008    6.563785   -0.707975    0.508127
  21 H     1.0000    0     1.008    3.961973    5.021943   -0.320592
  22 H     1.0000    0     1.008   -2.280573    5.483300   -0.267916
  23 H     1.0000    0     1.008   -7.488731   -3.683795    0.124408

--------------------------------
INTERNAL COORDINATES (ANGSTROEM)
--------------------------------
 C      0   0   0     0.000000000000     0.00000000     0.00000000
 C      1   0   0     1.526533743617     0.00000000     0.00000000
 H      2   1   0     1.101087065779   108.34671216     0.00000000
 C      2   1   3     1.535075689800   111.65819896   240.19924952
 H      4   2   1     1.101585387603   108.79725076   301.00074165
 C      4   2   1     1.534109359040   109.40996839   183.10596053
 H      6   4   2     1.102039621907   108.89555993   294.80321824
 C      6   4   2     1.530827841215   110.23587934    53.38571382
 H      8   6   4     1.100464822451   109.25724233    65.06048123
 C      8   6   4     1.537731701293   109.44550920   307.35116723
 H     10   8   6     1.111866535530   108.61892740   295.54627128
 O     10   8   6     1.405754528745   110.91045178    55.76446829
 O     10   8   6     1.381323547628   108.17233159   174.75166089
 O      8   6   4     1.404206373268   107.89024361   185.68689881
 O      6   4   2     1.406019975177   107.64819856   175.54856184
 O      4   2   1     1.401833129197   108.76003464    61.33989212
 O      1   2   3     1.408257022936   108.66279450   316.81561018
 H      1   2   3     1.095981822347   108.11805494   196.18088245
 H      1   2   3     1.095858937540   107.64687281    77.19819122
 H     13  10   8     0.969977864100   109.48475173   195.63176655
 H     14   8   6     0.968663785644   108.98208558   176.44250670
 H     15   6   4     0.968692021869   108.55277445   185.69594624
 H     16   4   2     0.970381830964   108.07090796   171.59418204
 H     17   1   2     0.967863962095   109.07592720   181.78466605

---------------------------
INTERNAL COORDINATES (A.U.)
---------------------------
 C      0   0   0     0.000000000000     0.00000000     0.00000000
 C      1   0   0     2.884730709625     0.00000000     0.00000000
 H      2   1   0     2.080753003925   108.34671216     0.00000000
 C      2   1   3     2.900872648561   111.65819896   240.19924952
 H      4   2   1     2.081694695699   108.79725076   301.00074165
 C      4   2   1     2.899046548072   109.40996839   183.10596053
 H      6   4   2     2.082553074135   108.89555993   294.80321824
 C      6   4   2     2.892845378077   110.23587934    53.38571382
 H      8   6   4     2.079577134446   109.25724233    65.06048123
 C      8   6   4     2.905891782893   109.44550920   307.35116723
 H     10   8   6     2.101123249624   108.61892740   295.54627128
 O     10   8   6     2.656491070847   110.91045178    55.76446829
 O     10   8   6     2.610323207354   108.17233159   174.75166089
 O      8   6   4     2.653565480984   107.89024361   185.68689881
 O      6   4   2     2.656992691907   107.64819856   175.54856184
 O      4   2   1     2.649080699641   108.76003464    61.33989212
 O      1   2   3     2.661220099521   108.66279450   316.81561018
 H      1   2   3     2.071105491991   108.11805494   196.18088245
 H      1   2   3     2.070873273361   107.64687281    77.19819122
 H     13  10   8     1.832992519115   109.48475173   195.63176655
 H     14   8   6     1.830509270715   108.98208558   176.44250670
 H     15   6   4     1.830562629446   108.55277445   185.69594624
 H     16   4   2     1.833755905854   108.07090796   171.59418204
 H     17   1   2     1.828997823251   109.07592720   181.78466605

---------------------
BASIS SET INFORMATION
---------------------
There are 3 groups of distinct atoms

 Group   1 Type C   : 7s4p1d contracted to 3s2p1d pattern {511/31/1}
 Group   2 Type H   : 4s contracted to 2s pattern {31}
 Group   3 Type O   : 7s4p1d contracted to 3s2p1d pattern {511/31/1}

Atom   0C    basis set group =>   1
Atom   1C    basis set group =>   1
Atom   2H    basis set group =>   2
Atom   3C    basis set group =>   1
Atom   4H    basis set group =>   2
Atom   5C    basis set group =>   1
Atom   6H    basis set group =>   2
Atom   7C    basis set group =>   1
Atom   8H    basis set group =>   2
Atom   9C    basis set group =>   1
Atom  10H    basis set group =>   2
Atom  11O    basis set group =>   3
Atom  12O    basis set group =>   3
Atom  13O    basis set group =>   3
Atom  14O    basis set group =>   3
Atom  15O    basis set group =>   3
Atom  16O    basis set group =>   3
Atom  17H    basis set group =>   2
Atom  18H    basis set group =>   2
Atom  19H    basis set group =>   2
Atom  20H    basis set group =>   2
Atom  21H    basis set group =>   2
Atom  22H    basis set group =>   2
Atom  23H    basis set group =>   2
---------------------------------
AUXILIARY/J BASIS SET INFORMATION
---------------------------------
There are 3 groups of distinct atoms

 Group   1 Type C   : 12s5p4d2f1g contracted to 6s4p3d1f1g pattern {711111/2111/211/2/1}
 Group   2 Type H   : 5s2p1d contracted to 3s1p1d pattern {311/2/1}
 Group   3 Type O   : 12s5p4d2f1g contracted to 6s4p3d1f1g pattern {711111/2111/211/2/1}

Atom   0C    basis set group =>   1
Atom   1C    basis set group =>   1
Atom   2H    basis set group =>   2
Atom   3C    basis set group =>   1
Atom   4H    basis set group =>   2
Atom   5C    basis set group =>   1
Atom   6H    basis set group =>   2
Atom   7C    basis set group =>   1
Atom   8H    basis set group =>   2
Atom   9C    basis set group =>   1
Atom  10H    basis set group =>   2
Atom  11O    basis set group =>   3
Atom  12O    basis set group =>   3
Atom  13O    basis set group =>   3
Atom  14O    basis set group =>   3
Atom  15O    basis set group =>   3
Atom  16O    basis set group =>   3
Atom  17H    basis set group =>   2
Atom  18H    basis set group =>   2
Atom  19H    basis set group =>   2
Atom  20H    basis set group =>   2
Atom  21H    basis set group =>   2
Atom  22H    basis set group =>   2
Atom  23H    basis set group =>   2
------------------------------------------------------------------------------
                             ORCA STARTUP CALCULATIONS
                           -- RI-GTO INTEGRALS CHOSEN --
------------------------------------------------------------------------------
------------------------------------------------------------------------------
                   ___                                                        
                  /   \      - P O W E R E D   B Y -                         
                 /     \                                                     
                 |  |  |   _    _      __       _____    __    __             
                 |  |  |  | |  | |    /  \     |  _  \  |  |  /  |          
                  \  \/   | |  | |   /    \    | | | |  |  | /  /          
                 / \  \   | |__| |  /  /\  \   | |_| |  |  |/  /          
                |  |  |   |  __  | /  /__\  \  |    /   |      \           
                |  |  |   | |  | | |   __   |  |    \   |  |\   \          
                \     /   | |  | | |  |  |  |  | |\  \  |  | \   \       
                 \___/    |_|  |_| |__|  |__|  |_| \__\ |__|  \__/        
                                                                              
                      - O R C A' S   B I G   F R I E N D -                    
                                      &                                       
                       - I N T E G R A L  F E E D E R -                       
                                                                              
 v1 FN, 2020, v2 2021, v3 2022-2024                                           
------------------------------------------------------------------------------


----------------------
SHARK INTEGRAL PACKAGE
----------------------

Number of atoms                             ...     24
Number of basis functions                   ...    192
Number of shells                            ...     96
Maximum angular momentum                    ...      2
Integral batch strategy                     ... SHARK/LIBINT Hybrid
RI-J (if used) integral strategy            ... SPLIT-RIJ (Revised 2003 algorithm where possible)
Printlevel                                  ...      1
Contraction scheme used                     ... SEGMENTED contraction
Prescreening option                         ... SCHWARTZ
   Thresh                                   ... 1.000e-09
   Tcut                                     ... 1.000e-10
   Tpresel                                  ... 1.000e-10 
Coulomb Range Separation                    ... NOT USED
Exchange Range Separation                   ... NOT USED
Multipole approximations                    ... NOT USED
Finite Nucleus Model                        ... NOT USED
CABS basis                                  ... NOT available
Auxiliary Coulomb fitting basis             ... AVAILABLE
   # of basis functions in Aux-J            ...    720
   # of shells in Aux-J                     ...    240
   Maximum angular momentum in Aux-J        ...      4
Auxiliary J/K fitting basis                 ... NOT available
Auxiliary Correlation fitting basis         ... NOT available
Auxiliary 'external' fitting basis          ... NOT available

Checking pre-screening integrals            ... done (  0.0 sec) Dimension = 96
Check shell pair data                       ... done (  0.0 sec)
Shell pair information
Shell pair cut-off parameter TPreSel        ...   1.0e-10
Total number of shell pairs                 ...      4656
Shell pairs after pre-screening             ...      4111
Total number of primitive shell pairs       ...     18720
Primitive shell pairs kept                  ...     11002
          la=0 lb=0:   1600 shell pairs
          la=1 lb=0:   1306 shell pairs
          la=1 lb=1:    283 shell pairs
          la=2 lb=0:    599 shell pairs
          la=2 lb=1:    258 shell pairs
          la=2 lb=2:     65 shell pairs

Calculating one electron integrals          ... done (  0.0 sec)
Calculating RI/J V-Matrix + Cholesky decomp.... done (  0.1 sec)
Calculating Nuclear repulsion               ... done (  0.0 sec) ENN=    824.600871133202 Eh

Diagonalization of the overlap matrix:
Smallest eigenvalue                        ... 9.771e-04
Time for diagonalization                   ...    0.004 sec
Threshold for overlap eigenvalues          ... 1.000e-07
Number of eigenvalues below threshold      ... 0
Time for construction of square roots      ...    0.014 sec
Total time needed                          ...    0.026 sec

-------------------
DFT GRID GENERATION
-------------------

General Integration Accuracy     IntAcc      ... 4.159
Radial Grid Type                 RadialGrid  ... OptM3 with GC (2021)
Angular Grid (max. ang.)         AngularGrid ... 3 (Lebedev-194)
Angular grid pruning method      GridPruning ... 4 (adaptive)
Weight generation scheme         WeightScheme... mBecke (2022)
Basis function cutoff            BFCut       ... 1.0000e-10
Integration weight cutoff        WCut        ... 1.0000e-14
Partially contracted basis set               ... off
Rotationally invariant grid construction     ... off
Angular grids for H and He will be reduced by one unit

Total number of grid points                  ...    55809
Total number of batches                      ...      884
Average number of points per batch           ...       63
Average number of grid points per atom       ...     2325
Initializing property integral containers    ... done (  0.1 sec)

SHARK setup successfully completed in   1.0 seconds

Maximum memory used throughout the entire STARTUP-calculation: 27.9 MB
-------------------------------------------------------------------------------
                                 ORCA GUESS
                   Start orbitals & Density for SCF / CASSCF
-------------------------------------------------------------------------------

------------
SCF SETTINGS
------------
Hamiltonian:
 Density Functional     Method          .... DFT(GTOs)
 Exchange Functional    Exchange        .... PBE
   PBE kappa parameter   XKappa         ....  0.804000
   PBE mue parameter    XMuePBE         ....  0.219520
 Correlation Functional Correlation     .... PBE
   PBE beta parameter  CBetaPBE         ....  0.066725
 LDA part of GGA corr.  LDAOpt          .... PW91-LDA
 Gradients option       PostSCFGGA      .... off
   NL short-range parameter             ....  6.400000
 RI-approximation to the Coulomb term is turned on
   Number of AuxJ basis functions       .... 720


General Settings:
 Integral files         IntName         .... sp
 Hartree-Fock type      HFTyp           .... RHF
 Total Charge           Charge          ....    0
 Multiplicity           Mult            ....    1
 Number of Electrons    NEL             ....   96
 Basis Dimension        Dim             ....  192
 Nuclear Repulsion      ENuc            ....    824.6008711332 Eh

Convergence Acceleration:
 AO-DIIS                CNVDIIS         .... on
   Start iteration      DIISMaxIt       ....    12
   Startup error        DIISStart       ....  0.200000
   # of expansion vecs  DIISMaxEq       ....     5
   Bias factor          DIISBfac        ....   1.050
   Max. coefficient     DIISMaxC        ....  10.000
 MO-DIIS                CNVKDIIS        .... off
 Trust-Rad. Augm. Hess. CNVTRAH         .... auto
   Auto Start mean grad. ratio tolernc. ....  1.125000
   Auto Start start iteration           ....    50
   Auto Start num. interpolation iter.  ....    10
   Max. Number of Micro iterations      ....    24
   Max. Number of Macro iterations      .... Maxiter - #DIIS iter
   Number of Davidson start vectors     ....     2
   Converg. threshold    (grad. norm)   ....   1.000e-04
   Grad. Scal. Fac. for Micro threshold ....   0.100
   Minimum threshold for Micro iter.    ....   1.000e-02
   NR start threshold (gradient norm)   ....   1.000e-04
   Initial trust radius                 ....   0.400
   Minimum AH scaling param. (alpha)    ....   1.000
   Maximum AH scaling param. (alpha)    .... 1000.000
   Quad. conv. algorithm                .... NR
   White noise on init. David. guess    .... on
   Maximum white noise                  ....   0.010
   Pseudo random numbers                .... off
   Inactive MOs                         .... canonical
   Orbital update algorithm             .... Taylor
   Preconditioner                       .... Diag
   Full preconditioner red. dimension   ....   250
 SOSCF                  CNVSOSCF        .... on
   Start iteration      SOSCFMaxIt      ....   150
   Startup grad/error   SOSCFStart      ....  0.003300
   Hessian update       SOSCFHessUp     .... L-BFGS
 Level Shifting         CNVShift        .... on
   Level shift para.    LevelShift      ....    0.2500
   Turn off err/grad.   ShiftErr        ....    0.0010
 Zerner damping         CNVZerner       .... off
 Static damping         CNVDamp         .... on
   Fraction old density DampFac         ....    0.7000
   Max. Damping (<1)    DampMax         ....    0.9800
   Min. Damping (>=0)   DampMin         ....    0.0000
   Turn off err/grad.   DampErr         ....    0.1000

SCF Procedure:
 Maximum # iterations   MaxIter         ....   125
 SCF integral mode      SCFMode         .... Direct
   Integral package                     .... SHARK and LIBINT hybrid scheme
 Reset frequency        DirectResetFreq ....    20
 Integral Threshold     Thresh          ....  1.000e-09 Eh
 Primitive CutOff       TCut            ....  1.000e-10 Eh

Convergence Tolerance:
 Convergence Check Mode ConvCheckMode   .... Total+1el-Energy
 Convergence forced     ConvForced      .... 0
 Energy Change          TolE            ....  1.000e-05 Eh
 1-El. energy change                    ....  1.000e-02 Eh
 Orbital Gradient       TolG            ....  1.000e-04
 Orbital Rotation angle TolX            ....  1.000e-04
 DIIS Error             TolErr          ....  5.000e-04

------------------------------
INITIAL GUESS: MODEL POTENTIAL
------------------------------
Loading Hartree-Fock densities                     ... done
Calculating cut-offs                               ... done
Initializing the effective Hamiltonian             ... done
Setting up the integral package (SHARK)            ... done
Starting the Coulomb interaction                   ... done (   0.2 sec)
Making the grid                                    ... done (   0.3 sec)
Mapping shells                                     ... done
Starting the XC term evaluation                    ... done (   0.2 sec)
  promolecular density results
     # of electrons  =     95.995027761
     EX              =    -83.242980249
     EC              =     -3.268156348
     EX+EC           =    -86.511136598
Transforming the Hamiltonian                       ... done (   0.0 sec)
Diagonalizing the Hamiltonian                      ... done (   0.0 sec)
Back transforming the eigenvectors                 ... done (   0.0 sec)
Now organizing SCF variables                       ... done
                      ------------------
                      INITIAL GUESS DONE (   0.8 sec)
                      ------------------
             **** ENERGY FILE WAS UPDATED (sp.en.tmp) ****
Finished Guess after   1.0 sec
Maximum memory used throughout the entire GUESS-calculation: 21.6 MB

-------------------------------------------------------------------------------------------
                                      ORCA LEAN-SCF
                              memory conserving SCF solver
-------------------------------------------------------------------------------------------

----------------------------------------D-I-I-S--------------------------------------------
Iteration    Energy (Eh)           Delta-E    RMSDP     MaxDP     DIISErr   Damp  Time(sec)
-------------------------------------------------------------------------------------------
               ***  Starting incremental Fock matrix formation  ***
    1    -685.5292946304163024     0.00e+00  5.24e-03  1.49e-01  2.23e-01  0.700   1.2
    2    -685.6795241149928870    -1.50e-01  3.35e-03  9.88e-02  8.83e-02  0.700   1.3
                               ***Turning on AO-DIIS***
    3    -685.7265835619235759    -4.71e-02  1.10e-03  2.46e-02  1.92e-02  0.700   1.2
    4    -685.7579922793914875    -3.14e-02  1.34e-03  2.01e-02  9.90e-03  0.000   1.1
    5    -685.8308921233154933    -7.29e-02  4.62e-04  1.40e-02  5.58e-03  0.000   1.1
                              *** Initializing SOSCF ***
---------------------------------------S-O-S-C-F--------------------------------------
Iteration    Energy (Eh)           Delta-E    RMSDP     MaxDP     MaxGrad    Time(sec)
--------------------------------------------------------------------------------------
    6    -685.8312302070827400    -3.38e-04  1.38e-04  3.26e-03  1.38e-03     1.1
               *** Restarting incremental Fock matrix formation ***
    7    -685.8312561878025235    -2.60e-05  9.25e-05  1.87e-03  2.01e-04     1.1
    8    -685.8312558517978914     3.36e-07  3.71e-05  9.97e-04  2.21e-04     1.0
                 **** Energy Check signals convergence ****

               *****************************************************
               *                     SUCCESS                       *
               *           SCF CONVERGED AFTER   8 CYCLES          *
               *****************************************************

             **** ENERGY FILE WAS UPDATED (sp.en.tmp) ****

----------------
TOTAL SCF ENERGY
----------------

Total Energy       :       -685.83125585179789 Eh          -18662.41725 eV

Components:
Nuclear Repulsion  :        824.60087113320185 Eh           22438.53046 eV
Electronic Energy  :      -1510.43212698499974 Eh          -41100.94771 eV
One Electron Energy:      -2578.61560621106901 Eh          -70167.69790 eV
Two Electron Energy:       1068.18347922606927 Eh           29066.75019 eV

Virial components:
Potential Energy   :      -1366.92212010930416 Eh          -37195.84189 eV
Kinetic Energy     :        681.09086425750638 Eh           18533.42464 eV
Virial Ratio       :          2.00695999879467

DFT components:
N(Alpha)           :       48.000069200219 electrons
N(Beta)            :       48.000069200219 electrons
N(Total)           :       96.000138400438 electrons
E(X)               :      -84.608049406779 Eh       
E(C)               :       -3.280461272071 Eh       
E(XC)              :      -87.888510678850 Eh       

---------------
SCF CONVERGENCE
---------------

  Last Energy change         ...   -3.3600e-07  Tolerance :   1.0000e-05
  Last MAX-Density change    ...    9.9748e-04  Tolerance :   1.0000e-03
  Last RMS-Density change    ...    3.7127e-05  Tolerance :   1.0000e-04
  Last DIIS Error            ...    1.3767e-03  Tolerance :   5.0000e-04
  Last Orbital Gradient      ...    2.2095e-04  Tolerance :   1.0000e-04
  Last Orbital Rotation      ...    1.3382e-04  Tolerance :   1.0000e-04


----------------
ORBITAL ENERGIES
----------------

  NO   OCC          E(Eh)            E(eV) 
   0   2.0000     -18.769153      -510.7346 
   1   2.0000     -18.765940      -510.6472 
   2   2.0000     -18.758635      -510.4484 
   3   2.0000     -18.754978      -510.3489 
   4   2.0000     -18.750577      -510.2291 
   5   2.0000     -18.743240      -510.0295 
   6   2.0000      -9.985230      -271.7119 
   7   2.0000      -9.942587      -270.5515 
   8   2.0000      -9.941240      -270.5149 
   9   2.0000      -9.941210      -270.5141 
  10   2.0000      -9.938917      -270.4517 
  11   2.0000      -9.927079      -270.1296 
  12   2.0000      -0.985773       -26.8242 
  13   2.0000      -0.946278       -25.7495 
  14   2.0000      -0.935785       -25.4640 
  15   2.0000      -0.921746       -25.0820 
  16   2.0000      -0.916212       -24.9314 
  17   2.0000      -0.911878       -24.8135 
  18   2.0000      -0.704341       -19.1661 
  19   2.0000      -0.692383       -18.8407 
  20   2.0000      -0.615417       -16.7463 
  21   2.0000      -0.580051       -15.7840 
  22   2.0000      -0.551820       -15.0158 
  23   2.0000      -0.526287       -14.3210 
  24   2.0000      -0.513650       -13.9771 
  25   2.0000      -0.480538       -13.0761 
  26   2.0000      -0.471611       -12.8332 
  27   2.0000      -0.460621       -12.5341 
  28   2.0000      -0.452088       -12.3020 
  29   2.0000      -0.437037       -11.8924 
  30   2.0000      -0.410342       -11.1660 
  31   2.0000      -0.397776       -10.8240 
  32   2.0000      -0.384082       -10.4514 
  33   2.0000      -0.375448       -10.2165 
  34   2.0000      -0.357811        -9.7365 
  35   2.0000      -0.353994        -9.6327 
  36   2.0000      -0.323007        -8.7895 
  37   2.0000      -0.317389        -8.6366 
  38   2.0000      -0.306815        -8.3489 
  39   2.0000      -0.293544        -7.9877 
  40   2.0000      -0.283427        -7.7124 
  41   2.0000      -0.268252        -7.2995 
  42   2.0000      -0.249405        -6.7866 
  43   2.0000      -0.241583        -6.5738 
  44   2.0000      -0.228823        -6.2266 
  45   2.0000      -0.221868        -6.0373 
  46   2.0000      -0.211028        -5.7424 
  47   2.0000      -0.204909        -5.5759 
  48   0.0000       0.019403         0.5280 
  49   0.0000       0.029346         0.7985 
  50   0.0000       0.034032         0.9261 
  51   0.0000       0.047909         1.3037 
  52   0.0000       0.058836         1.6010 
  53   0.0000       0.069291         1.8855 
  54   0.0000       0.079855         2.1730 
  55   0.0000       0.099736         2.7140 
  56   0.0000       0.107472         2.9244 
  57   0.0000       0.118116         3.2141 
  58   0.0000       0.119903         3.2627 
*Only the first 10 virtual orbitals were printed.

                    ********************************
                    * MULLIKEN POPULATION ANALYSIS *
                    ********************************

-----------------------
MULLIKEN ATOMIC CHARGES
-----------------------
   0 C :    0.074653
   1 C :    0.016679
   2 H :    0.063141
   3 C :    0.055635
   4 H :    0.055619
   5 C :    0.065636
   6 H :    0.055611
   7 C :    0.034264
   8 H :    0.058470
   9 C :    0.182192
  10 H :    0.037424
  11 O :   -0.306080
  12 O :   -0.392652
  13 O :   -0.427204
  14 O :   -0.427429
  15 O :   -0.416995
  16 O :   -0.434138
  17 H :    0.065729
  18 H :    0.089302
  19 H :    0.313443
  20 H :    0.312682
  21 H :    0.313066
  22 H :    0.311413
  23 H :    0.299541
Sum of atomic charges:    0.0000000

--------------------------------
MULLIKEN REDUCED ORBITAL CHARGES
--------------------------------
  0 C s       :     2.991411  s :     2.991411
      pz      :     0.971194  p :     2.871607
      px      :     1.009259
      py      :     0.891154
      dz2     :     0.016469  d :     0.062329
      dxz     :     0.008358
      dyz     :     0.011494
      dx2y2   :     0.011972
      dxy     :     0.014036

  1 C s       :     3.069436  s :     3.069436
      pz      :     1.043211  p :     2.847137
      px      :     0.963398
      py      :     0.840528
      dz2     :     0.016263  d :     0.066749
      dxz     :     0.008914
      dyz     :     0.009489
      dx2y2   :     0.015005
      dxy     :     0.017078

  2 H s       :     0.936859  s :     0.936859

  3 C s       :     3.049301  s :     3.049301
      pz      :     1.026035  p :     2.826550
      px      :     0.906871
      py      :     0.893644
      dz2     :     0.017570  d :     0.068513
      dxz     :     0.009460
      dyz     :     0.010610
      dx2y2   :     0.015120
      dxy     :     0.015752

  4 H s       :     0.944381  s :     0.944381

  5 C s       :     3.043644  s :     3.043644
      pz      :     0.989668  p :     2.822837
      px      :     0.991612
      py      :     0.841556
      dz2     :     0.018345  d :     0.067883
      dxz     :     0.007031
      dyz     :     0.012822
      dx2y2   :     0.015314
      dxy     :     0.014372

  6 H s       :     0.944389  s :     0.944389

  7 C s       :     3.046915  s :     3.046915
      pz      :     1.002210  p :     2.851941
      px      :     0.837886
      py      :     1.011845
      dz2     :     0.017915  d :     0.066880
      dxz     :     0.014229
      dyz     :     0.005929
      dx2y2   :     0.013146
      dxy     :     0.015661

  8 H s       :     0.941530  s :     0.941530

  9 C s       :     3.037917  s :     3.037917
      pz      :     0.990735  p :     2.678664
      px      :     0.773300
      py      :     0.914630
      dz2     :     0.023463  d :     0.101227
      dxz     :     0.018132
      dyz     :     0.012370
      dx2y2   :     0.022372
      dxy     :     0.024890

 10 H s       :     0.962576  s :     0.962576

 11 O s       :     3.762691  s :     3.762691
      pz      :     1.713235  p :     4.527948
      px      :     1.236895
      py      :     1.577818
      dz2     :     0.002124  d :     0.015441
      dxz     :     0.003583
      dyz     :     0.002436
      dx2y2   :     0.003556
      dxy     :     0.003742

 12 O s       :     3.759796  s :     3.759796
      pz      :     1.829662  p :     4.617658
      px      :     1.593616
      py      :     1.194380
      dz2     :     0.002730  d :     0.015199
      dxz     :     0.002180
      dyz     :     0.001363
      dx2y2   :     0.002011
      dxy     :     0.006915

 13 O s       :     3.779316  s :     3.779316
      pz      :     1.780482  p :     4.632686
      px      :     1.297059
      py      :     1.555144
      dz2     :     0.002559  d :     0.015202
      dxz     :     0.002689
      dyz     :     0.001878
      dx2y2   :     0.002296
      dxy     :     0.005780

 14 O s       :     3.781352  s :     3.781352
      pz      :     1.769070  p :     4.630935
      px      :     1.349408
      py      :     1.512457
      dz2     :     0.002221  d :     0.015142
      dxz     :     0.002341
      dyz     :     0.003029
      dx2y2   :     0.006200
      dxy     :     0.001351

 15 O s       :     3.785357  s :     3.785357
      pz      :     1.816589  p :     4.616245
      px      :     1.603268
      py      :     1.196388
      dz2     :     0.002283  d :     0.015393
      dxz     :     0.002507
      dyz     :     0.002096
      dx2y2   :     0.002902
      dxy     :     0.005605

 16 O s       :     3.787943  s :     3.787943
      pz      :     1.657006  p :     4.630743
      px      :     1.376514
      py      :     1.597223
      dz2     :     0.002194  d :     0.015452
      dxz     :     0.004118
      dyz     :     0.003529
      dx2y2   :     0.004195
      dxy     :     0.001415

 17 H s       :     0.934271  s :     0.934271

 18 H s       :     0.910698  s :     0.910698

 19 H s       :     0.686557  s :     0.686557

 20 H s       :     0.687318  s :     0.687318

 21 H s       :     0.686934  s :     0.686934

 22 H s       :     0.688587  s :     0.688587

 23 H s       :     0.700459  s :     0.700459


------------------------
MULLIKEN OVERLAP CHARGES
------------------------
B(  0-C ,  1-C ) :   0.5172 B(  0-C ,  2-H ) :  -0.0929 B(  0-C ,  3-C ) :   0.0507 
B(  0-C ,  4-H ) :  -0.0512 B(  0-C , 11-O ) :  -0.0797 B(  0-C , 16-O ) :   0.7316 
B(  0-C , 17-H ) :   0.6443 B(  0-C , 18-H ) :   0.7159 B(  0-C , 23-H ) :  -0.0641 
B(  1-C ,  2-H ) :   0.6053 B(  1-C ,  3-C ) :  -0.0689 B(  1-C ,  5-C ) :   0.0656 
B(  1-C ,  9-C ) :  -0.0877 B(  1-C , 11-O ) :   0.5475 B(  1-C , 15-O ) :  -0.0918 
B(  1-C , 16-O ) :  -0.1420 B(  1-C , 18-H ) :  -0.0932 B(  2-H ,  5-C ) :  -0.0511 
B(  2-H , 11-O ) :  -0.0721 B(  3-C ,  4-H ) :   0.5784 B(  3-C ,  5-C ) :   0.2124 
B(  3-C ,  6-H ) :  -0.0592 B(  3-C , 14-O ) :  -0.1221 B(  3-C , 15-O ) :   0.5854 
B(  3-C , 22-H ) :  -0.1030 B(  4-H ,  5-C ) :  -0.0811 B(  4-H , 15-O ) :  -0.0716 
B(  5-C ,  6-H ) :   0.5869 B(  5-C ,  7-C ) :   0.1303 B(  5-C ,  8-H ) :  -0.0510 
B(  5-C , 13-O ) :  -0.1152 B(  5-C , 14-O ) :   0.6463 B(  5-C , 15-O ) :  -0.0613 
B(  5-C , 21-H ) :  -0.1048 B(  6-H ,  7-C ) :  -0.0575 B(  6-H , 14-O ) :  -0.0780 
B(  7-C ,  8-H ) :   0.5336 B(  7-C ,  9-C ) :   0.2223 B(  7-C , 10-H ) :  -0.1663 
B(  7-C , 11-O ) :  -0.0651 B(  7-C , 12-O ) :  -0.1340 B(  7-C , 13-O ) :   0.5771 
B(  7-C , 14-O ) :  -0.0679 B(  7-C , 20-H ) :  -0.0987 B(  8-H , 13-O ) :  -0.0721 
B(  9-C , 10-H ) :   0.7244 B(  9-C , 11-O ) :   0.5757 B(  9-C , 12-O ) :   0.7400 
B(  9-C , 19-H ) :  -0.0603 B( 10-H , 11-O ) :  -0.0993 B( 10-H , 12-O ) :  -0.0915 
B( 11-O , 12-O ) :  -0.1158 B( 12-O , 19-H ) :   0.5229 B( 13-O , 20-H ) :   0.5379 
B( 14-O , 21-H ) :   0.5395 B( 15-O , 22-H ) :   0.5282 B( 16-O , 17-H ) :  -0.0645 
B( 16-O , 18-H ) :  -0.0643 B( 16-O , 23-H ) :   0.5162 B( 17-H , 18-H ) :  -0.0833 



                     *******************************
                     * LOEWDIN POPULATION ANALYSIS *
                     *******************************

----------------------
LOEWDIN ATOMIC CHARGES
----------------------
   0 C :   -0.125696
   1 C :   -0.053551
   2 H :    0.111609
   3 C :   -0.065326
   4 H :    0.104372
   5 C :   -0.074838
   6 H :    0.105109
   7 C :   -0.091612
   8 H :    0.107561
   9 C :   -0.003812
  10 H :    0.080759
  11 O :   -0.145960
  12 O :   -0.304708
  13 O :   -0.323308
  14 O :   -0.325027
  15 O :   -0.316350
  16 O :   -0.344261
  17 H :    0.101007
  18 H :    0.108239
  19 H :    0.294731
  20 H :    0.292331
  21 H :    0.292055
  22 H :    0.290481
  23 H :    0.286194

-------------------------------
LOEWDIN REDUCED ORBITAL CHARGES
-------------------------------
  0 C s       :     2.919128  s :     2.919128
      pz      :     1.035902  p :     3.064441
      px      :     1.049919
      py      :     0.978620
      dz2     :     0.037759  d :     0.142128
      dxz     :     0.018825
      dyz     :     0.025424
      dx2y2   :     0.028216
      dxy     :     0.031904

  1 C s       :     2.895695  s :     2.895695
      pz      :     1.090050  p :     3.003665
      px      :     0.975504
      py      :     0.938111
      dz2     :     0.038070  d :     0.154192
      dxz     :     0.019987
      dyz     :     0.021167
      dx2y2   :     0.036318
      dxy     :     0.038649

  2 H s       :     0.888391  s :     0.888391

  3 C s       :     2.890526  s :     2.890526
      pz      :     1.079365  p :     3.015025
      px      :     0.978523
      py      :     0.957137
      dz2     :     0.040940  d :     0.159774
      dxz     :     0.021271
      dyz     :     0.024104
      dx2y2   :     0.036755
      dxy     :     0.036703

  4 H s       :     0.895628  s :     0.895628

  5 C s       :     2.893272  s :     2.893272
      pz      :     1.063062  p :     3.022170
      px      :     1.042168
      py      :     0.916940
      dz2     :     0.042986  d :     0.159396
      dxz     :     0.015192
      dyz     :     0.028908
      dx2y2   :     0.037088
      dxy     :     0.035221

  6 H s       :     0.894891  s :     0.894891

  7 C s       :     2.902488  s :     2.902488
      pz      :     1.062480  p :     3.030574
      px      :     0.903375
      py      :     1.064719
      dz2     :     0.042413  d :     0.158550
      dxz     :     0.032758
      dyz     :     0.012202
      dx2y2   :     0.030402
      dxy     :     0.040774

  8 H s       :     0.892439  s :     0.892439

  9 C s       :     2.888784  s :     2.888784
      pz      :     1.058352  p :     2.886843
      px      :     0.861014
      py      :     0.967477
      dz2     :     0.055674  d :     0.228186
      dxz     :     0.040094
      dyz     :     0.026382
      dx2y2   :     0.048900
      dxy     :     0.057135

 10 H s       :     0.919241  s :     0.919241

 11 O s       :     3.473271  s :     3.473271
      pz      :     1.750057  p :     4.642741
      px      :     1.294897
      py      :     1.597787
      dz2     :     0.003480  d :     0.029948
      dxz     :     0.007089
      dyz     :     0.003484
      dx2y2   :     0.007807
      dxy     :     0.008087

 12 O s       :     3.521425  s :     3.521425
      pz      :     1.848363  p :     4.756271
      px      :     1.640708
      py      :     1.267200
      dz2     :     0.004295  d :     0.027012
      dxz     :     0.002923
      dyz     :     0.002843
      dx2y2   :     0.003939
      dxy     :     0.013013

 13 O s       :     3.530635  s :     3.530635
      pz      :     1.811916  p :     4.765861
      px      :     1.354097
      py      :     1.599848
      dz2     :     0.003941  d :     0.026812
      dxz     :     0.005173
      dyz     :     0.002376
      dx2y2   :     0.004810
      dxy     :     0.010512

 14 O s       :     3.530744  s :     3.530744
      pz      :     1.804368  p :     4.767717
      px      :     1.411841
      py      :     1.551508
      dz2     :     0.003369  d :     0.026566
      dxz     :     0.003682
      dyz     :     0.005042
      dx2y2   :     0.011374
      dxy     :     0.003099

 15 O s       :     3.531169  s :     3.531169
      pz      :     1.841895  p :     4.758129
      px      :     1.647265
      py      :     1.268970
      dz2     :     0.003534  d :     0.027051
      dxz     :     0.003348
      dyz     :     0.003916
      dx2y2   :     0.005597
      dxy     :     0.010655

 16 O s       :     3.543537  s :     3.543537
      pz      :     1.705930  p :     4.773870
      px      :     1.435151
      py      :     1.632790
      dz2     :     0.003211  d :     0.026854
      dxz     :     0.006748
      dyz     :     0.006127
      dx2y2   :     0.007501
      dxy     :     0.003266

 17 H s       :     0.898993  s :     0.898993

 18 H s       :     0.891761  s :     0.891761

 19 H s       :     0.705269  s :     0.705269

 20 H s       :     0.707669  s :     0.707669

 21 H s       :     0.707945  s :     0.707945

 22 H s       :     0.709519  s :     0.709519

 23 H s       :     0.713806  s :     0.713806


---------------------------------
LOEWDIN BOND ORDERS (THRESH 0.050000)
---------------------------------
B(  0-C ,  1-C ) :   1.0694 B(  0-C ,  3-C ) :   0.0580 B(  0-C , 11-O ) :   0.0553 
B(  0-C , 16-O ) :   1.2376 B(  0-C , 17-H ) :   0.9042 B(  0-C , 18-H ) :   0.8990 
B(  1-C ,  2-H ) :   0.8604 B(  1-C ,  3-C ) :   1.0139 B(  1-C ,  5-C ) :   0.0590 
B(  1-C ,  9-C ) :   0.0717 B(  1-C , 11-O ) :   1.1303 B(  1-C , 15-O ) :   0.0609 
B(  1-C , 16-O ) :   0.0648 B(  3-C ,  4-H ) :   0.8653 B(  3-C ,  5-C ) :   1.0222 
B(  3-C ,  7-C ) :   0.0586 B(  3-C , 11-O ) :   0.0679 B(  3-C , 14-O ) :   0.0632 
B(  3-C , 15-O ) :   1.2253 B(  5-C ,  6-H ) :   0.8629 B(  5-C ,  7-C ) :   1.0240 
B(  5-C ,  9-C ) :   0.0589 B(  5-C , 13-O ) :   0.0627 B(  5-C , 14-O ) :   1.2176 
B(  5-C , 15-O ) :   0.0777 B(  7-C ,  8-H ) :   0.8647 B(  7-C ,  9-C ) :   1.0109 
B(  7-C , 11-O ) :   0.0711 B(  7-C , 12-O ) :   0.0659 B(  7-C , 13-O ) :   1.2209 
B(  7-C , 14-O ) :   0.0773 B(  9-C , 10-H ) :   0.8671 B(  9-C , 11-O ) :   1.1680 
B(  9-C , 12-O ) :   1.2856 B(  9-C , 13-O ) :   0.0828 B( 11-O , 12-O ) :   0.0743 
B( 12-O , 19-H ) :   0.8671 B( 13-O , 20-H ) :   0.8742 B( 14-O , 21-H ) :   0.8728 
B( 15-O , 22-H ) :   0.8711 B( 16-O , 23-H ) :   0.8883 

------------------------------------------
LOEWDIN REDUCED ORBITAL POPULATIONS PER MO
-------------------------------------------
THRESHOLD FOR PRINTING IS 0.1%%
                      0         1         2         3         4         5   
                 -18.76915 -18.76594 -18.75863 -18.75498 -18.75058 -18.74324
                   2.00000   2.00000   2.00000   2.00000   2.00000   2.00000
                  --------  --------  --------  --------  --------  --------
11 O  s              99.9       0.0       0.0       0.0       0.0       0.0
12 O  s               0.0      99.9       0.0       0.0       0.0       0.0
13 O  s               0.0       0.0      99.9       0.0       0.0       0.0
14 O  s               0.0       0.0       0.0      99.9       0.0       0.0
15 O  s               0.0       0.0       0.0       0.0      99.9       0.0
16 O  s               0.0       0.0       0.0       0.0       0.0      99.9

                      6         7         8         9        10        11   
                  -9.98523  -9.94259  -9.94124  -9.94121  -9.93892  -9.92708
                   2.00000   2.00000   2.00000   2.00000   2.00000   2.00000
                  --------  --------  --------  --------  --------  --------
 0 C  s               0.0       0.0       0.0       0.0       0.0      99.6
 1 C  s               0.0      99.5       0.0       0.0       0.0       0.0
 3 C  s               0.0       0.0      90.6       8.9       0.0       0.0
 5 C  s               0.0       0.0       8.9      90.6       0.0       0.0
 7 C  s               0.0       0.0       0.0       0.0      99.6       0.0
 9 C  s              99.6       0.0       0.0       0.0       0.0       0.0

                     12        13        14        15        16        17   
                  -0.98577  -0.94628  -0.93578  -0.92175  -0.91621  -0.91188
                   2.00000   2.00000   2.00000   2.00000   2.00000   2.00000
                  --------  --------  --------  --------  --------  --------
 0 C  s               0.4       0.0       1.3       5.6       0.0       3.6
 0 C  pz              0.1       0.0       0.2       1.3       0.0       1.0
 0 C  px              0.4       0.0       0.1       0.3       0.0       2.0
 0 C  py              0.0       0.0       0.1       2.3       0.0       2.3
 0 C  dyz             0.0       0.0       0.0       0.2       0.0       0.2
 0 C  dxy             0.0       0.0       0.0       0.1       0.0       0.1
 1 C  s               4.1       0.0       3.2       1.9       0.0       1.1
 1 C  pz              0.3       0.0       0.2       0.1       0.0       0.1
 1 C  px              1.9       0.0       0.2       0.1       0.1       2.8
 1 C  py              1.4       0.8       0.1       1.6       0.7       0.5
 1 C  dxy             0.2       0.0       0.0       0.0       0.0       0.2
 2 H  s               0.5       0.0       0.5       0.3       0.0       0.1
 3 C  s               0.8       3.8       4.6       0.4       2.3       0.0
 3 C  pz              0.1       0.3       0.4       0.0       0.2       0.0
 3 C  px              0.0       0.1       1.1       0.2       3.2       0.0
 3 C  py              0.3       1.9       0.7       1.6       1.6       0.4
 3 C  dxy             0.0       0.1       0.1       0.1       0.3       0.0
 4 H  s               0.1       0.5       0.6       0.0       0.2       0.0
 5 C  s               0.7       8.5       0.1       0.1       2.3       0.0
 5 C  pz              0.1       1.0       0.0       0.0       0.5       0.0
 5 C  px              0.0       0.5       1.7       0.2       1.3       0.0
 5 C  py              0.2       2.2       0.3       0.4       3.7       0.4
 5 C  dyz             0.0       0.1       0.0       0.0       0.2       0.0
 5 C  dx2y2           0.0       0.1       0.0       0.0       0.2       0.0
 5 C  dxy             0.0       0.1       0.0       0.0       0.2       0.0
 6 H  s               0.1       1.1       0.0       0.0       0.2       0.0
 7 C  s               2.6       3.8       3.7       0.9       0.6       0.2
 7 C  pz              0.3       0.4       0.7       0.2       0.2       0.0
 7 C  px              0.1       1.0       4.4       0.9       2.0       0.1
 7 C  py              0.9       1.6       0.0       0.1       0.3       0.0
 7 C  dxz             0.0       0.1       0.2       0.0       0.1       0.0
 7 C  dx2y2           0.0       0.1       0.2       0.1       0.1       0.0
 8 H  s               0.4       0.5       0.4       0.1       0.0       0.0
 9 C  s              15.8       0.3       0.2       0.2       0.0       0.0
 9 C  pz              1.7       0.0       0.0       0.0       0.0       0.0
 9 C  px              0.5       0.2       4.0       2.2       0.6       5.1
 9 C  py              1.7       1.2       0.1       2.4       0.0       2.2
 9 C  dz2             0.2       0.0       0.0       0.0       0.0       0.0
 9 C  dxz             0.0       0.0       0.1       0.1       0.0       0.2
 9 C  dx2y2           0.1       0.0       0.1       0.1       0.0       0.3
 9 C  dxy             0.1       0.0       0.0       0.2       0.0       0.2
10 H  s               1.7       0.0       0.0       0.0       0.0       0.0
11 O  s              26.9       1.2       6.3       4.8       1.1      13.0
11 O  pz              0.6       0.0       0.1       0.1       0.0       0.2
11 O  px              0.8       0.1       0.1       0.2       0.0       0.0
11 O  py              0.6       0.0       0.4       0.4       0.0       0.7
12 O  s              21.8       2.1       4.9      14.4       0.1      16.2
12 O  pz              0.2       0.0       0.0       0.1       0.0       0.1
12 O  px              1.8       0.2       0.1       0.5       0.0       0.5
12 O  py              0.2       0.0       0.0       0.0       0.0       0.1
13 O  s               2.0      13.1      24.6       7.7       9.6       1.8
13 O  pz              0.1       0.2       0.4       0.1       0.1       0.0
13 O  px              0.1       0.2       0.2       0.0       0.0       0.0
13 O  py              0.1       0.3       0.9       0.2       0.4       0.1
14 O  s               0.4      27.2       0.3       0.8      28.8       1.2
14 O  pz              0.0       0.6       0.0       0.0       0.5       0.0
14 O  px              0.0       0.2       0.0       0.0       0.5       0.0
14 O  py              0.0       0.9       0.0       0.0       0.5       0.0
15 O  s               0.4      10.9      17.2       5.6      23.7       0.2
15 O  pz              0.0       0.2       0.2       0.1       0.3       0.0
15 O  px              0.0       0.7       0.9       0.3       0.9       0.0
16 O  s               0.2       0.0       2.8      26.3       0.1      29.7
16 O  pz              0.0       0.0       0.1       1.0       0.0       1.1
16 O  px              0.0       0.0       0.0       0.2       0.0       0.3
16 O  py              0.0       0.0       0.1       0.4       0.0       0.3
17 H  s               0.1       0.0       0.2       0.7       0.0       0.3
18 H  s               0.1       0.0       0.3       0.5       0.1       0.4
19 H  s               4.5       0.5       0.8       2.8       0.0       3.1
20 H  s               0.6       2.4       5.0       1.4       2.0       0.3
21 H  s               0.1       5.7       0.0       0.1       5.6       0.2
22 H  s               0.1       2.6       3.4       1.2       4.2       0.0
23 H  s               0.0       0.0       0.6       5.4       0.0       6.2

                     18        19        20        21        22        23   
                  -0.70434  -0.69238  -0.61542  -0.58005  -0.55182  -0.52629
                   2.00000   2.00000   2.00000   2.00000   2.00000   2.00000
                  --------  --------  --------  --------  --------  --------
 0 C  s               2.4       6.6      11.7       0.7       8.8       1.0
 0 C  pz              0.0       0.0       0.1       0.0       0.8       2.5
 0 C  px              1.1       3.1       0.3       0.1       1.1       0.8
 0 C  py              0.7       0.8       0.7       0.4       0.1       0.3
 1 C  s               7.3      12.1       0.7       0.2       3.9       3.5
 1 C  pz              0.1       0.4       0.0       0.0       0.4       7.5
 1 C  px              0.1       2.0       6.5       0.2       2.9       0.2
 1 C  py              3.9       0.1       0.4       6.9       0.3       0.9
 1 C  dxz             0.0       0.0       0.1       0.0       0.1       0.0
 1 C  dyz             0.0       0.0       0.0       0.1       0.0       0.0
 1 C  dx2y2           0.0       0.0       0.1       0.0       0.1       0.0
 1 C  dxy             0.2       0.0       0.0       0.1       0.0       0.0
 2 H  s               1.5       1.9       0.2       0.1       1.4       5.4
 3 C  s              12.2       0.4       4.5       6.8       0.0       2.7
 3 C  pz              0.2       0.0       0.0       0.1       0.1       5.9
 3 C  px              2.0       2.3       3.0       1.2       2.8       0.9
 3 C  py              3.2       1.8       0.1       0.5       3.0       0.1
 3 C  dxy             0.1       0.0       0.0       0.0       0.0       0.0
 4 H  s               2.4       0.1       1.0       1.8       0.0       4.0
 5 C  s              11.3       3.4       3.3       3.1       4.4       1.8
 5 C  pz              0.0       0.0       0.0       0.2       0.1       5.0
 5 C  px              1.3       0.4       3.5       4.4       1.5       0.2
 5 C  py              4.2       2.1       0.3       0.5       2.5       0.5
 5 C  dxy             0.0       0.1       0.0       0.1       0.0       0.0
 6 H  s               2.2       0.7       0.7       1.0       1.3       3.4
 7 C  s               5.2       9.4       4.3       3.6       3.0       2.0
 7 C  pz              0.0       0.0       0.0       0.1       0.2       5.3
 7 C  px              2.7       3.2       0.0       0.0       0.4       0.3
 7 C  py              0.6       0.3       3.2       7.0       0.1       0.2
 8 H  s               1.0       1.8       1.1       0.8       1.1       3.4
 9 C  s               0.0       8.3       6.1       6.0       0.6       1.3
 9 C  pz              0.0       0.1       0.0       0.4       0.0       7.9
 9 C  px              1.7       0.1       2.1       0.1       1.8       1.1
 9 C  py              1.9       2.9       1.5       0.2       1.9       0.0
 9 C  dx2y2           0.2       0.0       0.0       0.0       0.0       0.0
 9 C  dxy             0.0       0.1       0.0       0.0       0.0       0.1
10 H  s               0.0       1.4       1.6       1.9       0.1       4.2
11 O  s               4.8       0.0       1.3       1.1       0.3       1.4
11 O  pz              0.1       0.1       0.0       0.2       0.0       3.2
11 O  px              1.0       8.3       0.2       5.1       5.3       3.0
11 O  py              0.9       0.5       0.0       0.1       3.4       1.0
12 O  s               0.2       2.3       0.7       1.0       0.5       0.0
12 O  pz              0.0       0.0       0.2       0.4       0.0       1.3
12 O  px              0.1       0.1       0.0       0.2       0.7       0.2
12 O  py              0.0       3.1       7.2       9.6       0.4       1.7
12 O  dxy             0.0       0.1       0.1       0.1       0.0       0.0
13 O  s               1.3       2.3       1.4       0.2       0.5       0.0
13 O  pz              0.0       0.1       0.1       0.3       0.4       1.0
13 O  px              1.3       2.4       2.5       5.6       4.5       1.0
13 O  py              0.2       0.2       0.0       2.1       0.4       0.4
14 O  s               2.7       1.0       0.5       1.2       0.3       0.0
14 O  pz              0.0       0.0       0.1       0.2       0.3       0.7
14 O  px              1.4       0.3       2.4       0.4       9.0       1.1
14 O  py              1.4       0.5       1.1       1.8       3.7       0.2
15 O  s               3.9       0.2       0.9       1.0       0.3       0.1
15 O  pz              0.0       0.0       0.0       0.1       0.0       0.8
15 O  px              0.2       0.0       0.6       0.2       0.3       0.0
15 O  py              3.1       0.5       0.8       8.5       0.3       4.2
16 O  s               0.5       1.7       1.8       0.2       1.0       0.1
16 O  pz              0.0       0.1       0.3       0.1       0.8       0.3
16 O  px              0.4       1.4       3.4       0.8       3.5       0.2
16 O  py              0.2       0.7       2.7       0.3       3.8       0.0
17 H  s               0.4       1.4       2.8       0.3       3.3       1.4
18 H  s               0.5       1.3       3.4       0.0       3.2       1.1
19 H  s               0.0       1.5       2.4       3.3       0.1       0.5
20 H  s               0.8       1.4       1.0       2.3       1.6       0.4
21 H  s               1.4       0.5       1.2       0.7       3.8       0.4
22 H  s               2.1       0.2       0.4       2.8       0.0       1.2
23 H  s               0.3       1.1       2.4       0.4       2.4       0.0

                     24        25        26        27        28        29   
                  -0.51365  -0.48054  -0.47161  -0.46062  -0.45209  -0.43704
                   2.00000   2.00000   2.00000   2.00000   2.00000   2.00000
                  --------  --------  --------  --------  --------  --------
 0 C  s               0.3       0.3       1.0       0.2       0.2       0.0
 0 C  pz              0.2       0.0      14.7       1.2       1.0       1.4
 0 C  px              0.9       0.6       0.2       0.1       0.1       0.1
 0 C  py              0.9       0.0       0.7       2.0      10.0       0.3
 0 C  dyz             0.0       0.0       0.2       0.1       0.3       0.0
 1 C  s               0.1       0.0       0.5       0.1       2.4       1.0
 1 C  pz              2.6       0.2       9.8       0.0       1.5       0.1
 1 C  px              0.5       0.5       1.3       0.1       1.0       0.2
 1 C  py              3.3       0.6       0.1       1.1       1.4       2.6
 1 C  dx2y2           0.0       0.1       0.0       0.0       0.0       0.0
 1 C  dxy             0.0       0.1       0.0       0.0       0.0       0.2
 2 H  s               0.7       0.1       4.5       0.0       2.8       0.7
 3 C  s               0.0       0.1       0.1       1.4       1.2       0.8
 3 C  pz              2.9       0.1       1.9      10.4       0.0       2.1
 3 C  px              2.7       3.0       0.2       0.4       0.7       2.9
 3 C  py              0.0       2.1       0.6       0.6       1.0       5.3
 3 C  dyz             0.0       0.0       0.0       0.0       0.1       0.1
 3 C  dxy             0.0       0.0       0.0       0.0       0.2       0.2
 4 H  s               0.9       0.0       0.9       6.0       0.3       2.3
 5 C  s               0.0       0.1       0.1       1.9       0.3       0.0
 5 C  pz              4.4       0.6       2.0       8.4       4.7       0.0
 5 C  px              0.9       0.8       0.0       0.1       1.1       0.0
 5 C  py              1.0       4.4       0.5       0.1       2.7       1.4
 5 C  dyz             0.0       0.1       0.0       0.1       0.1       0.1
 5 C  dx2y2           0.0       0.0       0.0       0.0       0.2       0.1
 6 H  s               1.3       0.3       0.9       5.5       2.3       0.0
 7 C  s               0.1       0.2       0.7       0.0       0.1       1.1
 7 C  pz              3.9       1.5       8.1       0.9       1.8       0.1
 7 C  px              0.1       7.6       0.3       1.0       0.5       0.4
 7 C  py              3.3       1.3       0.0       0.0       0.0       5.3
 7 C  dxz             0.0       0.2       0.0       0.1       0.0       0.1
 7 C  dyz             0.0       0.0       0.0       0.1       0.0       0.1
 8 H  s               1.6       0.8       4.1       0.2       0.9       0.7
 9 C  s               0.2       0.1       0.3       1.1       0.2       0.3
 9 C  pz              2.6       0.0       5.4      13.8       0.3       2.0
 9 C  px              9.1       2.0       0.5       0.3       1.2       0.5
 9 C  py              0.1       6.0       0.2       0.1       0.1       8.7
 9 C  dxz             0.2       0.0       0.0       0.0       0.0       0.0
 9 C  dyz             0.0       0.1       0.0       0.0       0.0       0.1
 9 C  dxy             0.2       0.0       0.0       0.0       0.0       0.1
10 H  s               1.3       0.1       2.5       7.5       0.4       1.4
11 O  s               0.1       1.7       0.0       0.4       0.5       0.1
11 O  pz              2.0       0.3       0.2       2.9       1.4       0.1
11 O  px              9.1       2.3       2.0       0.4       1.6       3.6
11 O  py              1.7       2.2       1.0       0.0       0.0       0.9
12 O  s               0.5       0.0       0.0       0.4       0.2       0.1
12 O  pz              0.0       0.6       1.1       2.1       0.0       0.0
12 O  px              1.7       0.1       0.2       0.1       0.5       2.8
12 O  py             11.4      11.2       0.0       3.9       0.9       6.9
12 O  dxy             0.1       0.1       0.0       0.0       0.0       0.1
13 O  s               0.4       0.1       0.1       0.0       0.0       1.3
13 O  pz              0.2       0.2       1.4       0.0       0.6       0.0
13 O  px              2.3      13.4       0.4       4.0       0.0       0.7
13 O  py              2.8       3.7       0.1       0.4       0.0       6.0
14 O  s               0.2       0.2       0.0       0.4       0.3       0.4
14 O  pz              0.2       0.7       0.1       2.0       0.2       0.1
14 O  px              4.4       2.3       1.3       1.7       9.8       2.6
14 O  py              0.7       2.3       0.8       0.1       5.3       0.4
14 O  dx2y2           0.0       0.0       0.0       0.0       0.1       0.0
15 O  s               0.1       0.0       0.0       0.5       0.0       0.4
15 O  pz              0.2       0.0       0.2       2.3       0.1       0.1
15 O  px              0.1       0.2       0.1       0.5       1.2       0.2
15 O  py              6.1      10.1       2.3       0.5       1.6      19.1
15 O  dxy             0.0       0.1       0.0       0.0       0.0       0.1
16 O  s               0.0       0.0       0.7       0.2       0.4       0.1
16 O  pz              0.0       0.1       1.2       0.0       0.2       0.4
16 O  px              0.0       0.2       8.8       4.5      15.4       0.0
16 O  py              0.4       0.6       3.2       1.0       4.1       0.1
17 H  s               0.0       0.0       6.1       0.4       0.1       0.7
18 H  s               0.9       0.2       1.0       1.1       2.7       0.0
19 H  s               3.3       3.2       0.0       1.0       0.3       1.7
20 H  s               1.3       4.8       0.1       1.3       0.0       1.1
21 H  s               1.5       1.2       0.6       0.4       4.3       1.1
22 H  s               1.8       2.9       0.6       0.2       0.5       5.3
23 H  s               0.1       0.2       3.5       1.6       5.7       0.0

                     30        31        32        33        34        35   
                  -0.41034  -0.39778  -0.38408  -0.37545  -0.35781  -0.35399
                   2.00000   2.00000   2.00000   2.00000   2.00000   2.00000
                  --------  --------  --------  --------  --------  --------
 0 C  s               0.2       0.4       0.0       0.0       0.1       0.0
 0 C  pz              0.0       5.8       3.0       5.0       0.5       2.7
 0 C  px              2.4       2.1      22.5       0.1       1.8       0.2
 0 C  py              0.0       1.3       5.4      11.6       0.2       2.3
 0 C  dxz             0.0       0.0       0.1       0.0       0.1       0.0
 0 C  dxy             0.0       0.0       0.1       0.1       0.0       0.0
 1 C  s               0.0       0.1       0.6       0.1       0.1       0.1
 1 C  pz              0.5       4.7       0.8       0.4       5.3       6.5
 1 C  px              1.3       1.8       5.8       5.2       3.4       0.6
 1 C  py              1.0       0.6       0.3       3.1       2.8       0.4
 1 C  dz2             0.0       0.0       0.1       0.0       0.1       0.2
 1 C  dxz             0.0       0.0       0.1       0.0       0.1       0.0
 1 C  dxy             0.0       0.0       0.4       0.1       0.0       0.0
 2 H  s               0.2       1.3       0.1       0.2       2.9       4.4
 3 C  s               0.2       0.2       0.0       0.1       0.1       0.0
 3 C  pz              2.0       4.9       0.2       3.5       0.0       8.8
 3 C  px              1.8       4.4       0.0       0.5       0.8       1.9
 3 C  py              0.1       2.0       0.0       5.1       6.6       0.9
 3 C  dz2             0.0       0.0       0.0       0.1       0.0       0.2
 3 C  dx2y2           0.1       0.0       0.0       0.0       0.1       0.1
 3 C  dxy             0.1       0.0       0.1       0.0       0.1       0.0
 4 H  s               0.3       1.2       0.0       2.4       0.1       5.3
 5 C  s               1.1       0.0       0.0       0.3       0.0       0.0
 5 C  pz              1.1       1.0       1.9       3.6       5.1       3.2
 5 C  px             10.2       5.0       0.7       1.1       0.0       2.9
 5 C  py              2.5       1.2       0.5       0.2       4.5       2.4
 5 C  dz2             0.0       0.0       0.0       0.1       0.1       0.0
 5 C  dx2y2           0.0       0.4       0.0       0.0       0.0       0.0
 5 C  dxy             0.0       0.0       0.0       0.1       0.2       0.0
 6 H  s               0.0       0.3       1.0       3.3       3.1       1.8
 7 C  s               0.1       0.1       0.3       0.4       0.0       0.1
 7 C  pz              2.8       8.1       0.3       0.3       6.5       0.3
 7 C  px              5.4       2.0       0.3       0.3       6.3       0.4
 7 C  py              8.1       1.6       1.4       0.9       0.2       0.1
 7 C  dxz             0.2       0.0       0.0       0.0       0.0       0.0
 7 C  dx2y2           0.2       0.1       0.0       0.0       0.0       0.0
 7 C  dxy             0.3       0.0       0.0       0.0       0.0       0.0
 8 H  s               1.1       4.1       0.7       1.0       4.0       0.1
 9 C  s               0.1       0.2       0.4       0.1       0.0       0.0
 9 C  pz              3.6       2.2       0.1       0.4       3.0       1.1
 9 C  px              0.1       0.2       0.3       0.2       0.1       1.1
 9 C  py              3.0       4.7       0.0       0.0       1.5       0.4
 9 C  dx2y2           0.1       0.0       0.1       0.0       0.0       0.2
 9 C  dxy             0.1       0.1       0.3       0.2       0.0       0.0
10 H  s               1.9       0.5       0.1       0.2       1.7       0.5
11 O  s               0.0       0.0       0.3       1.2       0.0       1.3
11 O  pz              0.2       4.2       0.9       0.0       0.0       8.0
11 O  px              1.5       1.6       1.2       2.1       0.0       1.7
11 O  py              1.4       0.9       4.4       6.6       1.9       2.2
12 O  s               0.2       0.0       2.0       0.1       0.5       1.3
12 O  pz              3.0       1.9       0.0       0.0       3.3       3.9
12 O  px              0.7       0.3       6.1       0.0       0.4       3.8
12 O  py              0.6       0.8       1.8       0.4       0.3       0.2
13 O  s               0.0       0.0       0.2       1.1       1.3       0.0
13 O  pz              0.2       4.3       0.5       0.9      10.6       0.2
13 O  px             14.0       0.0       0.1       0.0       0.1       0.1
13 O  py              0.1       0.3       0.9       3.3       1.5       0.1
13 O  dxy             0.2       0.0       0.0       0.0       0.0       0.0
14 O  s               2.0       0.0       0.0       0.2       0.4       1.3
14 O  pz              0.0       1.5       0.4       0.6       7.8       6.9
14 O  px              5.3       2.0       0.3       1.1       0.0       0.8
14 O  py              6.0       1.9       1.2       3.6       0.2       1.5
15 O  s               1.1       0.2       0.4       1.8       0.2       0.6
15 O  pz              0.3       0.8       0.0       3.5       0.6       8.9
15 O  px              2.6       3.9       1.1       3.1       2.6       0.5
15 O  py              1.9       0.0       0.7       0.3       0.7       0.0
16 O  s               0.1       1.2       0.5       0.0       0.1       0.3
16 O  pz              0.4       3.9       0.0       5.2       0.0       2.8
16 O  px              0.0       0.7       1.3       3.4       0.7       0.0
16 O  py              0.9       0.0      11.0       0.1       2.5       0.1
17 H  s               0.0       4.1       3.6       3.8       0.8       2.1
18 H  s               0.5       0.0      10.8       4.3       0.1       0.8
19 H  s               0.1       0.2       1.2       0.2       0.1       0.4
20 H  s               2.7       0.0       0.0       0.3       0.1       0.0
21 H  s               0.2       1.1       0.0       0.9       0.0       0.1
22 H  s               0.9       0.0       0.3       0.2       0.1       0.1
23 H  s               0.0       0.3       0.1       0.6       0.7       0.0

                     36        37        38        39        40        41   
                  -0.32301  -0.31739  -0.30682  -0.29354  -0.28343  -0.26825
                   2.00000   2.00000   2.00000   2.00000   2.00000   2.00000
                  --------  --------  --------  --------  --------  --------
 0 C  s               0.2       0.1       0.1       0.2       0.1       0.5
 0 C  pz              0.4       0.2       0.2       1.6       0.5       5.6
 0 C  px              1.0       2.4       0.0       0.1       0.2       5.7
 0 C  py              1.5       0.6       0.1       1.6       0.1       0.2
 0 C  dz2             0.0       0.0       0.0       0.1       0.0       0.3
 0 C  dx2y2           0.0       0.0       0.0       0.0       0.0       0.2
 0 C  dxy             0.0       0.0       0.0       0.3       0.1       0.2
 1 C  s               0.1       0.3       0.2       0.3       0.6       0.3
 1 C  pz              3.5       0.9       0.4       0.1       1.7       3.3
 1 C  px              0.1       1.2       0.0       1.2       0.0       5.3
 1 C  py              0.8       0.8       0.3       3.1       0.9       3.8
 1 C  dz2             0.1       0.0       0.0       0.1       0.0       0.2
 1 C  dx2y2           0.2       0.0       0.0       0.1       0.0       0.2
 2 H  s               2.3       0.9       0.2       0.6       1.0       3.2
 3 C  s               0.2       0.1       0.4       0.1       0.4       0.0
 3 C  pz              0.8       0.6       2.7       0.1       0.6       0.2
 3 C  px              0.2       0.5       0.2       0.7       5.6       2.0
 3 C  py              1.6       0.2       0.4       0.8       0.0       0.5
 3 C  dz2             0.1       0.0       0.1       0.0       0.2       0.0
 3 C  dyz             0.1       0.0       0.0       0.0       0.0       0.1
 3 C  dx2y2           0.1       0.0       0.2       0.1       0.2       0.2
 4 H  s               1.3       0.2       2.1       0.0       1.8       0.1
 5 C  s               0.4       0.1       0.2       0.4       0.1       0.3
 5 C  pz              0.4       0.3       4.2       0.1       0.9       0.1
 5 C  px              0.4       0.5       0.2       0.2       4.5       1.6
 5 C  py              1.1       0.1       0.9       0.5       3.0       0.0
 5 C  dz2             0.0       0.0       0.3       0.0       0.0       0.0
[...]
 3 C  dx2y2           0.1       0.0       0.1       0.3       0.2       0.0
 3 C  dxy             0.4       1.7       1.2       4.3       1.9       0.2
 5 C  s               0.0       0.8       0.1       0.1       1.1       0.0
 5 C  pz              0.0       0.3       0.0       0.0       0.4       0.0
 5 C  px              0.0       0.2       0.2       0.1       0.3       0.0
 5 C  py              0.0       1.9       0.1       0.0       1.1       0.0
 5 C  dz2             0.0       0.0       0.0       0.1       0.4       0.0
 5 C  dxz             0.0       0.4       0.2       0.1       0.4       0.0
 5 C  dyz             0.0       1.9       0.1       0.0       2.8       0.0
 5 C  dx2y2           0.0       3.6       0.0       0.8       0.8       0.1
 5 C  dxy             0.0       2.8       0.2       0.2       0.3       0.0
 7 C  s               0.0       0.2       1.0       0.1       0.8       0.1
 7 C  pz              0.0       0.1       0.4       0.0       0.3       0.1
 7 C  px              0.0       0.3       2.1       0.0       0.7       0.2
 7 C  py              0.0       0.3       0.1       0.1       0.0       0.0
 7 C  dz2             0.0       0.0       0.2       0.0       0.1       0.0
 7 C  dxz             0.0       0.2       2.7       0.0       1.9       0.5
 7 C  dyz             0.0       0.2       0.4       0.1       0.0       0.0
 7 C  dx2y2           0.1       1.2       4.7       0.6       0.9       0.0
 7 C  dxy             0.0       0.4       1.3       0.0       0.1       0.0
 9 C  s               0.1       0.4       0.1       1.1       0.4       0.4
 9 C  px              0.0       0.2       0.2       0.1       0.1       3.1
 9 C  py              0.1       0.3       0.2       0.6       0.0       0.4
 9 C  dz2             0.0       0.3       0.0       0.8       0.3       0.0
 9 C  dxz             0.0       0.7       0.0       0.3       0.3       2.8
 9 C  dyz             0.1       0.1       0.0       0.0       0.0       0.6
 9 C  dx2y2           0.0       0.3       0.3       0.2       0.0       4.7
 9 C  dxy             0.3       1.5       2.9       4.8       0.5       1.2
11 O  s               0.2       0.2       0.3       0.5       0.3       0.0
11 O  px              0.0       0.1       0.1       0.8       0.1       5.3
11 O  py              0.0       0.0       0.1       0.1       0.1       0.7
11 O  dz2             0.2       1.3       0.3       1.3       1.8       0.1
11 O  dxz             0.1       0.4       0.8       2.6       0.4      13.7
11 O  dyz             0.2       0.1       0.2       0.0       0.0       1.4
11 O  dx2y2           0.4       0.2       1.8       0.6       0.0      15.4
11 O  dxy             0.0       2.9       1.7      14.2       2.5      18.1
12 O  s               0.1       0.9       0.1       1.4       0.5       1.7
12 O  pz              0.0       0.0       0.0       0.1       0.0       0.0
12 O  px              0.0       0.1       0.0       0.1       0.1       0.4
12 O  py              0.1       0.6       0.3       1.3       0.2       0.6
12 O  dz2             0.1       1.1       0.0       0.9       0.6       3.3
12 O  dxz             0.1       0.8       0.8       2.0       0.4       0.9
12 O  dyz             0.3       2.0       1.6       4.8       0.6       0.8
12 O  dx2y2           0.0       2.6       0.1       3.0       0.8       0.0
12 O  dxy             1.5       4.0       3.3       8.4       1.4       8.4
13 O  s               0.0       0.2       3.2       0.0       1.9       0.4
13 O  pz              0.0       0.0       0.3       0.0       0.1       0.0
13 O  px              0.0       0.4       2.8       0.0       1.0       0.2
13 O  dz2             0.0       0.0       1.1       0.1       1.7       0.6
13 O  dxz             0.3       2.6      18.0       0.3       5.0       0.3
13 O  dyz             0.0       0.1       0.3       0.0       0.2       0.1
13 O  dx2y2           0.3       2.0      18.6       0.1       5.9       0.5
13 O  dxy             0.0       2.1       2.5       0.0       1.3       0.5
14 O  s               0.0       2.4       0.0       0.0       3.1       0.0
14 O  pz              0.0       0.2       0.0       0.0       0.1       0.0
14 O  px              0.0       0.9       0.0       0.1       0.4       0.0
14 O  py              0.0       1.9       0.0       0.1       1.3       0.0
14 O  dz2             0.0       1.3       0.0       0.1       2.8       0.0
14 O  dxz             0.0       2.5       0.0       0.4       0.9       0.1
14 O  dyz             0.0      14.0       0.1       1.0       7.1       0.1
14 O  dx2y2           0.0      14.6       0.0       0.9       7.2       0.1
14 O  dxy             0.0       7.0       0.4       0.2       4.7       0.1
15 O  s               0.4       0.2       1.0       1.8       1.9       0.2
15 O  px              0.1       0.0       0.2       0.5       0.3       0.0
15 O  py              0.2       0.3       0.6       1.3       1.2       0.1
15 O  dz2             0.6       0.1       1.5       2.1       3.0       0.2
15 O  dxz             0.5       0.6       0.9       2.9       1.2       0.0
15 O  dyz             0.7       1.1       1.0       3.7       2.1       0.1
15 O  dx2y2           0.0       0.5       0.0       0.1       0.1       0.2
15 O  dxy             4.4       3.0       7.3      15.8      11.4       0.8
16 O  s               3.6       0.1       0.3       0.0       0.2       0.0
16 O  pz              0.6       0.0       0.0       0.0       0.0       0.0
16 O  px              1.8       0.0       0.1       0.0       0.0       0.0
16 O  py              2.0       0.0       0.1       0.0       0.0       0.0
16 O  dxz            11.1       0.1       0.8       0.3       0.2       0.0
16 O  dyz            29.4       0.5       2.1       0.6       0.5       0.0
16 O  dx2y2           7.9       0.1       0.5       0.5       0.0       0.2
16 O  dxy            12.2       0.1       0.8       0.1       0.3       0.0
19 H  s               0.0       0.0       0.1       0.1       0.0       0.1
20 H  s               0.0       0.2       0.4       0.0       0.1       0.0
21 H  s               0.0       0.5       0.0       0.1       0.1       0.0
22 H  s               0.1       0.0       0.1       0.3       0.2       0.0
23 H  s               0.7       0.0       0.0       0.1       0.0       0.0



                      *****************************
                      * MAYER POPULATION ANALYSIS *
                      *****************************

  NA   - Mulliken gross atomic population
  ZA   - Total nuclear charge
  QA   - Mulliken gross atomic charge
  VA   - Mayer's total valence
  BVA  - Mayer's bonded valence
  FA   - Mayer's free valence

  ATOM       NA         ZA         QA         VA         BVA        FA
  0 C      5.9253     6.0000     0.0747     3.9975     3.9975    -0.0000
  1 C      5.9833     6.0000     0.0167     4.0572     4.0572     0.0000
  2 H      0.9369     1.0000     0.0631     0.9884     0.9884     0.0000
  3 C      5.9444     6.0000     0.0556     4.0209     4.0209     0.0000
  4 H      0.9444     1.0000     0.0556     0.9739     0.9739    -0.0000
  5 C      5.9344     6.0000     0.0656     4.0415     4.0415     0.0000
  6 H      0.9444     1.0000     0.0556     0.9839     0.9839     0.0000
  7 C      5.9657     6.0000     0.0343     3.9938     3.9938    -0.0000
  8 H      0.9415     1.0000     0.0585     0.9889     0.9889     0.0000
  9 C      5.8178     6.0000     0.1822     4.2059     4.2059    -0.0000
 10 H      0.9626     1.0000     0.0374     0.9752     0.9752     0.0000
 11 O      8.3061     8.0000    -0.3061     2.1377     2.1377    -0.0000
 12 O      8.3927     8.0000    -0.3927     2.0447     2.0447    -0.0000
 13 O      8.4272     8.0000    -0.4272     2.0121     2.0121     0.0000
 14 O      8.4274     8.0000    -0.4274     2.0231     2.0231    -0.0000
 15 O      8.4170     8.0000    -0.4170     2.0166     2.0166    -0.0000
 16 O      8.4341     8.0000    -0.4341     1.9975     1.9975    -0.0000
 17 H      0.9343     1.0000     0.0657     0.9671     0.9671     0.0000
 18 H      0.9107     1.0000     0.0893     0.9772     0.9772    -0.0000
 19 H      0.6866     1.0000     0.3134     0.8883     0.8883    -0.0000
 20 H      0.6873     1.0000     0.3127     0.8884     0.8884    -0.0000
 21 H      0.6869     1.0000     0.3131     0.8897     0.8897     0.0000
 22 H      0.6886     1.0000     0.3114     0.8928     0.8928    -0.0000
 23 H      0.7005     1.0000     0.2995     0.8793     0.8793     0.0000

  Mayer bond orders larger than 0.100000
B(  0-C ,  1-C ) :   1.0749 B(  0-C , 16-O ) :   1.1082 B(  0-C , 17-H ) :   0.8992 
B(  0-C , 18-H ) :   0.9114 B(  1-C ,  2-H ) :   0.8691 B(  1-C ,  3-C ) :   1.0063 
B(  1-C , 11-O ) :   0.9928 B(  3-C ,  4-H ) :   0.8699 B(  3-C ,  5-C ) :   1.0253 
B(  3-C , 15-O ) :   1.0635 B(  5-C ,  6-H ) :   0.8735 B(  5-C ,  7-C ) :   1.0099 
B(  5-C , 14-O ) :   1.0823 B(  7-C ,  8-H ) :   0.8644 B(  7-C ,  9-C ) :   0.9938 
B(  7-C , 13-O ) :   1.0643 B(  9-C , 10-H ) :   0.8827 B(  9-C , 11-O ) :   1.0209 
B(  9-C , 12-O ) :   1.1613 B( 12-O , 19-H ) :   0.8360 B( 13-O , 20-H ) :   0.8377 
B( 14-O , 21-H ) :   0.8359 B( 15-O , 22-H ) :   0.8343 B( 16-O , 23-H ) :   0.8521 


-------
TIMINGS
-------

Total SCF time: 0 days 0 hours 0 min 9 sec 

Total time                  ....       9.359 sec
Sum of individual times     ....       8.958 sec  ( 95.7%)

SCF preparation             ....       0.171 sec  (  1.8%)
Fock matrix formation       ....       8.009 sec  ( 85.6%)
  Startup                   ....       0.051 sec  (  0.6% of F)
  Split-RI-J                ....       3.425 sec  ( 42.8% of F)
  XC integration            ....       4.108 sec  ( 51.3% of F)
    Basis function eval.    ....       1.292 sec  ( 31.5% of XC)
    Density eval.           ....       0.725 sec  ( 17.7% of XC)
    XC-Functional eval.     ....       0.276 sec  (  6.7% of XC)
    XC-Potential eval.      ....       0.944 sec  ( 23.0% of XC)
Diagonalization             ....       0.000 sec  (  0.0%)
Density matrix formation    ....       0.165 sec  (  1.8%)
Total Energy calculation    ....       0.030 sec  (  0.3%)
Population analysis         ....       0.107 sec  (  1.1%)
Orbital Transformation      ....       0.059 sec  (  0.6%)
Orbital Orthonormalization  ....       0.000 sec  (  0.0%)
DIIS solution               ....       0.329 sec  (  3.5%)
  MO trafo                  ....       0.000 sec  (  0.0 % of DIIS)
  Orb grad                  ....       0.000 sec  (  0.0 % of DIIS)
  Energy W gradient         ....       0.000 sec  (  0.0 % of DIIS)
  DIIS error                ....       0.006 sec  (  1.9 % of DIIS)
  DIIS work                 ....       0.275 sec  ( 83.8 % of DIIS)
  Form Q                    ....       0.000 sec  (  0.0 % of DIIS)
  Form QpQm                 ....       0.000 sec  (  0.0 % of DIIS)
  Exp/Cayley                ....       0.000 sec  (  0.0 % of DIIS)
  Orb update                ....       0.000 sec  (  0.0 % of DIIS)
  Wake-sleep                ....       0.015 sec  (  4.5 % of DIIS)
SOSCF solution              ....       0.089 sec  (  1.0%)
  MO trafo                  ....       0.050 sec  ( 55.4 % of SOSCF)
  Orb grad                  ....       0.001 sec  (  1.3 % of SOSCF)
  Rot update                ....       0.019 sec  ( 20.9 % of SOSCF)
  Step                      ....       0.020 sec  ( 22.3 % of SOSCF)
Finished LeanSCF after   9.5 sec

Maximum memory used throughout the entire LEANSCF-calculation: 18.0 MB


-------------------------------------------------------------------------------
                          DFT DISPERSION CORRECTION                            
                                                                               
                                DFTD4 V3.4.0                                   
-------------------------------------------------------------------------------
The PBE functional is recognized
Active option DFTDOPT                   ...         5   

-------------------------   ----------------
Dispersion correction           -0.023509143
-------------------------   ----------------

------------------   -----------------
gCP correction             0.153058625
------------------   -----------------

-------------------------   --------------------
FINAL SINGLE POINT ENERGY      -685.701706370096
-------------------------   --------------------


------------------------------------------------------------------------------
                              ORCA PROPERTY CALCULATIONS
------------------------------------------------------------------------------

GBWName                                 ... sp.gbw
Number of atoms                         ...     24
Number of basis functions               ...    192
Max core memory                         ...   1024 MB

Electric properties:
Dipole moment                           ... YES
Quadrupole moment                       ...  NO
Static polarizability (Dipole/Dipole)   ...  NO
Static polarizability (Dipole/Quad.)    ...  NO
Static polarizability (Quad./Quad.)     ...  NO
Static polarizability (Velocity)        ...  NO

Atomic electric properties:
Dipole moment                           ...  NO
Quadrupole moment                       ...  NO
Static polarizability                   ...  NO

Choice of electric origin               ... Center of mass
Position of electric origin             ...    -0.000006     0.000002    -0.000001

General magnetic properties:
Magnetizability                         ...  NO

EPR properties:
g-Tensor (aka g-matrix)                 ...  NO
Zero-Field splitting spin-orbit         ...  NO
Zero-field splitting spin-spin          ...  NO
Hyperfine couplings                     ...  NO (   0 nuclei)
Quadrupole couplings                    ...  NO (   0 nuclei)
Contact density                         ...  NO (   0 nuclei)

NMR properties:
Chemical shifts                         ...  NO (   0 nuclei)
Spin-rotation constants                 ...  NO (   0 nuclei)
Spin-spin couplings                     ...  NO (   0 nuclei,    0 pairs)

Choice of magnetic origin               ... GIAO
Position of magnetic origin             ...     0.000000     0.000000     0.000000

Properties with geometric perturbations:
SCF Hessian                             ...  NO
IR spectrum                             ...  NO
VCD spectrum                            ...  NO
X-ray spectroscopy properties:
SCF XES/XAS/RIXS spectra                ...  NO


-------------
DIPOLE MOMENT
-------------

Method             : SCF
Type of density    : Electron Density
Multiplicity       :   1
Irrep              :   0
Energy             :  -685.8312558517978914 Eh
Relativity type    : 
Basis              : AO
                                X                 Y                 Z
Electronic contribution:      2.283360829      -0.741880369       0.173372752
Nuclear contribution   :     -2.209216835       0.490694023      -0.451475467
                        -----------------------------------------
Total Dipole Moment    :      0.074143994      -0.251186345      -0.278102715
                        -----------------------------------------
Magnitude (a.u.)       :      0.382011822
Magnitude (Debye)      :      0.970996886



--------------------
Rotational spectrum 
--------------------
 
Rotational constants in cm-1:             0.039799             0.025681             0.016369 
Rotational constants in MHz :          1193.147617           769.900243           490.726610 

Dipole components along the rotational axes: 
x,y,z [a.u.] :     0.002956    -0.245682    -0.292514 
x,y,z [Debye]:     0.007515    -0.624475    -0.743512 

 

Dipole moment calculation done in   0.0 sec 

Maximum memory used throughout the entire PROP-calculation: 11.7 MB

--------------------------------
SUGGESTED CITATIONS FOR THIS RUN
--------------------------------

Below you find a list of papers that are relevant to this ORCA run
We neither can nor want to force you to cite these papers, but we appreciate if you do
You receive ORCA, which is the product of decades of hard work by many enthusiastic individuals, for free
The only thing we kindly ask in return is that you cite our papers,
We deeply appreciate it, if you show your appreciation for ORCA by not just citing the generic ORCA reference.

Please note that relegating all ORCA citations to the supporting information does *not* help us.
SI sections are not indexed - citations you put there will not count into any citation statistics
But we need these citations in order to attract the funding resources that allow us to do what we are doing

Therefore, if you are a happy ORCA user, please consider citing a few of the papers listed below in the main body of your paper

In addition to the list printed below, the program has created the file sp.bibtex that contains the list in bibtex format
You can import this file easily into all common literature databanks and citation aid programs


List of essential papers. We consider these as the minimum necessary citations

  1. Neese,F.
     Software update: the ORCA program system, version 5.0
     WIRES Comput. Molec. Sci., 2022 12(1)e1606
     doi.org/10.1002/wcms.1606

List of papers to cite with high priority. The work reported in these papers was absolutely
necessary for this run to complete.
Our perspective: the developers of density functionals and basis sets usually get cited in chemistry papers
Good! But without the algorithms to do something with them, the functionals or basis sets would not do anything.
Hence, in our opinion, the algorithm design and method developments papers are equally worthy of getting cited

  1. Neese,F.
     An improvement of the resolution of the identity approximation for the formation of the Coulomb matrix
     J. Comp. Chem., 2003 24(14)1740-1747
     doi.org/10.1002/jcc.10318
  2. Neese,F.
     The SHARK Integral Generation and Digestion System
     J. Comp. Chem., 2022  1-16
     doi.org/10.1002/jcc.26942
  3. Caldeweyher,E.; Bannwarth,C.; Grimme,S.
     Extension of the D3 dispersion coefficient model
     J. Chem. Phys., 2017 147 034112-XXXX
     doi.org/10.1063/1.4993215
  4. Caldeweyher,E.; Ehlert,S.; Hansen,A.; Neugebauer,H.; Spicher,S.; Bannwarth,C.; Grimme,S.
     A generally applicable atomic-charge dependent London dispersion correction
     J. Chem. Phys., 2019 150 154122-XXXX
     doi.org/10.1063/1.5090222
  5. Caldeweyher,E.; Mewes,J.; Ehlert,S.; Grimme,S.
     Extension and evaluation of the D4 London-dispersion model for periodic systems
     Phys. Chem. Chem. Phys., 2020 22(16)8499-8512
     doi.org/10.1039/D0CP00502A

List of suggested additional citations. These are papers that are important in the 'surrounding' of 
of this run, or papers that preceded the highly important papers. If you like your results we are grateful for a citation.

  1. Neese,F.
     The ORCA program system
     WIRES Comput. Molec. Sci., 2012 2(1)73-78
     doi.org/10.1002/wcms.81
  2. Neese,F.
     Software update: the ORCA program system, version 4.0
     WIRES Comput. Molec. Sci., 2018 8(1)1-6
     doi.org/10.1002/wcms.1327
  3. Neese,F.; Wennmohs,F.; Becker,U.; Riplinger,C.
     The ORCA quantum chemistry program package
     J. Chem. Phys., 2020 152 Art. No. L224108
     doi.org/10.1063/5.0004608

List of optional additional citations

  1. Neese,F.
     Approximate second-order SCF convergence for spin unrestricted wavefunctions
     Chem. Phys. Lett., 2000 325(1-3)93-98
     doi.org/10.1016/s0009-2614(00)00662-x

Timings for individual modules:

Sum of individual times          ...       11.628 sec (=   0.194 min)
Startup calculation              ...        1.069 sec (=   0.018 min)   9.2 %
SCF iterations                   ...       10.459 sec (=   0.174 min)  90.0 %
Property calculations            ...        0.099 sec (=   0.002 min)   0.9 %
                             ****ORCA TERMINATED NORMALLY****
TOTAL RUN TIME: 0 days 0 hours 0 minutes 12 seconds 337 msec
