      -----------------------------------------------------------      
     |                   =====================                   |     
     |                           x T B                           |     
     |                   =====================                   |     
     |                         S. Grimme                         |     
     |          Mulliken Center for Theoretical Chemistry        |     
     |                    University of Bonn                     |     
      -----------------------------------------------------------      

   * xtb version 6.7.1 (edcfbbe) compiled by 'albert@albert-system' on 2024-07-22

   xtb is free software: you can redistribute it and/or modify it under
   the terms of the GNU Lesser General Public License as published by
   the Free Software Foundation, either version 3 of the License, or
   (at your option) any later version.
   
   xtb is distributed in the hope that it will be useful,
   but WITHOUT ANY WARRANTY; without even the implied warranty of
   MERCHANTABILITY or FITNESS FOR A PARTICULAR PURPOSE.  See the
   GNU Lesser General Public License for more details.
   
   Cite this work as:
   * C. Bannwarth, E. Caldeweyher, S. Ehlert, A. Hansen, P. Pracht,
     J. Seibert, S. Spicher, S. Grimme, WIREs Comput. Mol. Sci., 2020, 11,
     e01493. DOI: 10.1002/wcms.1493
   
   for GFN2-xTB:
   * C. Bannwarth, S. Ehlert and S. Grimme., J. Chem. Theory Comput., 2019,
     15, 1652-1671. DOI: 10.1021/acs.jctc.8b01176
   for GFN1-xTB:
   * S. Grimme, C. Bannwarth, P. Shushkov, J. Chem. Theory Comput., 2017,
     13, 1989-2009. DOI: 10.1021/acs.jctc.7b00118
   for GFN0-xTB:
   * P. Pracht, E. Caldeweyher, S. Ehlert, S. Grimme, ChemRxiv, 2019, preprint.
     DOI: 10.26434/chemrxiv.8326202.v1
   for GFN-FF:
   * S. Spicher and S. Grimme, Angew. Chem. Int. Ed., 2020, 59, 15665-15673.
     DOI: 10.1002/anie.202004239
   
   for ALPB and GBSA implicit solvation:
   * S. Ehlert, M. Stahn, S. Spicher, S. Grimme, J. Chem. Theory Comput.,
     2021, 17, 4250-4261. DOI: 10.1021/acs.jctc.1c00471
   
   for ddCOSMO and CPCM-X implicit solvation:
   * M. Stahn, S. Ehlert, S. Grimme, J. Phys. Chem. A,
     2023, XX, XXXX-XXXX. DOI: 10.1021/acs.jpca.3c04382
   
   for DFT-D4:
   * E. Caldeweyher, C. Bannwarth and S. Grimme, J. Chem. Phys., 2017,
     147, 034112. DOI: 10.1063/1.4993215
   * E. Caldeweyher, S. Ehlert, A. Hansen, H. Neugebauer, S. Spicher,
     C. Bannwarth and S. Grimme, J. Chem. Phys., 2019, 150, 154122.
     DOI: 10.1063/1.5090222
   * E. Caldeweyher, J.-M. Mewes, S. Ehlert and S. Grimme, Phys. Chem. Chem. Phys.
     2020, 22, 8499-8512. DOI: 10.1039/D0CP00502A
   
   for sTDA-xTB:
   * S. Grimme and C. Bannwarth, J. Chem. Phys., 2016, 145, 054103.
     DOI: 10.1063/1.4959605
   
   in the mass-spec context:
   * V. Asgeirsson, C. Bauer and S. Grimme, Chem. Sci., 2017, 8, 4879.
     DOI: 10.1039/c7sc00601b
   * J. Koopman and S. Grimme, ACS Omega 2019, 4, 12, 15120-15133.
     DOI: 10.1021/acsomega.9b02011
   
   for metadynamics refer to:
   * S. Grimme, J. Chem. Theory Comput., 2019, 155, 2847-2862
     DOI: 10.1021/acs.jctc.9b00143
   
   for SPH calculations refer to:
   * S. Spicher and S. Grimme, J. Chem. Theory Comput., 2021, 17, 1701-1714
     DOI: 10.1021/acs.jctc.0c01306
   
   for ONIOM refer to:
   * C. Plett, A. Katbashev, S. Ehlert, S. Grimme, M. Bursch,
     Phys. Chem. Chem. Phys., 2023, 25, 17860-17868. DOI: 10.1039/D3CP02178E
   
   for DIPRO refer to:
   * J. Kohn, N. Gildemeister, S. Grimme, D. Fazzi, A. Hansen,
     J. Chem. Phys., 2023, just accepted.
   
   for PTB refer to:
   * S. Grimme, M. Mueller, A. Hansen, J. Chem. Phys., 2023, 158, 124111.
     DOI: 10.1063/5.0137838
   
   with help from (in alphabetical order)
   P. Atkinson, C. Bannwarth, F. Bohle, G. Brandenburg, E. Caldeweyher
   M. Checinski, S. Dohm, S. Ehlert, S. Ehrlich, I. Gerasimov, C. Hölzer
   A. Katbashev, J. Kohn, J. Koopman, C. Lavigne, S. Lehtola, F. März, M. Müller,
   F. Musil, H. Neugebauer, J. Pisarek, C. Plett, P. Pracht, F. Pultar,
   J. Seibert, P. Shushkov, S. Spicher, M. Stahn, M. Steiner, T. Strunk,
   J. Stückrath, T. Rose, and J. Unsleber
   
 * started run on 2025/04/03 at 21:44:43.635     
   ID    Z sym.   atoms
    1    6 C      1-6
    2    8 O      7
    3    9 F      8
    4    1 H      9-13

           -------------------------------------------------
          |                Calculation Setup                |
           -------------------------------------------------

          program call               : /srv/scratch/z5358697/.xtb/bin/xtb xtb_opt.coord --opt normal --orca -I xtb_opt-xcontrol-inp
          hostname                   : k158
          coordinate file            : xtb_opt.coord
          omp threads                :                     1

           -------------------------------------------------
          |                   Orca driver                   |
           -------------------------------------------------
orca executable           : /apps/z_install_tree/linux-rocky8-ivybridge/gcc-12.2.0/orca-6.0.0-srtngmq3qlimg2qxbl6avaaiffipurdx/bin/orca
orca input file           : xtb_opt.inp
orca input line           : 
orca parallel             : false
orca number of threads    : 1
                         * ORCA takes the control...
  ------------------------------------------------------------------------

                                 *****************
                                 * O   R   C   A *
                                 *****************

                                            #,                                       
                                            ###                                      
                                            ####                                     
                                            #####                                    
                                            ######                                   
                                           ########,                                 
                                     ,,################,,,,,                         
                               ,,#################################,,                 
                          ,,##########################################,,             
                       ,#########################################, ''#####,          
                    ,#############################################,,   '####,        
                  ,##################################################,,,,####,       
                ,###########''''           ''''###############################       
              ,#####''   ,,,,##########,,,,          '''####'''          '####       
            ,##' ,,,,###########################,,,                        '##       
           ' ,,###''''                  '''############,,,                           
         ,,##''                                '''############,,,,        ,,,,,,###''
      ,#''                                            '''#######################'''  
     '                                                          ''''####''''         
             ,#######,   #######,   ,#######,      ##                                
            ,#'     '#,  ##    ##  ,#'     '#,    #''#        ,####,   ,####,        
            ##       ##  ##   ,#'  ##            #'  '#       #'       #'  '#        
            ##       ##  #######   ##           ,######,      #####,   #    #        
            '#,     ,#'  ##    ##  '#,     ,#' ,#      #,     #,   #   #,  ,#        
             '#######'   ##     ##  '#######'  #'      '#     '####' # '####'        



                #########################################################
                #                        -***-                          #
                #          Department of theory and spectroscopy        #
                #                                                       #
                #                      Frank Neese                      #
                #                                                       #
                #     Directorship, Architecture, Infrastructure        #
                #                    SHARK, DRIVERS                     #
                #        Core code/Algorithms in most modules           #
                #                                                       #
                #        Max Planck Institute fuer Kohlenforschung      #
                #                Kaiser Wilhelm Platz 1                 #
                #                 D-45470 Muelheim/Ruhr                 #
                #                      Germany                          #
                #                                                       #
                #                  All rights reserved                  #
                #                        -***-                          #
                #########################################################


                         Program Version 6.0.0  -   RELEASE  -


 With contributions from (in alphabetic order):
   Daniel Aravena         : Magnetic Suceptibility
   Michael Atanasov       : Ab Initio Ligand Field Theory (pilot matlab implementation)
   Alexander A. Auer      : GIAO ZORA, VPT2 properties, NMR spectrum
   Ute Becker             : All parallelization in ORCA, NUMFREQ, NUMCALC
   Giovanni Bistoni       : ED, misc. LED, open-shell LED, HFLD
   Martin Brehm           : Molecular dynamics
   Dmytro Bykov           : pre 5.0 version of the SCF Hessian
   Marcos Casanova-Páez   : Triplet and SCS-CIS(D). UHF-(DLPNO)-IP/EA/STEOM-CCSD. UHF-CVS-IP/STEOM-CCSD
   Vijay G. Chilkuri      : MRCI spin determinant printing, contributions to CSF-ICE
   Pauline Colinet        : FMM embedding
   Dipayan Datta          : RHF DLPNO-CCSD density
   Achintya Kumar Dutta   : EOM-CC, STEOM-CC
   Nicolas Foglia         : Exact transition moments, OPA infrastructure, MCD improvements
   Dmitry Ganyushin       : Spin-Orbit,Spin-Spin,Magnetic field MRCI
   Miquel Garcia          : C-PCM and meta-GGA Hessian, CCSD/C-PCM, Gaussian charge scheme
   Tiago L. C. Gouveia    : GS-ROHF, GS-ROCIS
   Yang Guo               : DLPNO-NEVPT2, F12-NEVPT2, CIM, IAO-localization
   Andreas Hansen         : Spin unrestricted coupled pair/coupled cluster methods
   Ingolf Harden          : AUTO-CI MPn and infrastructure 
   Benjamin Helmich-Paris : MC-RPA, TRAH-(SCF,CASSCF), AVAS, COSX integrals, SCF dyn. polar.
   Lee Huntington         : MR-EOM, pCC
   Robert Izsak           : Overlap fitted RIJCOSX, COSX-SCS-MP3, EOM
   Riya Kayal             : Wick's Theorem for AUTO-CI, AUTO-CI UHF-CCSDT
   Emily Kempfer          : AUTO-CI, RHF CISDT and CCSDT
   Christian Kollmar      : KDIIS, OOCD, Brueckner-CCSD(T), CCSD density, CASPT2, CASPT2-K, improved NEVPT2
   Axel Koslowski         : Symmetry handling
   Simone Kossmann        : Meta GGA functionals, TD-DFT gradient, OOMP2, (MP2 Hessian; deprecated post 5.0)
   Lucas Lang             : DCDCAS
   Marvin Lechner         : AUTO-CI (C++ implementation), FIC-MRCC
   Spencer Leger          : CASSCF response
   Dagmar Lenk            : GEPOL surface, SMD, ORCA-2-JSON
   Dimitrios Liakos       : Extrapolation schemes; Compound Job, initial MDCI parallelization
   Dimitrios Manganas     : Further ROCIS development; embedding schemes. LFT, Crystal Embedding
   Dimitrios Pantazis     : SARC Basis sets
   Anastasios Papadopoulos: AUTO-CI, single reference methods and gradients
   Taras Petrenko         : pre 6.0 DFT Hessian and TD-DFT gradient, (ASA, deprecated), ECA, 1-Electron XAS/XES, NRVS
   Peter Pinski           : DLPNO-MP2, DLPNO-MP2 Gradient
   Christoph Reimann      : Effective Core Potentials
   Marius Retegan         : Local ZFS, SOC
   Christoph Riplinger    : Optimizer, TS searches, QM/MM, DLPNO-CCSD(T), (RO)-DLPNO pert. Triples
   Michael Roemelt        : Original ROCIS implementation
   Masaaki Saitow         : Open-shell DLPNO-CCSD energy and density
   Barbara Sandhoefer     : DKH picture change effects
   Kantharuban Sivalingam : CASSCF convergence/infrastructure, NEVPT2 and variants, FIC-MRCI
   Bernardo de Souza      : ESD, SOC TD-DFT
   Georgi Stoychev        : AutoAux, RI-MP2 NMR, DLPNO-MP2 response, X2C
   Van Anh Tran           : RI-MP2 g-tensors
   Willem Van den Heuvel  : Paramagnetic NMR
   Zikuan Wang            : NOTCH, Electric field optimization 
   Frank Wennmohs         : Technical directorship and infrastructure
   Hang Xu                : AUTO-CI-Response properties 


 We gratefully acknowledge several colleagues who have allowed us to
 interface, adapt or use parts of their codes:
   Stefan Grimme, W. Hujo, H. Kruse, P. Pracht,  : VdW corrections, initial TS optimization,
                  C. Bannwarth, S. Ehlert,         DFT functionals, gCP, sTDA/sTD-DF
                  L. Wittmann, M. Mueller
   Ed Valeev, F. Pavosevic, A. Kumar             : LibInt (2-el integral package), F12 methods
   Garnet Chan, S. Sharma, J. Yang, R. Olivares  : DMRG
   Ulf Ekstrom                                   : XCFun DFT Library
   Mihaly Kallay                                 : mrcc  (arbitrary order and MRCC methods)
   Frank Weinhold                                : gennbo (NPA and NBO analysis)
   Simon Mueller                                 : openCOSMO-RS
   Christopher J. Cramer and Donald G. Truhlar   : smd solvation model
   Lars Goerigk                                  : TD-DFT with DH, B97 family of functionals
   V. Asgeirsson, H. Jonsson                     : NEB implementation
   FAccTs GmbH                                   : IRC, NEB, NEB-TS, DLPNO-Multilevel, CI-OPT
                                                   MM, QMMM, 2- and 3-layer-ONIOM, Crystal-QMMM,
                                                   LR-CPCM, SF, NACMEs, symmetry and pop. for TD-DFT,
                                                   nearIR, NL-DFT gradient (VV10), updates on ESD,
                                                   ML-optimized integration grids, MBIS, APM,
                                                   GOAT, DOCKER, SOLVATOR, interface openCOSMO-RS
   S Lehtola, MJT Oliveira, MAL Marques          : LibXC Library
   Liviu Ungur et al                             : ANISO software


 Your calculation uses the libint2 library for the computation of 2-el integrals
 For citations please refer to: http://libint.valeyev.net

 Your ORCA version has been built with support for libXC version: 6.2.2
 For citations please refer to: https://libxc.gitlab.io

 This ORCA versions uses:
   CBLAS   interface :  Fast vector & matrix operations
   LAPACKE interface :  Fast linear algebra routines
   SCALAPACK package :  Parallel linear algebra routines
   Shared memory     :  Shared parallel matrices
   BLAS/LAPACK       :  OpenBLAS 0.3.27  USE64BITINT DYNAMIC_ARCH NO_AFFINITY SkylakeX SINGLE_THREADED
        Core in use  :  SkylakeX
   Copyright (c) 2011-2014, The OpenBLAS Project




***************************************
The coordinates will be read from file: xtb_opt.xyz
***************************************


Your calculation utilizes the geometrical counterpoise correction gCP
Please cite in your paper:
H.Kruse, S. Grimme J.Chem.Phys., 136, (2012), 154101 
   

Your calculation utilizes the atom-pairwise dispersion correction
based on EEQ partial charges (D4)


Your calculation utilizes the SMD solvation module
Please cite in your paper:
A.V. Marenich, C.J. Cramer, D.G. Truhlar J. Phys. Chem. B, 113, (2009), 6378 

================================================================================

----- Orbital basis set information -----
Your calculation utilizes the basis: def2-mTZVPP
   Stefan Grimme, Andreas Hansen, Sebastian Ehlert, and Jan-Michael Mewes 
   J. Chem. Phys. 154, 064103 (2021). DOI: 10.1063/5.0040021

----- AuxJ basis set information -----
Your calculation utilizes the auxiliary basis: def2/J
   F. Weigend, Phys. Chem. Chem. Phys. 8, 1057 (2006).

================================================================================
                                        WARNINGS
                       Please study these warnings very carefully!
================================================================================

Using LibXC functional ID 497 : Re-regularized SCAN exchange by Furness et al
[ 1]  J. W. Furness, A. D. Kaplan, J. Ning, J. P. Perdew, and J. Sun.,  J. Phys. Chem. Lett. 11, 8208-8215 (2020)
[ 2]  J. W. Furness, A. D. Kaplan, J. Ning, J. P. Perdew, and J. Sun.,  J. Phys. Chem. Lett. 11, 9248-9248 (2020)
Using LibXC functional ID 498 : Re-regularized SCAN correlation by Furness et al
[ 1]  J. W. Furness, A. D. Kaplan, J. Ning, J. P. Perdew, and J. Sun.,  J. Phys. Chem. Lett. 11, 8208-8215 (2020)
[ 2]  J. W. Furness, A. D. Kaplan, J. Ning, J. P. Perdew, and J. Sun.,  J. Phys. Chem. Lett. 11, 9248-9248 (2020)
Using LibXC functional ID 497 : Re-regularized SCAN exchange by Furness et al
[ 1]  J. W. Furness, A. D. Kaplan, J. Ning, J. P. Perdew, and J. Sun.,  J. Phys. Chem. Lett. 11, 8208-8215 (2020)
[ 2]  J. W. Furness, A. D. Kaplan, J. Ning, J. P. Perdew, and J. Sun.,  J. Phys. Chem. Lett. 11, 9248-9248 (2020)
Using LibXC functional ID 498 : Re-regularized SCAN correlation by Furness et al
[ 1]  J. W. Furness, A. D. Kaplan, J. Ning, J. P. Perdew, and J. Sun.,  J. Phys. Chem. Lett. 11, 8208-8215 (2020)
[ 2]  J. W. Furness, A. D. Kaplan, J. Ning, J. P. Perdew, and J. Sun.,  J. Phys. Chem. Lett. 11, 9248-9248 (2020)

================================================================================
                                       INPUT FILE
================================================================================
NAME = xtb_opt.inp
|  1> ! r2scan-3c def2/J RI DEFGRID2 scfconv7 ENGRAD tightSCF miniprint
|  2> %cpcm
|  3>     smd true
|  4>     smdsolvent "water"
|  5> end
|  6> * xyzfile 0 1 xtb_opt.xyz
|  7> 
|  8>                          ****END OF INPUT****
================================================================================

                     *******************************
                     * Energy+Gradient Calculation *
                     *******************************

---------------------------------
CARTESIAN COORDINATES (ANGSTROEM)
---------------------------------
  C     -0.732284   -1.204316    0.000108
  C      0.651097   -1.209107   -0.000026
  C      1.318515   -0.001373    0.000040
  C      0.652139    1.209227    0.000098
  C     -0.728380    1.205352    0.000131
  C     -1.430177    0.000254    0.000192
  O     -2.782497    0.056814   -0.000184
  F      2.688614   -0.002908   -0.000106
  H     -1.265377   -2.142508    0.000091
  H      1.207035   -2.132275   -0.000012
  H      1.209291    2.131441   -0.000669
  H     -1.284405    2.128322   -0.000397
  H     -3.169414   -0.832443   -0.000580

----------------------------
CARTESIAN COORDINATES (A.U.)
----------------------------
  NO LB      ZA    FRAG     MASS         X           Y           Z
   0 C     6.0000    0    12.011   -1.383815   -2.275828    0.000204
   1 C     6.0000    0    12.011    1.230395   -2.284881   -0.000049
   2 C     6.0000    0    12.011    2.491631   -0.002594    0.000076
   3 C     6.0000    0    12.011    1.232364    2.285108    0.000184
   4 C     6.0000    0    12.011   -1.376439    2.277784    0.000248
   5 C     6.0000    0    12.011   -2.702644    0.000480    0.000363
   6 O     8.0000    0    15.999   -5.258158    0.107363   -0.000347
   7 F     9.0000    0    18.998    5.080744   -0.005494   -0.000200
   8 H     1.0000    0     1.008   -2.391217   -4.048753    0.000171
   9 H     1.0000    0     1.008    2.280966   -4.029416   -0.000023
  10 H     1.0000    0     1.008    2.285228    4.027840   -0.001263
  11 H     1.0000    0     1.008   -2.427174    4.021946   -0.000751
  12 H     1.0000    0     1.008   -5.989324   -1.573088   -0.001097

------------------------------------------------------------------------------
                   ___                                                        
                  /   \      - P O W E R E D   B Y -                         
                 /     \                                                     
                 |  |  |   _    _      __       _____    __    __             
                 |  |  |  | |  | |    /  \     |  _  \  |  |  /  |          
                  \  \/   | |  | |   /    \    | | | |  |  | /  /          
                 / \  \   | |__| |  /  /\  \   | |_| |  |  |/  /          
                |  |  |   |  __  | /  /__\  \  |    /   |      \           
                |  |  |   | |  | | |   __   |  |    \   |  |\   \          
                \     /   | |  | | |  |  |  |  | |\  \  |  | \   \       
                 \___/    |_|  |_| |__|  |__|  |_| \__\ |__|  \__/        
                                                                              
                      - O R C A' S   B I G   F R I E N D -                    
                                      &                                       
                       - I N T E G R A L  F E E D E R -                       
                                                                              
 v1 FN, 2020, v2 2021, v3 2022-2024                                           
------------------------------------------------------------------------------


----------------------
SHARK INTEGRAL PACKAGE
----------------------

Number of atoms                             ...     13
Number of basis functions                   ...    187
Number of shells                            ...     89
Maximum angular momentum                    ...      2
Integral batch strategy                     ... SHARK/LIBINT Hybrid
RI-J (if used) integral strategy            ... SPLIT-RIJ (Revised 2003 algorithm where possible)
Printlevel                                  ...      1
Contraction scheme used                     ... SEGMENTED contraction
Prescreening option                         ... SCHWARTZ
   Thresh                                   ... 3.000e-11
   Tcut                                     ... 1.000e-12
   Tpresel                                  ... 1.000e-12 
Coulomb Range Separation                    ... NOT USED
Exchange Range Separation                   ... NOT USED
Multipole approximations                    ... NOT USED
Finite Nucleus Model                        ... NOT USED
CABS basis                                  ... NOT available
Auxiliary Coulomb fitting basis             ... AVAILABLE
   # of basis functions in Aux-J            ...    447
   # of shells in Aux-J                     ...    145
   Maximum angular momentum in Aux-J        ...      4
Auxiliary J/K fitting basis                 ... NOT available
Auxiliary Correlation fitting basis         ... NOT available
Auxiliary 'external' fitting basis          ... NOT available

Checking pre-screening integrals            ... done (  0.0 sec) Dimension = 89
Check shell pair data                       ... done (  0.0 sec)
Shell pair information
Shell pair cut-off parameter TPreSel        ...   1.0e-12
Total number of shell pairs                 ...      4005
Shell pairs after pre-screening             ...      3670
Total number of primitive shell pairs       ...     14897
Primitive shell pairs kept                  ...      9869
          la=0 lb=0:   1114 shell pairs
          la=1 lb=0:   1344 shell pairs
          la=1 lb=1:    417 shell pairs
          la=2 lb=0:    461 shell pairs
          la=2 lb=1:    280 shell pairs
          la=2 lb=2:     54 shell pairs

Calculating one electron integrals          ... done (  0.0 sec)
Calculating RI/J V-Matrix + Cholesky decomp.... done (  0.1 sec)
Calculating Nuclear repulsion               ... done (  0.0 sec) ENN=    343.874762393185 Eh

Diagonalization of the overlap matrix:
Smallest eigenvalue                        ... 3.279e-05
Time for diagonalization                   ...    0.004 sec
Threshold for overlap eigenvalues          ... 1.000e-07
Number of eigenvalues below threshold      ... 0
Time for construction of square roots      ...    0.013 sec
Total time needed                          ...    0.023 sec

-------------------
DFT GRID GENERATION
-------------------

General Integration Accuracy     IntAcc      ... 4.388
Radial Grid Type                 RadialGrid  ... OptM3 with GC (2021)
Angular Grid (max. ang.)         AngularGrid ... 4 (Lebedev-302)
Angular grid pruning method      GridPruning ... 4 (adaptive)
Weight generation scheme         WeightScheme... mBecke (2022)
Basis function cutoff            BFCut       ... 1.0000e-11
Integration weight cutoff        WCut        ... 1.0000e-14
Partially contracted basis set               ... off
Rotationally invariant grid construction     ... off
Angular grids for H and He will be reduced by one unit
Diffuse basis detected: some atoms will have their outermost
                        angular grid increased by 1.

Total number of grid points                  ...    64688
Total number of batches                      ...     1016
Average number of points per batch           ...       63
Average number of grid points per atom       ...     4976
Initializing property integral containers    ... done (  0.0 sec)

SHARK setup successfully completed in   0.9 seconds

Maximum memory used throughout the entire STARTUP-calculation: 29.9 MB
Occupation numbers will be reassigned to an Aufbau configuration
             **** ENERGY FILE WAS UPDATED (xtb_opt.en.tmp) ****
Finished Guess after   0.2 sec
Maximum memory used throughout the entire GUESS-calculation: 12.9 MB
--------------------
CPCM SOLVATION MODEL
--------------------
CPCM parameters:
  Epsilon                                         ...      78.3550
  Refrac                                          ...       1.3328
  Rsolv                                           ...       1.3000
  Surface type                                    ... GAUSSIAN VDW
  Discretization scheme                           ... Constant charge density
    Threshold for H atoms                         ...       5.0000 (charges/Ang^2)
    Threshold for non-H atoms                     ...       5.0000 (charges/Ang^2)
  Epsilon function type                           ...         CPCM
Solvent:                                          ... WATER
SMD-CDS solvent descriptors:
  Soln                                            ...       1.3328
  Soln25                                          ...       1.3323
  Sola                                            ...       0.0000
  Solb                                            ...       0.0000
  Solg                                            ...       0.0000
  Solc                                            ...       0.0000
  Solh                                            ...       0.0000
Radii:
  Scheme                                          ... Element-dependent radii
  Radius for C  used is    3.4960 Bohr (=   1.8500 Ang.)
  Radius for O  used is    2.8724 Bohr (=   1.5200 Ang.)
  Radius for F  used is    3.2692 Bohr (=   1.7300 Ang.)
  Radius for H  used is    2.2677 Bohr (=   1.2000 Ang.)
Calculating surface                               ...        done! (  0.0s)
Cavity surface points                             ...         1090
Cavity Volume                                     ...     740.7149
Cavity Surface-area                               ...     470.0649
Calculating surface distance matrix               ...        done! (  0.0s)
Performing Cholesky decomposition & store         ...        done! (  0.1s)
Overall time for CPCM initialization              ...                 0.1s

----------------------------------------D-I-I-S--------------------------------------------
Iteration    Energy (Eh)           Delta-E    RMSDP     MaxDP     DIISErr   Damp  Time(sec)
-------------------------------------------------------------------------------------------
               ***  Starting incremental Fock matrix formation  ***
                              *** Initializing SOSCF ***
---------------------------------------S-O-S-C-F--------------------------------------
Iteration    Energy (Eh)           Delta-E    RMSDP     MaxDP     MaxGrad    Time(sec)
--------------------------------------------------------------------------------------
    1    -406.6573300364134980     0.00e+00  1.49e-06  2.25e-05  3.86e-06     2.4
               *** Restarting incremental Fock matrix formation ***
    2    -406.6573300371329083    -7.19e-10  1.06e-06  2.59e-05  7.19e-06     2.3
                  *** Gradient check signals convergence ***

               *****************************************************
               *                     SUCCESS                       *
               *           SCF CONVERGED AFTER   2 CYCLES          *
               *****************************************************


SMD CDS free energy correction energy :                 4.03477     Kcal/mol
Total Energy after SMD CDS correction =              -406.650900227 Eh
             **** ENERGY FILE WAS UPDATED (xtb_opt.en.tmp) ****

----------------
TOTAL SCF ENERGY
----------------

Total Energy       :       -406.65090022699127 Eh          -11065.53356 eV

Components:
Nuclear Repulsion  :        343.87476239318545 Eh            9357.30800 eV
Electronic Energy  :       -750.51377177613404 Eh          -20422.51799 eV
One Electron Energy:      -1236.68679637046648 Eh          -33651.95856 eV
Two Electron Energy:        486.17302459433245 Eh           13229.44057 eV
CPCM Dielectric    :         -0.01832065418427 Eh              -0.49853 eV
SMD CDS (Gcds)     :          0.00642981014162 Eh               0.17496 eV

Virial components:
Potential Energy   :       -811.78213794777116 Eh          -22089.71499 eV
Kinetic Energy     :        405.13123772077989 Eh           11024.18144 eV
Virial Ratio       :          2.00375103760145

DFT components:
N(Alpha)           :       29.000015833160 electrons
N(Beta)            :       29.000015833160 electrons
N(Total)           :       58.000031666321 electrons
E(X)               :      -51.449146052257 Eh       
E(C)               :       -1.915862267668 Eh       
E(XC)              :      -53.365008319925 Eh       

CPCM Solvation Model Properties:
Surface-charge          :         -0.03357702168526
Corrected charge        :          0.00000000000000
Outlying charge corr.   :          0.00009338943897 Eh               0.00254 eV
Free-energy (cav+disp)  :          0.00642981014162 Eh               0.17496 eV

---------------
SCF CONVERGENCE
---------------

  Last Energy change         ...    7.1941e-10  Tolerance :   1.0000e-07
  Last MAX-Density change    ...    2.5902e-05  Tolerance :   1.0000e-07
  Last RMS-Density change    ...    1.0604e-06  Tolerance :   5.0000e-09
  Last DIIS Error            ...    2.2679e-05  Tolerance :   1.0000e-07
  Last Orbital Gradient      ...    7.1922e-06  Tolerance :   1.0000e-04
  Last Orbital Rotation      ...    1.9417e-05  Tolerance :   1.0000e-04


----------------
ORBITAL ENERGIES
----------------

  NO   OCC          E(Eh)            E(eV) 
   0   2.0000     -24.494904      -666.5402 
   1   2.0000     -18.983837      -516.5765 
   2   2.0000     -10.113155      -275.1929 
   3   2.0000     -10.100031      -274.8358 
   4   2.0000     -10.043293      -273.2919 
   5   2.0000     -10.043131      -273.2875 
   6   2.0000     -10.040066      -273.2041 
   7   2.0000     -10.038871      -273.1716 
   8   2.0000      -1.177639       -32.0452 
   9   2.0000      -1.030074       -28.0297 
  10   2.0000      -0.832005       -22.6400 
  11   2.0000      -0.731131       -19.8951 
  12   2.0000      -0.710752       -19.3406 
  13   2.0000      -0.605626       -16.4799 
  14   2.0000      -0.583303       -15.8725 
  15   2.0000      -0.522070       -14.2062 
  16   2.0000      -0.507137       -13.7999 
  17   2.0000      -0.465762       -12.6740 
  18   2.0000      -0.426392       -11.6027 
  19   2.0000      -0.417335       -11.3563 
  20   2.0000      -0.401460       -10.9243 
  21   2.0000      -0.395552       -10.7635 
  22   2.0000      -0.384368       -10.4592 
  23   2.0000      -0.373063       -10.1516 
  24   2.0000      -0.339908        -9.2494 
  25   2.0000      -0.310787        -8.4569 
  26   2.0000      -0.309298        -8.4164 
  27   2.0000      -0.249593        -6.7918 
  28   2.0000      -0.204313        -5.5596 
  29   0.0000      -0.042786        -1.1643 
  30   0.0000      -0.015160        -0.4125 
  31   0.0000       0.069517         1.8916 
  32   0.0000       0.081340         2.2134 
  33   0.0000       0.108216         2.9447 
  34   0.0000       0.126143         3.4325 
  35   0.0000       0.130431         3.5492 
  36   0.0000       0.151813         4.1311 
  37   0.0000       0.159525         4.3409 
  38   0.0000       0.174297         4.7429 
  39   0.0000       0.186746         5.0816 
*Only the first 10 virtual orbitals were printed.
Total SCF time: 0 days 0 hours 0 min 5 sec 
Finished LeanSCF after   5.2 sec

Maximum memory used throughout the entire LEANSCF-calculation: 20.1 MB


-------------------------------------------------------------------------------
                          DFT DISPERSION CORRECTION                            
                                                                               
                                DFTD4 V3.4.0                                   
-------------------------------------------------------------------------------
-------------------------   ----------------
Dispersion correction           -0.003872137
-------------------------   ----------------

------------------   -----------------
gCP correction             0.004190615
------------------   -----------------

-------------------------   --------------------
FINAL SINGLE POINT ENERGY      -406.650581748268
-------------------------   --------------------

------------------------------------------------------------------------------
                         ORCA SCF GRADIENT CALCULATION
------------------------------------------------------------------------------

Nuc. rep. gradient        (SHARK) ... done (  0.0 sec)
HCore & Overlap gradient  (SHARK) ... done (  0.2 sec)
Split-RIJ-J gradient      (SHARK) ... done (  1.2 sec)
XC gradient                       ... done (  4.5 sec)
CPCM gradient                     ... done (  0.6 sec)
SMD gradient                      ... done (  0.0 sec)
Dispersion correction             ... done (  0.0 sec)

-------------------
DISPERSION GRADIENT
-------------------

   1   C   :   -0.000023669   -0.000047107    0.000000006
   2   C   :    0.000039060   -0.000047790    0.000000003
   3   C   :    0.000057836    0.000000974    0.000000003
   4   C   :    0.000036676    0.000050023    0.000000002
   5   C   :   -0.000020367    0.000050218    0.000000004
   6   C   :   -0.000047739    0.000000852    0.000000006
   7   O   :   -0.000085208   -0.000014712   -0.000000012
   8   F   :    0.000064276   -0.000000005   -0.000000003
   9   H   :   -0.000015942   -0.000033026    0.000000002
  10   H   :    0.000022351   -0.000031852   -0.000000000
  11   H   :    0.000021294    0.000031889   -0.000000007
  12   H   :   -0.000017063    0.000033902   -0.000000003
  13   H   :   -0.000031504    0.000006633   -0.000000000

Difference to translation invariance:
           :    0.0000000000    0.0000000000    0.0000000000

Difference to rotation invariance:
           :    0.0000000000   -0.0000000000   -0.0000000000

Norm of the Dispersion gradient    ...    0.0001934252
RMS gradient                       ...    0.0000309728
MAX gradient                       ...    0.0000852081
gCP correction                   ... done

------------------
CARTESIAN GRADIENT
------------------

   1   C   :    0.003204970    0.000949773   -0.000007457
   2   C   :   -0.005799116   -0.002166818   -0.000025787
   3   C   :   -0.004426047   -0.000220321   -0.000002237
   4   C   :   -0.006126367    0.001991707    0.000038876
   5   C   :    0.007516212    0.001433637    0.000012547
   6   C   :   -0.012704949    0.002681791    0.000027751
   7   O   :    0.017337354   -0.001404698   -0.000009736
   8   F   :    0.003506590   -0.000182486    0.000001525
   9   H   :    0.003705378    0.003832987    0.000002714
  10   H   :   -0.002133129    0.004579019    0.000005510
  11   H   :   -0.002280962   -0.004650212   -0.000025833
  12   H   :    0.001796859   -0.005338538   -0.000012370
  13   H   :   -0.003596793   -0.001505840   -0.000005502

Difference to translation invariance:
           :    0.0000000000    0.0000000000   -0.0000000000

Difference to rotation invariance:
           :   -0.0000006525   -0.0000014499   -0.0004237118

Norm of the Cartesian gradient     ...    0.0279353405
RMS gradient                       ...    0.0044732345
MAX gradient                       ...    0.0173373538

-------
TIMINGS
-------

Total SCF gradient time     ....        6.879 sec

Densities                   ....       0.000 sec  (  0.0%)
One electron gradient       ....       0.167 sec  (  2.4%)
RI-J Coulomb gradient       ....       1.169 sec  ( 17.0%)
XC gradient                 ....       4.464 sec  ( 64.9%)
CPCM gradient               ....       0.555 sec  (  8.1%)
   A-Matrix (El+Nuc)        ....       0.046 sec  (  0.7%)
   Potential                ....       0.509 sec  (  7.4%)
SMD gradient                ....       0.011 sec  (  0.2%)

Maximum memory used throughout the entire SCFGRAD-calculation: 33.0 MB

------------------------------------------------------------------------------
                              ORCA PROPERTY CALCULATIONS
------------------------------------------------------------------------------

GBWName                                 ... xtb_opt.gbw
Number of atoms                         ...     13
Number of basis functions               ...    187
Max core memory                         ...   1024 MB

Electric properties:
Dipole moment                           ... YES
Quadrupole moment                       ...  NO
Static polarizability (Dipole/Dipole)   ...  NO
Static polarizability (Dipole/Quad.)    ...  NO
Static polarizability (Quad./Quad.)     ...  NO
Static polarizability (Velocity)        ...  NO

Atomic electric properties:
Dipole moment                           ...  NO
Quadrupole moment                       ...  NO
Static polarizability                   ...  NO

Choice of electric origin               ... Center of mass
Position of electric origin             ...    -0.000004    -0.000001     0.000000

General magnetic properties:
Magnetizability                         ...  NO

EPR properties:
g-Tensor (aka g-matrix)                 ...  NO
Zero-Field splitting spin-orbit         ...  NO
Zero-field splitting spin-spin          ...  NO
Hyperfine couplings                     ...  NO (   0 nuclei)
Quadrupole couplings                    ...  NO (   0 nuclei)
Contact density                         ...  NO (   0 nuclei)

NMR properties:
Chemical shifts                         ...  NO (   0 nuclei)
Spin-rotation constants                 ...  NO (   0 nuclei)
Spin-spin couplings                     ...  NO (   0 nuclei,    0 pairs)

Choice of magnetic origin               ... GIAO
Position of magnetic origin             ...     0.000000     0.000000     0.000000

Properties with geometric perturbations:
SCF Hessian                             ...  NO
IR spectrum                             ...  NO
VCD spectrum                            ...  NO
X-ray spectroscopy properties:
SCF XES/XAS/RIXS spectra                ...  NO


-------------
DIPOLE MOMENT
-------------

Method             : SCF
Type of density    : Electron Density
Multiplicity       :   1
Irrep              :   0
Energy             :  -406.6509002269912685 Eh
Relativity type    : 
Basis              : AO
                                X                 Y                 Z
Electronic contribution:      4.687314427       0.028809630       0.000581652
Nuclear contribution   :     -5.630910493      -0.791532241      -0.001375821
                        -----------------------------------------
Total Dipole Moment    :     -0.943596065      -0.762722612      -0.000794170
                        -----------------------------------------
Magnitude (a.u.)       :      1.213309502
Magnitude (Debye)      :      3.083987666



--------------------
Rotational spectrum 
--------------------
 
Rotational constants in cm-1:             0.189202             0.048721             0.038744 
Rotational constants in MHz :          5672.119251          1460.613017          1161.514410 

Dipole components along the rotational axes: 
x,y,z [a.u.] :    -0.943597     0.762722    -0.000794 
x,y,z [Debye]:    -2.398432     1.938685    -0.002019 

 

Dipole moment calculation done in   0.0 sec 

Maximum memory used throughout the entire PROP-calculation: 11.4 MB

--------------------------------
SUGGESTED CITATIONS FOR THIS RUN
--------------------------------

Below you find a list of papers that are relevant to this ORCA run
We neither can nor want to force you to cite these papers, but we appreciate if you do
You receive ORCA, which is the product of decades of hard work by many enthusiastic individuals, for free
The only thing we kindly ask in return is that you cite our papers,
We deeply appreciate it, if you show your appreciation for ORCA by not just citing the generic ORCA reference.

Please note that relegating all ORCA citations to the supporting information does *not* help us.
SI sections are not indexed - citations you put there will not count into any citation statistics
But we need these citations in order to attract the funding resources that allow us to do what we are doing

Therefore, if you are a happy ORCA user, please consider citing a few of the papers listed below in the main body of your paper

In addition to the list printed below, the program has created the file xtb_opt.bibtex that contains the list in bibtex format
You can import this file easily into all common literature databanks and citation aid programs


List of essential papers. We consider these as the minimum necessary citations

  1. Neese,F.
     Software update: the ORCA program system, version 5.0
     WIRES Comput. Molec. Sci., 2022 12(1)e1606
     doi.org/10.1002/wcms.1606
  2. Grimme,S.; Hansen,A.; Ehlert,S.; Mewes,J.
     r2SCAN-3c: A 'Swiss army knife' composite electronic-structure method
     J. Chem. Phys., 2021 154 064103
     doi.org/10.1063/5.0040021

List of papers to cite with high priority. The work reported in these papers was absolutely
necessary for this run to complete.
Our perspective: the developers of density functionals and basis sets usually get cited in chemistry papers
Good! But without the algorithms to do something with them, the functionals or basis sets would not do anything.
Hence, in our opinion, the algorithm design and method developments papers are equally worthy of getting cited

  1. Neese,F.
     An improvement of the resolution of the identity approximation for the formation of the Coulomb matrix
     J. Comp. Chem., 2003 24(14)1740-1747
     doi.org/10.1002/jcc.10318
  2. Garcia-Rates,M.; Neese,F.
     Effect of the Solute Cavity on the Solvation Energy and its Derivatives within the Framework of the Gaussian Charge Scheme
     J. Comput. Chem., 2020 41 922-939
     doi.org/10.1002/jcc.26139
  3. Neese,F.
     The SHARK Integral Generation and Digestion System
     J. Comp. Chem., 2022  1-16
     doi.org/10.1002/jcc.26942
  4. Lehtola,S.; Steigemann,C.; Oliveira,M.; Marques,M.
     Recent developments in Libxc - A comprehensive library of functionals for density functional theory
     Software X, 2018 7 
     doi.org/10.1016/j.softx.2017.11.002
  5. Caldeweyher,E.; Bannwarth,C.; Grimme,S.
     Extension of the D3 dispersion coefficient model
     J. Chem. Phys., 2017 147 034112-XXXX
     doi.org/10.1063/1.4993215
  6. Caldeweyher,E.; Ehlert,S.; Hansen,A.; Neugebauer,H.; Spicher,S.; Bannwarth,C.; Grimme,S.
     A generally applicable atomic-charge dependent London dispersion correction
     J. Chem. Phys., 2019 150 154122-XXXX
     doi.org/10.1063/1.5090222
  7. Caldeweyher,E.; Mewes,J.; Ehlert,S.; Grimme,S.
     Extension and evaluation of the D4 London-dispersion model for periodic systems
     Phys. Chem. Chem. Phys., 2020 22(16)8499-8512
     doi.org/10.1039/D0CP00502A

List of suggested additional citations. These are papers that are important in the 'surrounding' of 
of this run, or papers that preceded the highly important papers. If you like your results we are grateful for a citation.

  1. Neese,F.
     The ORCA program system
     WIRES Comput. Molec. Sci., 2012 2(1)73-78
     doi.org/10.1002/wcms.81
  2. Neese,F.
     Software update: the ORCA program system, version 4.0
     WIRES Comput. Molec. Sci., 2018 8(1)1-6
     doi.org/10.1002/wcms.1327
  3. Neese,F.; Wennmohs,F.; Becker,U.; Riplinger,C.
     The ORCA quantum chemistry program package
     J. Chem. Phys., 2020 152 Art. No. L224108
     doi.org/10.1063/5.0004608

List of optional additional citations

  1. Neese,F.
     Approximate second-order SCF convergence for spin unrestricted wavefunctions
     Chem. Phys. Lett., 2000 325(1-3)93-98
     doi.org/10.1016/s0009-2614(00)00662-x

Timings for individual modules:

Sum of individual times          ...       13.532 sec (=   0.226 min)
Startup calculation              ...        0.963 sec (=   0.016 min)   7.1 %
SCF iterations                   ...        5.490 sec (=   0.091 min)  40.6 %
Property calculations            ...        0.105 sec (=   0.002 min)   0.8 %
SCF Gradient evaluation          ...        6.974 sec (=   0.116 min)  51.5 %
                             ****ORCA TERMINATED NORMALLY****
TOTAL RUN TIME: 0 days 0 hours 0 minutes 14 seconds 180 msec
  ------------------------------------------------------------------------
          * successful ORCA run, taking over control again...

         :::::::::::::::::::::::::::::::::::::::::::::::::::::
         ::                  ORCA SUMMARY                   ::
         :::::::::::::::::::::::::::::::::::::::::::::::::::::
         :: total energy            -406.650581748268 Eh    ::
         :: gradient norm              0.027935340478 Eh/a0 ::
         :: HOMO-LUMO gap              0.000000000000 eV    ::
         :::::::::::::::::::::::::::::::::::::::::::::::::::::

      ----------------------------------------------------------- 
     |                       L-ANC optimizer                     |
      ----------------------------------------------------------- 
          low memory version by Sebastian Ehlert

          ...................................................
          :                      SETUP                      :
          :.................................................:
          :   energy convergence        0.5000000E-05 Eh    :
          :   grad. convergence         0.1000000E-02 Eh/a0 :
          :   optimization log               true           :
          :   writing optlog all                1     steps :
          :   Hessian reset                    20     steps :
          :   maximium step len.        1.0000000     a0    :
          :   LBFGS images                     20           :
          ...................................................
 * calculating model hessian...
Using Lindh-Hessian (1995)
 Shifting diagonal of input Hessian by   1.000000000000000E-002
 Lowest  eigenvalues of input Hessian
    0.000000    0.000000    0.000000    0.000000    0.000000    0.000000
    0.018575    0.026072    0.032951    0.035794    0.049826    0.056624
    0.085285    0.097902    0.102338    0.107854    0.110706    0.116332
 Highest eigenvalues
    1.518141    1.667915    1.860482    1.926015    2.059916    2.155804
 

........................................................................
.............................. CYCLE    1 ..............................
........................................................................
                         * ORCA takes the control...
  ------------------------------------------------------------------------

                                 *****************
                                 * O   R   C   A *
                                 *****************

                                            #,                                       
                                            ###                                      
                                            ####                                     
                                            #####                                    
                                            ######                                   
                                           ########,                                 
                                     ,,################,,,,,                         
                               ,,#################################,,                 
                          ,,##########################################,,             
                       ,#########################################, ''#####,          
                    ,#############################################,,   '####,        
                  ,##################################################,,,,####,       
                ,###########''''           ''''###############################       
              ,#####''   ,,,,##########,,,,          '''####'''          '####       
            ,##' ,,,,###########################,,,                        '##       
           ' ,,###''''                  '''############,,,                           
         ,,##''                                '''############,,,,        ,,,,,,###''
      ,#''                                            '''#######################'''  
     '                                                          ''''####''''         
             ,#######,   #######,   ,#######,      ##                                
            ,#'     '#,  ##    ##  ,#'     '#,    #''#        ,####,   ,####,        
            ##       ##  ##   ,#'  ##            #'  '#       #'       #'  '#        
            ##       ##  #######   ##           ,######,      #####,   #    #        
            '#,     ,#'  ##    ##  '#,     ,#' ,#      #,     #,   #   #,  ,#        
             '#######'   ##     ##  '#######'  #'      '#     '####' # '####'        



                #########################################################
                #                        -***-                          #
                #          Department of theory and spectroscopy        #
                #                                                       #
                #                      Frank Neese                      #
                #                                                       #
                #     Directorship, Architecture, Infrastructure        #
                #                    SHARK, DRIVERS                     #
                #        Core code/Algorithms in most modules           #
                #                                                       #
                #        Max Planck Institute fuer Kohlenforschung      #
                #                Kaiser Wilhelm Platz 1                 #
                #                 D-45470 Muelheim/Ruhr                 #
                #                      Germany                          #
                #                                                       #
                #                  All rights reserved                  #
                #                        -***-                          #
                #########################################################


                         Program Version 6.0.0  -   RELEASE  -


 With contributions from (in alphabetic order):
   Daniel Aravena         : Magnetic Suceptibility
   Michael Atanasov       : Ab Initio Ligand Field Theory (pilot matlab implementation)
   Alexander A. Auer      : GIAO ZORA, VPT2 properties, NMR spectrum
   Ute Becker             : All parallelization in ORCA, NUMFREQ, NUMCALC
   Giovanni Bistoni       : ED, misc. LED, open-shell LED, HFLD
   Martin Brehm           : Molecular dynamics
   Dmytro Bykov           : pre 5.0 version of the SCF Hessian
   Marcos Casanova-Páez   : Triplet and SCS-CIS(D). UHF-(DLPNO)-IP/EA/STEOM-CCSD. UHF-CVS-IP/STEOM-CCSD
   Vijay G. Chilkuri      : MRCI spin determinant printing, contributions to CSF-ICE
   Pauline Colinet        : FMM embedding
   Dipayan Datta          : RHF DLPNO-CCSD density
   Achintya Kumar Dutta   : EOM-CC, STEOM-CC
   Nicolas Foglia         : Exact transition moments, OPA infrastructure, MCD improvements
   Dmitry Ganyushin       : Spin-Orbit,Spin-Spin,Magnetic field MRCI
   Miquel Garcia          : C-PCM and meta-GGA Hessian, CCSD/C-PCM, Gaussian charge scheme
   Tiago L. C. Gouveia    : GS-ROHF, GS-ROCIS
   Yang Guo               : DLPNO-NEVPT2, F12-NEVPT2, CIM, IAO-localization
   Andreas Hansen         : Spin unrestricted coupled pair/coupled cluster methods
   Ingolf Harden          : AUTO-CI MPn and infrastructure 
   Benjamin Helmich-Paris : MC-RPA, TRAH-(SCF,CASSCF), AVAS, COSX integrals, SCF dyn. polar.
   Lee Huntington         : MR-EOM, pCC
   Robert Izsak           : Overlap fitted RIJCOSX, COSX-SCS-MP3, EOM
   Riya Kayal             : Wick's Theorem for AUTO-CI, AUTO-CI UHF-CCSDT
   Emily Kempfer          : AUTO-CI, RHF CISDT and CCSDT
   Christian Kollmar      : KDIIS, OOCD, Brueckner-CCSD(T), CCSD density, CASPT2, CASPT2-K, improved NEVPT2
   Axel Koslowski         : Symmetry handling
   Simone Kossmann        : Meta GGA functionals, TD-DFT gradient, OOMP2, (MP2 Hessian; deprecated post 5.0)
   Lucas Lang             : DCDCAS
   Marvin Lechner         : AUTO-CI (C++ implementation), FIC-MRCC
   Spencer Leger          : CASSCF response
   Dagmar Lenk            : GEPOL surface, SMD, ORCA-2-JSON
   Dimitrios Liakos       : Extrapolation schemes; Compound Job, initial MDCI parallelization
   Dimitrios Manganas     : Further ROCIS development; embedding schemes. LFT, Crystal Embedding
   Dimitrios Pantazis     : SARC Basis sets
   Anastasios Papadopoulos: AUTO-CI, single reference methods and gradients
   Taras Petrenko         : pre 6.0 DFT Hessian and TD-DFT gradient, (ASA, deprecated), ECA, 1-Electron XAS/XES, NRVS
   Peter Pinski           : DLPNO-MP2, DLPNO-MP2 Gradient
   Christoph Reimann      : Effective Core Potentials
   Marius Retegan         : Local ZFS, SOC
   Christoph Riplinger    : Optimizer, TS searches, QM/MM, DLPNO-CCSD(T), (RO)-DLPNO pert. Triples
   Michael Roemelt        : Original ROCIS implementation
   Masaaki Saitow         : Open-shell DLPNO-CCSD energy and density
   Barbara Sandhoefer     : DKH picture change effects
   Kantharuban Sivalingam : CASSCF convergence/infrastructure, NEVPT2 and variants, FIC-MRCI
   Bernardo de Souza      : ESD, SOC TD-DFT
   Georgi Stoychev        : AutoAux, RI-MP2 NMR, DLPNO-MP2 response, X2C
   Van Anh Tran           : RI-MP2 g-tensors
   Willem Van den Heuvel  : Paramagnetic NMR
   Zikuan Wang            : NOTCH, Electric field optimization 
   Frank Wennmohs         : Technical directorship and infrastructure
   Hang Xu                : AUTO-CI-Response properties 


 We gratefully acknowledge several colleagues who have allowed us to
 interface, adapt or use parts of their codes:
   Stefan Grimme, W. Hujo, H. Kruse, P. Pracht,  : VdW corrections, initial TS optimization,
                  C. Bannwarth, S. Ehlert,         DFT functionals, gCP, sTDA/sTD-DF
                  L. Wittmann, M. Mueller
   Ed Valeev, F. Pavosevic, A. Kumar             : LibInt (2-el integral package), F12 methods
   Garnet Chan, S. Sharma, J. Yang, R. Olivares  : DMRG
   Ulf Ekstrom                                   : XCFun DFT Library
   Mihaly Kallay                                 : mrcc  (arbitrary order and MRCC methods)
   Frank Weinhold                                : gennbo (NPA and NBO analysis)
   Simon Mueller                                 : openCOSMO-RS
   Christopher J. Cramer and Donald G. Truhlar   : smd solvation model
   Lars Goerigk                                  : TD-DFT with DH, B97 family of functionals
   V. Asgeirsson, H. Jonsson                     : NEB implementation
   FAccTs GmbH                                   : IRC, NEB, NEB-TS, DLPNO-Multilevel, CI-OPT
                                                   MM, QMMM, 2- and 3-layer-ONIOM, Crystal-QMMM,
                                                   LR-CPCM, SF, NACMEs, symmetry and pop. for TD-DFT,
                                                   nearIR, NL-DFT gradient (VV10), updates on ESD,
                                                   ML-optimized integration grids, MBIS, APM,
                                                   GOAT, DOCKER, SOLVATOR, interface openCOSMO-RS
   S Lehtola, MJT Oliveira, MAL Marques          : LibXC Library
   Liviu Ungur et al                             : ANISO software


 Your calculation uses the libint2 library for the computation of 2-el integrals
 For citations please refer to: http://libint.valeyev.net

 Your ORCA version has been built with support for libXC version: 6.2.2
 For citations please refer to: https://libxc.gitlab.io

 This ORCA versions uses:
   CBLAS   interface :  Fast vector & matrix operations
   LAPACKE interface :  Fast linear algebra routines
   SCALAPACK package :  Parallel linear algebra routines
   Shared memory     :  Shared parallel matrices
   BLAS/LAPACK       :  OpenBLAS 0.3.27  USE64BITINT DYNAMIC_ARCH NO_AFFINITY SkylakeX SINGLE_THREADED
        Core in use  :  SkylakeX
   Copyright (c) 2011-2014, The OpenBLAS Project




***************************************
The coordinates will be read from file: xtb_opt.xyz
***************************************


Your calculation utilizes the geometrical counterpoise correction gCP
Please cite in your paper:
H.Kruse, S. Grimme J.Chem.Phys., 136, (2012), 154101 
   

Your calculation utilizes the atom-pairwise dispersion correction
based on EEQ partial charges (D4)


Your calculation utilizes the SMD solvation module
Please cite in your paper:
A.V. Marenich, C.J. Cramer, D.G. Truhlar J. Phys. Chem. B, 113, (2009), 6378 

================================================================================

----- Orbital basis set information -----
Your calculation utilizes the basis: def2-mTZVPP
   Stefan Grimme, Andreas Hansen, Sebastian Ehlert, and Jan-Michael Mewes 
   J. Chem. Phys. 154, 064103 (2021). DOI: 10.1063/5.0040021

----- AuxJ basis set information -----
Your calculation utilizes the auxiliary basis: def2/J
   F. Weigend, Phys. Chem. Chem. Phys. 8, 1057 (2006).

================================================================================
                                        WARNINGS
                       Please study these warnings very carefully!
================================================================================

WARNING: Old DensityContainer found on disk!
         Will remove this file - 
         If you want to keep old densities, please start your calculation with a different basename. 

Using LibXC functional ID 497 : Re-regularized SCAN exchange by Furness et al
[ 1]  J. W. Furness, A. D. Kaplan, J. Ning, J. P. Perdew, and J. Sun.,  J. Phys. Chem. Lett. 11, 8208-8215 (2020)
[ 2]  J. W. Furness, A. D. Kaplan, J. Ning, J. P. Perdew, and J. Sun.,  J. Phys. Chem. Lett. 11, 9248-9248 (2020)
Using LibXC functional ID 498 : Re-regularized SCAN correlation by Furness et al
[ 1]  J. W. Furness, A. D. Kaplan, J. Ning, J. P. Perdew, and J. Sun.,  J. Phys. Chem. Lett. 11, 8208-8215 (2020)
[ 2]  J. W. Furness, A. D. Kaplan, J. Ning, J. P. Perdew, and J. Sun.,  J. Phys. Chem. Lett. 11, 9248-9248 (2020)
Using LibXC functional ID 497 : Re-regularized SCAN exchange by Furness et al
[ 1]  J. W. Furness, A. D. Kaplan, J. Ning, J. P. Perdew, and J. Sun.,  J. Phys. Chem. Lett. 11, 8208-8215 (2020)
[ 2]  J. W. Furness, A. D. Kaplan, J. Ning, J. P. Perdew, and J. Sun.,  J. Phys. Chem. Lett. 11, 9248-9248 (2020)
Using LibXC functional ID 498 : Re-regularized SCAN correlation by Furness et al
[ 1]  J. W. Furness, A. D. Kaplan, J. Ning, J. P. Perdew, and J. Sun.,  J. Phys. Chem. Lett. 11, 8208-8215 (2020)
[ 2]  J. W. Furness, A. D. Kaplan, J. Ning, J. P. Perdew, and J. Sun.,  J. Phys. Chem. Lett. 11, 9248-9248 (2020)

================================================================================
                                       INPUT FILE
================================================================================
NAME = xtb_opt.inp
|  1> ! r2scan-3c def2/J RI DEFGRID2 scfconv7 ENGRAD tightSCF miniprint
|  2> %cpcm
|  3>     smd true
|  4>     smdsolvent "water"
|  5> end
|  6> * xyzfile 0 1 xtb_opt.xyz
|  7> 
|  8>                          ****END OF INPUT****
================================================================================

                     *******************************
                     * Energy+Gradient Calculation *
                     *******************************

---------------------------------
CARTESIAN COORDINATES (ANGSTROEM)
---------------------------------
  C     -0.733470   -1.209439    0.000046
  C      0.656739   -1.212849    0.000051
  C      1.322038   -0.001348   -0.000030
  C      0.655953    1.211707   -0.000146
  C     -0.731875    1.208458   -0.000116
  C     -1.430304   -0.000817   -0.000055
  O     -2.793396    0.058140   -0.000130
  F      2.689187   -0.001143   -0.000066
  H     -1.274951   -2.149512    0.000085
  H      1.214759   -2.141293    0.000061
  H      1.214863    2.139641   -0.000364
  H     -1.287563    2.138812   -0.000274
  H     -3.167825   -0.833877   -0.000377

----------------------------
CARTESIAN COORDINATES (A.U.)
----------------------------
  NO LB      ZA    FRAG     MASS         X           Y           Z
   0 C     6.0000    0    12.011   -1.386058   -2.285508    0.000087
   1 C     6.0000    0    12.011    1.241057   -2.291952    0.000097
   2 C     6.0000    0    12.011    2.498290   -0.002548   -0.000056
   3 C     6.0000    0    12.011    1.239572    2.289795   -0.000275
   4 C     6.0000    0    12.011   -1.383043    2.283654   -0.000220
   5 C     6.0000    0    12.011   -2.702884   -0.001543   -0.000104
   6 O     8.0000    0    15.999   -5.278753    0.109869   -0.000245
   7 F     9.0000    0    18.998    5.081826   -0.002159   -0.000124
   8 H     1.0000    0     1.008   -2.409308   -4.061990    0.000161
   9 H     1.0000    0     1.008    2.295562   -4.046458    0.000115
  10 H     1.0000    0     1.008    2.295758    4.043335   -0.000688
  11 H     1.0000    0     1.008   -2.433141    4.041770   -0.000517
  12 H     1.0000    0     1.008   -5.986321   -1.575799   -0.000713

------------------------------------------------------------------------------
                   ___                                                        
                  /   \      - P O W E R E D   B Y -                         
                 /     \                                                     
                 |  |  |   _    _      __       _____    __    __             
                 |  |  |  | |  | |    /  \     |  _  \  |  |  /  |          
                  \  \/   | |  | |   /    \    | | | |  |  | /  /          
                 / \  \   | |__| |  /  /\  \   | |_| |  |  |/  /          
                |  |  |   |  __  | /  /__\  \  |    /   |      \           
                |  |  |   | |  | | |   __   |  |    \   |  |\   \          
                \     /   | |  | | |  |  |  |  | |\  \  |  | \   \       
                 \___/    |_|  |_| |__|  |__|  |_| \__\ |__|  \__/        
                                                                              
                      - O R C A' S   B I G   F R I E N D -                    
                                      &                                       
                       - I N T E G R A L  F E E D E R -                       
                                                                              
 v1 FN, 2020, v2 2021, v3 2022-2024                                           
------------------------------------------------------------------------------


----------------------
SHARK INTEGRAL PACKAGE
----------------------

Number of atoms                             ...     13
Number of basis functions                   ...    187
Number of shells                            ...     89
Maximum angular momentum                    ...      2
Integral batch strategy                     ... SHARK/LIBINT Hybrid
RI-J (if used) integral strategy            ... SPLIT-RIJ (Revised 2003 algorithm where possible)
Printlevel                                  ...      1
Contraction scheme used                     ... SEGMENTED contraction
Prescreening option                         ... SCHWARTZ
   Thresh                                   ... 3.000e-11
   Tcut                                     ... 1.000e-12
   Tpresel                                  ... 1.000e-12 
Coulomb Range Separation                    ... NOT USED
Exchange Range Separation                   ... NOT USED
Multipole approximations                    ... NOT USED
Finite Nucleus Model                        ... NOT USED
CABS basis                                  ... NOT available
Auxiliary Coulomb fitting basis             ... AVAILABLE
   # of basis functions in Aux-J            ...    447
   # of shells in Aux-J                     ...    145
   Maximum angular momentum in Aux-J        ...      4
Auxiliary J/K fitting basis                 ... NOT available
Auxiliary Correlation fitting basis         ... NOT available
Auxiliary 'external' fitting basis          ... NOT available

Checking pre-screening integrals            ... done (  0.0 sec) Dimension = 89
Check shell pair data                       ... done (  0.0 sec)
Shell pair information
Shell pair cut-off parameter TPreSel        ...   1.0e-12
Total number of shell pairs                 ...      4005
Shell pairs after pre-screening             ...      3666
Total number of primitive shell pairs       ...     14897
Primitive shell pairs kept                  ...      9857
          la=0 lb=0:   1113 shell pairs
          la=1 lb=0:   1343 shell pairs
          la=1 lb=1:    416 shell pairs
          la=2 lb=0:    460 shell pairs
          la=2 lb=1:    280 shell pairs
          la=2 lb=2:     54 shell pairs

Calculating one electron integrals          ... done (  0.0 sec)
Calculating RI/J V-Matrix + Cholesky decomp.... done (  0.2 sec)
Calculating Nuclear repulsion               ... done (  0.0 sec) ENN=    342.988524220926 Eh

Diagonalization of the overlap matrix:
Smallest eigenvalue                        ... 3.346e-05
Time for diagonalization                   ...    0.003 sec
Threshold for overlap eigenvalues          ... 1.000e-07
Number of eigenvalues below threshold      ... 0
Time for construction of square roots      ...    0.012 sec
Total time needed                          ...    0.022 sec

-------------------
DFT GRID GENERATION
-------------------

General Integration Accuracy     IntAcc      ... 4.388
Radial Grid Type                 RadialGrid  ... OptM3 with GC (2021)
Angular Grid (max. ang.)         AngularGrid ... 4 (Lebedev-302)
Angular grid pruning method      GridPruning ... 4 (adaptive)
Weight generation scheme         WeightScheme... mBecke (2022)
Basis function cutoff            BFCut       ... 1.0000e-11
Integration weight cutoff        WCut        ... 1.0000e-14
Partially contracted basis set               ... off
Rotationally invariant grid construction     ... off
Angular grids for H and He will be reduced by one unit
Diffuse basis detected: some atoms will have their outermost
                        angular grid increased by 1.

Total number of grid points                  ...    64698
Total number of batches                      ...     1017
Average number of points per batch           ...       63
Average number of grid points per atom       ...     4977
Initializing property integral containers    ... done (  0.0 sec)

SHARK setup successfully completed in   1.1 seconds

Maximum memory used throughout the entire STARTUP-calculation: 29.9 MB
Occupation numbers will be reassigned to an Aufbau configuration
             **** ENERGY FILE WAS UPDATED (xtb_opt.en.tmp) ****
Finished Guess after   0.2 sec
Maximum memory used throughout the entire GUESS-calculation: 12.9 MB
--------------------
CPCM SOLVATION MODEL
--------------------
CPCM parameters:
  Epsilon                                         ...      78.3550
  Refrac                                          ...       1.3328
  Rsolv                                           ...       1.3000
  Surface type                                    ... GAUSSIAN VDW
  Discretization scheme                           ... Constant charge density
    Threshold for H atoms                         ...       5.0000 (charges/Ang^2)
    Threshold for non-H atoms                     ...       5.0000 (charges/Ang^2)
  Epsilon function type                           ...         CPCM
Solvent:                                          ... WATER
SMD-CDS solvent descriptors:
  Soln                                            ...       1.3328
  Soln25                                          ...       1.3323
  Sola                                            ...       0.0000
  Solb                                            ...       0.0000
  Solg                                            ...       0.0000
  Solc                                            ...       0.0000
  Solh                                            ...       0.0000
Radii:
  Scheme                                          ... Element-dependent radii
  Radius for C  used is    3.4960 Bohr (=   1.8500 Ang.)
  Radius for O  used is    2.8724 Bohr (=   1.5200 Ang.)
  Radius for F  used is    3.2692 Bohr (=   1.7300 Ang.)
  Radius for H  used is    2.2677 Bohr (=   1.2000 Ang.)
Calculating surface                               ...        done! (  0.0s)
Cavity surface points                             ...         1093
Cavity Volume                                     ...     742.6038
Cavity Surface-area                               ...     471.3095
Calculating surface distance matrix               ...        done! (  0.0s)
Performing Cholesky decomposition & store         ...        done! (  0.1s)
Overall time for CPCM initialization              ...                 0.1s

----------------------------------------D-I-I-S--------------------------------------------
Iteration    Energy (Eh)           Delta-E    RMSDP     MaxDP     DIISErr   Damp  Time(sec)
-------------------------------------------------------------------------------------------
               ***  Starting incremental Fock matrix formation  ***
    1    -406.6577570476898700     0.00e+00  7.46e-05  1.93e-03  4.34e-03  0.700   2.4
                              *** Initializing SOSCF ***
---------------------------------------S-O-S-C-F--------------------------------------
Iteration    Energy (Eh)           Delta-E    RMSDP     MaxDP     MaxGrad    Time(sec)
--------------------------------------------------------------------------------------
    2    -406.6577986232099420    -4.16e-05  2.11e-04  6.01e-03  3.18e-03     2.1
               *** Restarting incremental Fock matrix formation ***
    3    -406.6578871293571638    -8.85e-05  6.01e-05  1.01e-03  3.83e-04     2.4
    4    -406.6578848689927099     2.26e-06  2.93e-05  6.27e-04  5.24e-04     2.1
    5    -406.6578917489404148    -6.88e-06  1.95e-05  5.31e-04  1.07e-04     2.1
    6    -406.6578916582282091     9.07e-08  1.05e-05  2.89e-04  1.24e-04     2.0
                 **** Energy Check signals convergence ****

               *****************************************************
               *                     SUCCESS                       *
               *           SCF CONVERGED AFTER   6 CYCLES          *
               *****************************************************


SMD CDS free energy correction energy :                 3.98909     Kcal/mol
Total Energy after SMD CDS correction =              -406.651534647 Eh
             **** ENERGY FILE WAS UPDATED (xtb_opt.en.tmp) ****

----------------
TOTAL SCF ENERGY
----------------

Total Energy       :       -406.65153464708879 Eh          -11065.55082 eV

Components:
Nuclear Repulsion  :        342.98852422092602 Eh            9333.19223 eV
Electronic Energy  :       -749.62807485475128 Eh          -20398.41695 eV
One Electron Energy:      -1234.91772188012760 Eh          -33603.81960 eV
Two Electron Energy:        485.28964702537627 Eh           13205.40265 eV
CPCM Dielectric    :         -0.01834102440293 Eh              -0.49908 eV
SMD CDS (Gcds)     :          0.00635701113940 Eh               0.17298 eV

Virial components:
Potential Energy   :       -811.67855655810149 Eh          -22086.89640 eV
Kinetic Energy     :        405.02702191101264 Eh           11021.34558 eV
Virial Ratio       :          2.00401087494956

DFT components:
N(Alpha)           :       29.000017633659 electrons
N(Beta)            :       29.000017633659 electrons
N(Total)           :       58.000035267319 electrons
E(X)               :      -51.423528573265 Eh       
E(C)               :       -1.914608766318 Eh       
E(XC)              :      -53.338137339583 Eh       

CPCM Solvation Model Properties:
Surface-charge          :         -0.03375091251263
Corrected charge        :          0.00000000000000
Outlying charge corr.   :          0.00009424749601 Eh               0.00256 eV
Free-energy (cav+disp)  :          0.00635701113940 Eh               0.17298 eV

---------------
SCF CONVERGENCE
---------------

  Last Energy change         ...   -9.0712e-08  Tolerance :   1.0000e-07
  Last MAX-Density change    ...    2.8909e-04  Tolerance :   1.0000e-07
  Last RMS-Density change    ...    1.0459e-05  Tolerance :   5.0000e-09
  Last DIIS Error            ...    3.1810e-03  Tolerance :   1.0000e-07
  Last Orbital Gradient      ...    1.2356e-04  Tolerance :   1.0000e-04
  Last Orbital Rotation      ...    6.6146e-05  Tolerance :   1.0000e-04


----------------
ORBITAL ENERGIES
----------------

  NO   OCC          E(Eh)            E(eV) 
   0   2.0000     -24.496348      -666.5795 
   1   2.0000     -18.984023      -516.5815 
   2   2.0000     -10.114867      -275.2395 
   3   2.0000     -10.101531      -274.8766 
   4   2.0000     -10.045527      -273.3527 
   5   2.0000     -10.045502      -273.3520 
   6   2.0000     -10.042922      -273.2818 
   7   2.0000     -10.041490      -273.2428 
   8   2.0000      -1.179653       -32.1000 
   9   2.0000      -1.027124       -27.9495 
  10   2.0000      -0.830686       -22.6041 
  11   2.0000      -0.729957       -19.8631 
  12   2.0000      -0.710757       -19.3407 
  13   2.0000      -0.604955       -16.4617 
  14   2.0000      -0.582557       -15.8522 
  15   2.0000      -0.519932       -14.1481 
  16   2.0000      -0.507329       -13.8051 
  17   2.0000      -0.465122       -12.6566 
  18   2.0000      -0.427486       -11.6325 
  19   2.0000      -0.417374       -11.3573 
  20   2.0000      -0.401084       -10.9140 
  21   2.0000      -0.395511       -10.7624 
  22   2.0000      -0.382596       -10.4110 
  23   2.0000      -0.372439       -10.1346 
  24   2.0000      -0.340703        -9.2710 
  25   2.0000      -0.312149        -8.4940 
  26   2.0000      -0.308590        -8.3972 
  27   2.0000      -0.249170        -6.7803 
  28   2.0000      -0.205354        -5.5880 
  29   0.0000      -0.044681        -1.2158 
  30   0.0000      -0.016375        -0.4456 
  31   0.0000       0.069073         1.8796 
  32   0.0000       0.080821         2.1993 
  33   0.0000       0.107613         2.9283 
  34   0.0000       0.123633         3.3642 
  35   0.0000       0.129900         3.5348 
  36   0.0000       0.150018         4.0822 
  37   0.0000       0.158619         4.3162 
  38   0.0000       0.172820         4.7027 
  39   0.0000       0.185704         5.0533 
*Only the first 10 virtual orbitals were printed.
Total SCF time: 0 days 0 hours 0 min 13 sec 
Finished LeanSCF after  13.7 sec

Maximum memory used throughout the entire LEANSCF-calculation: 20.2 MB


-------------------------------------------------------------------------------
                          DFT DISPERSION CORRECTION                            
                                                                               
                                DFTD4 V3.4.0                                   
-------------------------------------------------------------------------------
-------------------------   ----------------
Dispersion correction           -0.003864782
-------------------------   ----------------

------------------   -----------------
gCP correction             0.004159749
------------------   -----------------

-------------------------   --------------------
FINAL SINGLE POINT ENERGY      -406.651239679612
-------------------------   --------------------

------------------------------------------------------------------------------
                         ORCA SCF GRADIENT CALCULATION
------------------------------------------------------------------------------

Nuc. rep. gradient        (SHARK) ... done (  0.0 sec)
HCore & Overlap gradient  (SHARK) ... done (  0.2 sec)
Split-RIJ-J gradient      (SHARK) ... done (  1.2 sec)
XC gradient                       ... done (  4.7 sec)
CPCM gradient                     ... done (  0.6 sec)
SMD gradient                      ... done (  0.0 sec)
Dispersion correction             ... done (  0.0 sec)

-------------------
DISPERSION GRADIENT
-------------------

   1   C   :   -0.000023718   -0.000047419    0.000000005
   2   C   :    0.000039319   -0.000047975    0.000000006
   3   C   :    0.000057913    0.000000976    0.000000002
   4   C   :    0.000036876    0.000050178   -0.000000003
   5   C   :   -0.000020462    0.000050459   -0.000000002
   6   C   :   -0.000047933    0.000000820    0.000000001
   7   O   :   -0.000085023   -0.000014727   -0.000000007
   8   F   :    0.000064149    0.000000043   -0.000000000
   9   H   :   -0.000016024   -0.000033089    0.000000003
  10   H   :    0.000022331   -0.000031876    0.000000002
  11   H   :    0.000021262    0.000031905   -0.000000004
  12   H   :   -0.000017057    0.000034039   -0.000000003
  13   H   :   -0.000031632    0.000006665    0.000000001

Difference to translation invariance:
           :   -0.0000000000   -0.0000000000    0.0000000000

Difference to rotation invariance:
           :   -0.0000000000    0.0000000000    0.0000000000

Norm of the Dispersion gradient    ...    0.0001937682
RMS gradient                       ...    0.0000310278
MAX gradient                       ...    0.0000850225
gCP correction                   ... done

------------------
CARTESIAN GRADIENT
------------------

   1   C   :    0.001400103    0.000735039    0.000000848
   2   C   :   -0.001748914   -0.000560781    0.000000653
   3   C   :   -0.001682948   -0.000184855    0.000002450
   4   C   :   -0.002047525    0.000424651    0.000001423
   5   C   :    0.003409731    0.000410479    0.000007015
   6   C   :   -0.008459850    0.001261769   -0.000000875
   7   O   :    0.008750351   -0.001765361    0.000000568
   8   F   :    0.001775076   -0.000071459    0.000000144
   9   H   :    0.001027692    0.000545639    0.000000300
  10   H   :   -0.000284858    0.000971758   -0.000002493
  11   H   :   -0.000307879   -0.000954212   -0.000005402
[...]
Two Electron Energy:        484.95050004768183 Eh           13196.17399 eV
CPCM Dielectric    :         -0.01836746791616 Eh              -0.49980 eV
SMD CDS (Gcds)     :          0.00620017768995 Eh               0.16872 eV

Virial components:
Potential Energy   :       -811.64290129421647 Eh          -22085.92617 eV
Kinetic Energy     :        404.99118992838362 Eh           11020.37054 eV
Virial Ratio       :          2.00410014212344

DFT components:
N(Alpha)           :       29.000022012902 electrons
N(Beta)            :       29.000022012902 electrons
N(Total)           :       58.000044025805 electrons
E(X)               :      -51.415330978387 Eh       
E(C)               :       -1.914073135358 Eh       
E(XC)              :      -53.329404113745 Eh       

CPCM Solvation Model Properties:
Surface-charge          :         -0.03376857701480
Corrected charge        :          0.00000000000000
Outlying charge corr.   :          0.00009432223183 Eh               0.00257 eV
Free-energy (cav+disp)  :          0.00620017768995 Eh               0.16872 eV

---------------
SCF CONVERGENCE
---------------

  Last Energy change         ...   -3.1998e-08  Tolerance :   1.0000e-07
  Last MAX-Density change    ...    5.6341e-05  Tolerance :   1.0000e-07
  Last RMS-Density change    ...    2.1835e-06  Tolerance :   5.0000e-09
  Last DIIS Error            ...    1.0324e-04  Tolerance :   1.0000e-07
  Last Orbital Gradient      ...    4.8712e-05  Tolerance :   1.0000e-04
  Last Orbital Rotation      ...    5.5763e-05  Tolerance :   1.0000e-04


----------------
ORBITAL ENERGIES
----------------

  NO   OCC          E(Eh)            E(eV) 
   0   2.0000     -24.496562      -666.5854 
   1   2.0000     -18.983259      -516.5607 
   2   2.0000     -10.115626      -275.2602 
   3   2.0000     -10.101659      -274.8801 
   4   2.0000     -10.046349      -273.3751 
   5   2.0000     -10.046101      -273.3683 
   6   2.0000     -10.044005      -273.3113 
   7   2.0000     -10.042386      -273.2672 
   8   2.0000      -1.181201       -32.1421 
   9   2.0000      -1.022579       -27.8258 
  10   2.0000      -0.830687       -22.6041 
  11   2.0000      -0.729978       -19.8637 
  12   2.0000      -0.710795       -19.3417 
  13   2.0000      -0.604538       -16.4503 
  14   2.0000      -0.581674       -15.8282 
  15   2.0000      -0.517995       -14.0954 
  16   2.0000      -0.506917       -13.7939 
  17   2.0000      -0.464645       -12.6436 
  18   2.0000      -0.428387       -11.6570 
  19   2.0000      -0.417805       -11.3690 
  20   2.0000      -0.401771       -10.9328 
  21   2.0000      -0.395902       -10.7730 
  22   2.0000      -0.380444       -10.3524 
  23   2.0000      -0.371508       -10.1093 
  24   2.0000      -0.341421        -9.2905 
  25   2.0000      -0.313593        -8.5333 
  26   2.0000      -0.307715        -8.3734 
  27   2.0000      -0.249239        -6.7821 
  28   2.0000      -0.206292        -5.6135 
  29   0.0000      -0.045609        -1.2411 
  30   0.0000      -0.017046        -0.4638 
  31   0.0000       0.069319         1.8863 
  32   0.0000       0.079952         2.1756 
  33   0.0000       0.107148         2.9157 
  34   0.0000       0.122719         3.3394 
  35   0.0000       0.129491         3.5236 
  36   0.0000       0.148157         4.0316 
  37   0.0000       0.158622         4.3163 
  38   0.0000       0.172258         4.6874 
  39   0.0000       0.185825         5.0566 
*Only the first 10 virtual orbitals were printed.
Total SCF time: 0 days 0 hours 0 min 8 sec 
Finished LeanSCF after   8.1 sec

Maximum memory used throughout the entire LEANSCF-calculation: 20.1 MB


-------------------------------------------------------------------------------
                          DFT DISPERSION CORRECTION                            
                                                                               
                                DFTD4 V3.4.0                                   
-------------------------------------------------------------------------------
-------------------------   ----------------
Dispersion correction           -0.003863159
-------------------------   ----------------

------------------   -----------------
gCP correction             0.004162286
------------------   -----------------

-------------------------   --------------------
FINAL SINGLE POINT ENERGY      -406.651412238969
-------------------------   --------------------

------------------------------------------------------------------------------
                         ORCA SCF GRADIENT CALCULATION
------------------------------------------------------------------------------

Nuc. rep. gradient        (SHARK) ... done (  0.0 sec)
HCore & Overlap gradient  (SHARK) ... done (  0.2 sec)
Split-RIJ-J gradient      (SHARK) ... done (  1.2 sec)
XC gradient                       ... done (  4.5 sec)
CPCM gradient                     ... done (  0.6 sec)
SMD gradient                      ... done (  0.0 sec)
Dispersion correction             ... done (  0.0 sec)

-------------------
DISPERSION GRADIENT
-------------------

   1   C   :   -0.000023835   -0.000047512    0.000000003
   2   C   :    0.000039439   -0.000048024    0.000000005
   3   C   :    0.000057904    0.000000985    0.000000002
   4   C   :    0.000037027    0.000050260   -0.000000003
   5   C   :   -0.000020432    0.000050633   -0.000000004
   6   C   :   -0.000047976    0.000000844   -0.000000001
   7   O   :   -0.000084627   -0.000015170   -0.000000003
   8   F   :    0.000064108    0.000000014    0.000000001
   9   H   :   -0.000016143   -0.000033036    0.000000002
  10   H   :    0.000022313   -0.000031902    0.000000003
  11   H   :    0.000021224    0.000031880   -0.000000002
  12   H   :   -0.000016977    0.000034205   -0.000000003
  13   H   :   -0.000032023    0.000006822   -0.000000001

Difference to translation invariance:
           :    0.0000000000    0.0000000000   -0.0000000000

Difference to rotation invariance:
           :   -0.0000000000   -0.0000000000   -0.0000000000

Norm of the Dispersion gradient    ...    0.0001938764
RMS gradient                       ...    0.0000310451
MAX gradient                       ...    0.0000846274
gCP correction                   ... done

------------------
CARTESIAN GRADIENT
------------------

   1   C   :   -0.000034618   -0.000092633   -0.000000081
   2   C   :    0.000056036    0.000044420   -0.000000707
   3   C   :    0.000050069   -0.000051724    0.000000540
   4   C   :    0.000021812    0.000041839    0.000001407
   5   C   :   -0.000141958    0.000045735    0.000000321
   6   C   :    0.000422474   -0.000018935    0.000001722
   7   O   :   -0.000386284    0.000107784    0.000000011
   8   F   :   -0.000101704   -0.000027991   -0.000000336
   9   H   :    0.000017974    0.000114478   -0.000000034
  10   H   :   -0.000091606    0.000065348   -0.000000091
  11   H   :   -0.000062026   -0.000107454   -0.000000935
  12   H   :    0.000114681   -0.000107788   -0.000000975
  13   H   :    0.000135150   -0.000013080   -0.000000840

Difference to translation invariance:
           :    0.0000000000   -0.0000000000   -0.0000000000

Difference to rotation invariance:
           :   -0.0000002079   -0.0000005966   -0.0005855504

Norm of the Cartesian gradient     ...    0.0006928542
RMS gradient                       ...    0.0001109455
MAX gradient                       ...    0.0004224742

-------
TIMINGS
-------

Total SCF gradient time     ....        7.053 sec

Densities                   ....       0.000 sec  (  0.0%)
One electron gradient       ....       0.173 sec  (  2.5%)
RI-J Coulomb gradient       ....       1.223 sec  ( 17.3%)
XC gradient                 ....       4.543 sec  ( 64.4%)
CPCM gradient               ....       0.586 sec  (  8.3%)
   A-Matrix (El+Nuc)        ....       0.044 sec  (  0.6%)
   Potential                ....       0.543 sec  (  7.7%)
SMD gradient                ....       0.010 sec  (  0.1%)

Maximum memory used throughout the entire SCFGRAD-calculation: 33.0 MB

------------------------------------------------------------------------------
                              ORCA PROPERTY CALCULATIONS
------------------------------------------------------------------------------

GBWName                                 ... xtb_opt.gbw
Number of atoms                         ...     13
Number of basis functions               ...    187
Max core memory                         ...   1024 MB

Electric properties:
Dipole moment                           ... YES
Quadrupole moment                       ...  NO
Static polarizability (Dipole/Dipole)   ...  NO
Static polarizability (Dipole/Quad.)    ...  NO
Static polarizability (Quad./Quad.)     ...  NO
Static polarizability (Velocity)        ...  NO

Atomic electric properties:
Dipole moment                           ...  NO
Quadrupole moment                       ...  NO
Static polarizability                   ...  NO

Choice of electric origin               ... Center of mass
Position of electric origin             ...    -0.003962     0.000452    -0.000168

General magnetic properties:
Magnetizability                         ...  NO

EPR properties:
g-Tensor (aka g-matrix)                 ...  NO
Zero-Field splitting spin-orbit         ...  NO
Zero-field splitting spin-spin          ...  NO
Hyperfine couplings                     ...  NO (   0 nuclei)
Quadrupole couplings                    ...  NO (   0 nuclei)
Contact density                         ...  NO (   0 nuclei)

NMR properties:
Chemical shifts                         ...  NO (   0 nuclei)
Spin-rotation constants                 ...  NO (   0 nuclei)
Spin-spin couplings                     ...  NO (   0 nuclei,    0 pairs)

Choice of magnetic origin               ... GIAO
Position of magnetic origin             ...     0.000000     0.000000     0.000000

Properties with geometric perturbations:
SCF Hessian                             ...  NO
IR spectrum                             ...  NO
VCD spectrum                            ...  NO
X-ray spectroscopy properties:
SCF XES/XAS/RIXS spectra                ...  NO


-------------
DIPOLE MOMENT
-------------

Method             : SCF
Type of density    : Electron Density
Multiplicity       :   1
Irrep              :   0
Energy             :  -406.6517113658328526 Eh
Relativity type    : 
Basis              : AO
                                X                 Y                 Z
Electronic contribution:      4.801305099       0.032655661       0.000150237
Nuclear contribution   :     -5.609567527      -0.795040867      -0.000206928
                        -----------------------------------------
Total Dipole Moment    :     -0.808262428      -0.762385206      -0.000056691
                        -----------------------------------------
Magnitude (a.u.)       :      1.111089266
Magnitude (Debye)      :      2.824164475



--------------------
Rotational spectrum 
--------------------
 
Rotational constants in cm-1:             0.187451             0.048458             0.038504 
Rotational constants in MHz :          5619.632065          1452.726182          1154.323120 

Dipole components along the rotational axes: 
x,y,z [a.u.] :     0.808260    -0.762388    -0.000096 
x,y,z [Debye]:     2.054433    -1.937837    -0.000244 

 

Dipole moment calculation done in   0.0 sec 

Maximum memory used throughout the entire PROP-calculation: 11.3 MB

--------------------------------
SUGGESTED CITATIONS FOR THIS RUN
--------------------------------

Below you find a list of papers that are relevant to this ORCA run
We neither can nor want to force you to cite these papers, but we appreciate if you do
You receive ORCA, which is the product of decades of hard work by many enthusiastic individuals, for free
The only thing we kindly ask in return is that you cite our papers,
We deeply appreciate it, if you show your appreciation for ORCA by not just citing the generic ORCA reference.

Please note that relegating all ORCA citations to the supporting information does *not* help us.
SI sections are not indexed - citations you put there will not count into any citation statistics
But we need these citations in order to attract the funding resources that allow us to do what we are doing

Therefore, if you are a happy ORCA user, please consider citing a few of the papers listed below in the main body of your paper

In addition to the list printed below, the program has created the file xtb_opt.bibtex that contains the list in bibtex format
You can import this file easily into all common literature databanks and citation aid programs


List of essential papers. We consider these as the minimum necessary citations

  1. Neese,F.
     Software update: the ORCA program system, version 5.0
     WIRES Comput. Molec. Sci., 2022 12(1)e1606
     doi.org/10.1002/wcms.1606
  2. Grimme,S.; Hansen,A.; Ehlert,S.; Mewes,J.
     r2SCAN-3c: A 'Swiss army knife' composite electronic-structure method
     J. Chem. Phys., 2021 154 064103
     doi.org/10.1063/5.0040021

List of papers to cite with high priority. The work reported in these papers was absolutely
necessary for this run to complete.
Our perspective: the developers of density functionals and basis sets usually get cited in chemistry papers
Good! But without the algorithms to do something with them, the functionals or basis sets would not do anything.
Hence, in our opinion, the algorithm design and method developments papers are equally worthy of getting cited

  1. Neese,F.
     An improvement of the resolution of the identity approximation for the formation of the Coulomb matrix
     J. Comp. Chem., 2003 24(14)1740-1747
     doi.org/10.1002/jcc.10318
  2. Garcia-Rates,M.; Neese,F.
     Effect of the Solute Cavity on the Solvation Energy and its Derivatives within the Framework of the Gaussian Charge Scheme
     J. Comput. Chem., 2020 41 922-939
     doi.org/10.1002/jcc.26139
  3. Neese,F.
     The SHARK Integral Generation and Digestion System
     J. Comp. Chem., 2022  1-16
     doi.org/10.1002/jcc.26942
  4. Lehtola,S.; Steigemann,C.; Oliveira,M.; Marques,M.
     Recent developments in Libxc - A comprehensive library of functionals for density functional theory
     Software X, 2018 7 
     doi.org/10.1016/j.softx.2017.11.002
  5. Caldeweyher,E.; Bannwarth,C.; Grimme,S.
     Extension of the D3 dispersion coefficient model
     J. Chem. Phys., 2017 147 034112-XXXX
     doi.org/10.1063/1.4993215
  6. Caldeweyher,E.; Ehlert,S.; Hansen,A.; Neugebauer,H.; Spicher,S.; Bannwarth,C.; Grimme,S.
     A generally applicable atomic-charge dependent London dispersion correction
     J. Chem. Phys., 2019 150 154122-XXXX
     doi.org/10.1063/1.5090222
  7. Caldeweyher,E.; Mewes,J.; Ehlert,S.; Grimme,S.
     Extension and evaluation of the D4 London-dispersion model for periodic systems
     Phys. Chem. Chem. Phys., 2020 22(16)8499-8512
     doi.org/10.1039/D0CP00502A

List of suggested additional citations. These are papers that are important in the 'surrounding' of 
of this run, or papers that preceded the highly important papers. If you like your results we are grateful for a citation.

  1. Neese,F.
     The ORCA program system
     WIRES Comput. Molec. Sci., 2012 2(1)73-78
     doi.org/10.1002/wcms.81
  2. Neese,F.
     Software update: the ORCA program system, version 4.0
     WIRES Comput. Molec. Sci., 2018 8(1)1-6
     doi.org/10.1002/wcms.1327
  3. Neese,F.; Wennmohs,F.; Becker,U.; Riplinger,C.
     The ORCA quantum chemistry program package
     J. Chem. Phys., 2020 152 Art. No. L224108
     doi.org/10.1063/5.0004608

List of optional additional citations

  1. Neese,F.
     Approximate second-order SCF convergence for spin unrestricted wavefunctions
     Chem. Phys. Lett., 2000 325(1-3)93-98
     doi.org/10.1016/s0009-2614(00)00662-x

Timings for individual modules:

Sum of individual times          ...       16.711 sec (=   0.279 min)
Startup calculation              ...        1.021 sec (=   0.017 min)   6.1 %
SCF iterations                   ...        8.429 sec (=   0.140 min)  50.4 %
Property calculations            ...        0.112 sec (=   0.002 min)   0.7 %
SCF Gradient evaluation          ...        7.149 sec (=   0.119 min)  42.8 %
                             ****ORCA TERMINATED NORMALLY****
TOTAL RUN TIME: 0 days 0 hours 0 minutes 17 seconds 414 msec
  ------------------------------------------------------------------------
          * successful ORCA run, taking over control again...

         :::::::::::::::::::::::::::::::::::::::::::::::::::::
         ::                  ORCA SUMMARY                   ::
         :::::::::::::::::::::::::::::::::::::::::::::::::::::
         :: total energy            -406.651412238969 Eh    ::
         :: gradient norm              0.000692854219 Eh/a0 ::
         :: HOMO-LUMO gap              0.000000000000 eV    ::
         :::::::::::::::::::::::::::::::::::::::::::::::::::::

           -------------------------------------------------
          |                Property Printout                |
           -------------------------------------------------
           -------------------------------------------------
          |                Geometry Summary                 |
           -------------------------------------------------

      molecular mass/u    :      112.1019272
   center of mass at/Å    :       -0.0020948       0.0002398      -0.0000889
  moments of inertia/u·Å² :        0.8992839E+02   0.3478872E+03   0.4378156E+03
rotational constants/cm⁻¹ :        0.1874562E+00   0.4845718E-01   0.3850396E-01

 * 12 selected distances

     #   Z          #   Z                                           value/Å
     1   6 C        2   6 C                                       1.3923099
     2   6 C        3   6 C                                       1.3831139
     3   6 C        4   6 C                                       1.3842890
     4   6 C        5   6 C                                       1.3910664
     1   6 C        6   6 C                                       1.3945912 (max)
     5   6 C        6   6 C                                       1.3945536
     6   6 C        7   8 O                                       1.3786655
     1   6 C        9   1 H                                       1.0860177
     2   6 C       10   1 H                                       1.0844416
     4   6 C       11   1 H                                       1.0844287
     5   6 C       12   1 H                                       1.0846330
     7   8 O       13   1 H                                       0.9673032 (min)

 * 4 distinct bonds (by element types)

   Z      Z             #   av. dist./Å        max./Å        min./Å
   1 H    6 C           4     1.0848803     1.0860177     1.0844287
   6 C    6 C           6     1.3899873     1.3945912     1.3831139
   1 H    8 O           1     0.9673032     0.9673032     0.9673032
   6 C    8 O           1     1.3786655     1.3786655     1.3786655


optimized geometry written to: xtbopt.coord


           -------------------------------------------------
          | TOTAL ENERGY             -406.651412238969 Eh   |
          | GRADIENT NORM               0.000692854219 Eh/α |
           -------------------------------------------------

------------------------------------------------------------------------
 * finished run on 2025/04/03 at 21:46:35.035     
------------------------------------------------------------------------
 total:
 * wall-time:     0 d,  0 h,  1 min, 51.399 sec
 *  cpu-time:     0 d,  0 h,  0 min,  0.014 sec
 * ratio c/w:     0.000 speedup
 SCF:
 * wall-time:     0 d,  0 h,  0 min, 14.225 sec
 *  cpu-time:     0 d,  0 h,  0 min,  0.001 sec
 * ratio c/w:     0.000 speedup
 ANC optimizer:
 * wall-time:     0 d,  0 h,  1 min, 37.163 sec
 *  cpu-time:     0 d,  0 h,  0 min,  0.010 sec
 * ratio c/w:     0.000 speedup

