
                                 *****************
                                 * O   R   C   A *
                                 *****************

                                            #,                                       
                                            ###                                      
                                            ####                                     
                                            #####                                    
                                            ######                                   
                                           ########,                                 
                                     ,,################,,,,,                         
                               ,,#################################,,                 
                          ,,##########################################,,             
                       ,#########################################, ''#####,          
                    ,#############################################,,   '####,        
                  ,##################################################,,,,####,       
                ,###########''''           ''''###############################       
              ,#####''   ,,,,##########,,,,          '''####'''          '####       
            ,##' ,,,,###########################,,,                        '##       
           ' ,,###''''                  '''############,,,                           
         ,,##''                                '''############,,,,        ,,,,,,###''
      ,#''                                            '''#######################'''  
     '                                                          ''''####''''         
             ,#######,   #######,   ,#######,      ##                                
            ,#'     '#,  ##    ##  ,#'     '#,    #''#        ,####,   ,####,        
            ##       ##  ##   ,#'  ##            #'  '#       #'       #'  '#        
            ##       ##  #######   ##           ,######,      #####,   #    #        
            '#,     ,#'  ##    ##  '#,     ,#' ,#      #,     #,   #   #,  ,#        
             '#######'   ##     ##  '#######'  #'      '#     '####' # '####'        



                #########################################################
                #                        -***-                          #
                #          Department of theory and spectroscopy        #
                #                                                       #
                #                      Frank Neese                      #
                #                                                       #
                #     Directorship, Architecture, Infrastructure        #
                #                    SHARK, DRIVERS                     #
                #        Core code/Algorithms in most modules           #
                #                                                       #
                #        Max Planck Institute fuer Kohlenforschung      #
                #                Kaiser Wilhelm Platz 1                 #
                #                 D-45470 Muelheim/Ruhr                 #
                #                      Germany                          #
                #                                                       #
                #                  All rights reserved                  #
                #                        -***-                          #
                #########################################################


                         Program Version 6.0.0  -   RELEASE  -


 With contributions from (in alphabetic order):
   Daniel Aravena         : Magnetic Suceptibility
   Michael Atanasov       : Ab Initio Ligand Field Theory (pilot matlab implementation)
   Alexander A. Auer      : GIAO ZORA, VPT2 properties, NMR spectrum
   Ute Becker             : All parallelization in ORCA, NUMFREQ, NUMCALC
   Giovanni Bistoni       : ED, misc. LED, open-shell LED, HFLD
   Martin Brehm           : Molecular dynamics
   Dmytro Bykov           : pre 5.0 version of the SCF Hessian
   Marcos Casanova-Páez   : Triplet and SCS-CIS(D). UHF-(DLPNO)-IP/EA/STEOM-CCSD. UHF-CVS-IP/STEOM-CCSD
   Vijay G. Chilkuri      : MRCI spin determinant printing, contributions to CSF-ICE
   Pauline Colinet        : FMM embedding
   Dipayan Datta          : RHF DLPNO-CCSD density
   Achintya Kumar Dutta   : EOM-CC, STEOM-CC
   Nicolas Foglia         : Exact transition moments, OPA infrastructure, MCD improvements
   Dmitry Ganyushin       : Spin-Orbit,Spin-Spin,Magnetic field MRCI
   Miquel Garcia          : C-PCM and meta-GGA Hessian, CCSD/C-PCM, Gaussian charge scheme
   Tiago L. C. Gouveia    : GS-ROHF, GS-ROCIS
   Yang Guo               : DLPNO-NEVPT2, F12-NEVPT2, CIM, IAO-localization
   Andreas Hansen         : Spin unrestricted coupled pair/coupled cluster methods
   Ingolf Harden          : AUTO-CI MPn and infrastructure 
   Benjamin Helmich-Paris : MC-RPA, TRAH-(SCF,CASSCF), AVAS, COSX integrals, SCF dyn. polar.
   Lee Huntington         : MR-EOM, pCC
   Robert Izsak           : Overlap fitted RIJCOSX, COSX-SCS-MP3, EOM
   Riya Kayal             : Wick's Theorem for AUTO-CI, AUTO-CI UHF-CCSDT
   Emily Kempfer          : AUTO-CI, RHF CISDT and CCSDT
   Christian Kollmar      : KDIIS, OOCD, Brueckner-CCSD(T), CCSD density, CASPT2, CASPT2-K, improved NEVPT2
   Axel Koslowski         : Symmetry handling
   Simone Kossmann        : Meta GGA functionals, TD-DFT gradient, OOMP2, (MP2 Hessian; deprecated post 5.0)
   Lucas Lang             : DCDCAS
   Marvin Lechner         : AUTO-CI (C++ implementation), FIC-MRCC
   Spencer Leger          : CASSCF response
   Dagmar Lenk            : GEPOL surface, SMD, ORCA-2-JSON
   Dimitrios Liakos       : Extrapolation schemes; Compound Job, initial MDCI parallelization
   Dimitrios Manganas     : Further ROCIS development; embedding schemes. LFT, Crystal Embedding
   Dimitrios Pantazis     : SARC Basis sets
   Anastasios Papadopoulos: AUTO-CI, single reference methods and gradients
   Taras Petrenko         : pre 6.0 DFT Hessian and TD-DFT gradient, (ASA, deprecated), ECA, 1-Electron XAS/XES, NRVS
   Peter Pinski           : DLPNO-MP2, DLPNO-MP2 Gradient
   Christoph Reimann      : Effective Core Potentials
   Marius Retegan         : Local ZFS, SOC
   Christoph Riplinger    : Optimizer, TS searches, QM/MM, DLPNO-CCSD(T), (RO)-DLPNO pert. Triples
   Michael Roemelt        : Original ROCIS implementation
   Masaaki Saitow         : Open-shell DLPNO-CCSD energy and density
   Barbara Sandhoefer     : DKH picture change effects
   Kantharuban Sivalingam : CASSCF convergence/infrastructure, NEVPT2 and variants, FIC-MRCI
   Bernardo de Souza      : ESD, SOC TD-DFT
   Georgi Stoychev        : AutoAux, RI-MP2 NMR, DLPNO-MP2 response, X2C
   Van Anh Tran           : RI-MP2 g-tensors
   Willem Van den Heuvel  : Paramagnetic NMR
   Zikuan Wang            : NOTCH, Electric field optimization 
   Frank Wennmohs         : Technical directorship and infrastructure
   Hang Xu                : AUTO-CI-Response properties 


 We gratefully acknowledge several colleagues who have allowed us to
 interface, adapt or use parts of their codes:
   Stefan Grimme, W. Hujo, H. Kruse, P. Pracht,  : VdW corrections, initial TS optimization,
                  C. Bannwarth, S. Ehlert,         DFT functionals, gCP, sTDA/sTD-DF
                  L. Wittmann, M. Mueller
   Ed Valeev, F. Pavosevic, A. Kumar             : LibInt (2-el integral package), F12 methods
   Garnet Chan, S. Sharma, J. Yang, R. Olivares  : DMRG
   Ulf Ekstrom                                   : XCFun DFT Library
   Mihaly Kallay                                 : mrcc  (arbitrary order and MRCC methods)
   Frank Weinhold                                : gennbo (NPA and NBO analysis)
   Simon Mueller                                 : openCOSMO-RS
   Christopher J. Cramer and Donald G. Truhlar   : smd solvation model
   Lars Goerigk                                  : TD-DFT with DH, B97 family of functionals
   V. Asgeirsson, H. Jonsson                     : NEB implementation
   FAccTs GmbH                                   : IRC, NEB, NEB-TS, DLPNO-Multilevel, CI-OPT
                                                   MM, QMMM, 2- and 3-layer-ONIOM, Crystal-QMMM,
                                                   LR-CPCM, SF, NACMEs, symmetry and pop. for TD-DFT,
                                                   nearIR, NL-DFT gradient (VV10), updates on ESD,
                                                   ML-optimized integration grids, MBIS, APM,
                                                   GOAT, DOCKER, SOLVATOR, interface openCOSMO-RS
   S Lehtola, MJT Oliveira, MAL Marques          : LibXC Library
   Liviu Ungur et al                             : ANISO software


 Your calculation uses the libint2 library for the computation of 2-el integrals
 For citations please refer to: http://libint.valeyev.net

 Your ORCA version has been built with support for libXC version: 6.2.2
 For citations please refer to: https://libxc.gitlab.io

 This ORCA versions uses:
   CBLAS   interface :  Fast vector & matrix operations
   LAPACKE interface :  Fast linear algebra routines
   SCALAPACK package :  Parallel linear algebra routines
   Shared memory     :  Shared parallel matrices
   BLAS/LAPACK       :  OpenBLAS 0.3.27  USE64BITINT DYNAMIC_ARCH NO_AFFINITY SkylakeX SINGLE_THREADED
        Core in use  :  SkylakeX
   Copyright (c) 2011-2014, The OpenBLAS Project


Your calculation utilizes the geometrical counterpoise correction gCP
Please cite in your paper:
H.Kruse, S. Grimme J.Chem.Phys., 136, (2012), 154101 
   

Your calculation utilizes the atom-pairwise dispersion correction
based on EEQ partial charges (D4)


Your calculation utilizes the SMD solvation module
Please cite in your paper:
A.V. Marenich, C.J. Cramer, D.G. Truhlar J. Phys. Chem. B, 113, (2009), 6378 

================================================================================

----- Orbital basis set information -----
Your calculation utilizes the basis: def2-mTZVPP
   Stefan Grimme, Andreas Hansen, Sebastian Ehlert, and Jan-Michael Mewes 
   J. Chem. Phys. 154, 064103 (2021). DOI: 10.1063/5.0040021

----- AuxJ basis set information -----
Your calculation utilizes the auxiliary basis: def2/J
   F. Weigend, Phys. Chem. Chem. Phys. 8, 1057 (2006).

================================================================================
                                        WARNINGS
                       Please study these warnings very carefully!
================================================================================

Using LibXC functional ID 497 : Re-regularized SCAN exchange by Furness et al
[ 1]  J. W. Furness, A. D. Kaplan, J. Ning, J. P. Perdew, and J. Sun.,  J. Phys. Chem. Lett. 11, 8208-8215 (2020)
[ 2]  J. W. Furness, A. D. Kaplan, J. Ning, J. P. Perdew, and J. Sun.,  J. Phys. Chem. Lett. 11, 9248-9248 (2020)
Using LibXC functional ID 498 : Re-regularized SCAN correlation by Furness et al
[ 1]  J. W. Furness, A. D. Kaplan, J. Ning, J. P. Perdew, and J. Sun.,  J. Phys. Chem. Lett. 11, 8208-8215 (2020)
[ 2]  J. W. Furness, A. D. Kaplan, J. Ning, J. P. Perdew, and J. Sun.,  J. Phys. Chem. Lett. 11, 9248-9248 (2020)
Using LibXC functional ID 497 : Re-regularized SCAN exchange by Furness et al
[ 1]  J. W. Furness, A. D. Kaplan, J. Ning, J. P. Perdew, and J. Sun.,  J. Phys. Chem. Lett. 11, 8208-8215 (2020)
[ 2]  J. W. Furness, A. D. Kaplan, J. Ning, J. P. Perdew, and J. Sun.,  J. Phys. Chem. Lett. 11, 9248-9248 (2020)
Using LibXC functional ID 498 : Re-regularized SCAN correlation by Furness et al
[ 1]  J. W. Furness, A. D. Kaplan, J. Ning, J. P. Perdew, and J. Sun.,  J. Phys. Chem. Lett. 11, 8208-8215 (2020)
[ 2]  J. W. Furness, A. D. Kaplan, J. Ning, J. P. Perdew, and J. Sun.,  J. Phys. Chem. Lett. 11, 9248-9248 (2020)

================================================================================
                                       INPUT FILE
================================================================================
NAME = sp_solv.inp
|  1> ! r2scan-3c def2/J RI DEFGRID2 scfconv6 printgap
|  2> %output
|  3>     printlevel normal
|  4> end
|  5> %cpcm
|  6>     smd true
|  7>     smdsolvent "water"
|  8> end
|  9> * xyz 0 1
| 10> C -2.0885913444 0.3098817362 1.4018334591
| 11> C -1.5159273417 -0.0259346448 0.0188753935
| 12> C -2.0733205917 -1.3929964504 -0.3994779573
| 13> C -1.976568769 1.0380857292 -0.9887158355
| 14> C 0.0061211746 -0.0242429811 0.0253868098
| 15> C 0.7265753847 0.783710233 0.8997793513
| 16> C 2.1100537318 0.8153219629 0.8767874362
| 17> C 2.812924681 0.0405145997 -0.0280472742
| 18> C 2.1125269459 -0.7590579406 -0.9132727599
| 19> C 0.7293066773 -0.7864731663 -0.8874283374
| 20> H -3.166775545 0.1673594247 1.3961308787
| 21> H -1.660037653 -0.3404042535 2.1610622261
| 22> H -1.8967994548 1.3438884176 1.6744932904
| 23> H -3.1526637116 -1.405540199 -0.2660975282
| 24> H -1.870646479 -1.6065350503 -1.4450522299
| 25> H -1.6417565179 -2.1834931488 0.210409443
| 26> H -1.597812446 0.8103897031 -1.9827433984
| 27> H -3.0628952485 1.0727578993 -1.0290754864
| 28> H -1.6067763985 2.0196807291 -0.7001308114
| 29> H 0.214079227 1.4052793617 1.6159951684
| 30> H 2.6401826206 1.4512363898 1.5709411072
| 31> H 3.89240542 0.0622675874 -0.0456178978
| 32> H 2.6446210872 -1.3662051842 -1.631275683
| 33> H 0.2177665691 -1.4164896275 -1.5972069024
| 34> *
| 35> 
| 36>                          ****END OF INPUT****
================================================================================

                       ****************************
                       * Single Point Calculation *
                       ****************************

---------------------------------
CARTESIAN COORDINATES (ANGSTROEM)
---------------------------------
  C     -2.088591    0.309882    1.401833
  C     -1.515927   -0.025935    0.018875
  C     -2.073321   -1.392996   -0.399478
  C     -1.976569    1.038086   -0.988716
  C      0.006121   -0.024243    0.025387
  C      0.726575    0.783710    0.899779
  C      2.110054    0.815322    0.876787
  C      2.812925    0.040515   -0.028047
  C      2.112527   -0.759058   -0.913273
  C      0.729307   -0.786473   -0.887428
  H     -3.166776    0.167359    1.396131
  H     -1.660038   -0.340404    2.161062
  H     -1.896799    1.343888    1.674493
  H     -3.152664   -1.405540   -0.266098
  H     -1.870646   -1.606535   -1.445052
  H     -1.641757   -2.183493    0.210409
  H     -1.597812    0.810390   -1.982743
  H     -3.062895    1.072758   -1.029075
  H     -1.606776    2.019681   -0.700131
  H      0.214079    1.405279    1.615995
  H      2.640183    1.451236    1.570941
  H      3.892405    0.062268   -0.045618
  H      2.644621   -1.366205   -1.631276
  H      0.217767   -1.416490   -1.597207

----------------------------
CARTESIAN COORDINATES (A.U.)
----------------------------
  NO LB      ZA    FRAG     MASS         X           Y           Z
   0 C     6.0000    0    12.011   -3.946866    0.585592    2.649081
   1 C     6.0000    0    12.011   -2.864688   -0.049009    0.035669
   2 C     6.0000    0    12.011   -3.918008   -2.632382   -0.754904
   3 C     6.0000    0    12.011   -3.735174    1.961698   -1.868402
   4 C     6.0000    0    12.011    0.011567   -0.045813    0.047974
   5 C     6.0000    0    12.011    1.373028    1.480998    1.700337
   6 C     6.0000    0    12.011    3.987424    1.540735    1.656888
   7 C     6.0000    0    12.011    5.315657    0.076561   -0.053002
   8 C     6.0000    0    12.011    3.992097   -1.434412   -1.725835
   9 C     6.0000    0    12.011    1.378190   -1.486219   -1.676997
  10 H     1.0000    0     1.008   -5.984339    0.316263    2.638305
  11 H     1.0000    0     1.008   -3.137017   -0.643271    4.083816
  12 H     1.0000    0     1.008   -3.584432    2.539581    3.164334
  13 H     1.0000    0     1.008   -5.957671   -2.656086   -0.502851
  14 H     1.0000    0     1.008   -3.535010   -3.035911   -2.730753
  15 H     1.0000    0     1.008   -3.102470   -4.126204    0.397616
  16 H     1.0000    0     1.008   -3.019428    1.531415   -3.746842
  17 H     1.0000    0     1.008   -5.788033    2.027219   -1.944671
  18 H     1.0000    0     1.008   -3.036367    3.816643   -1.323055
  19 H     1.0000    0     1.008    0.404551    2.655593    3.053788
  20 H     1.0000    0     1.008    4.989222    2.742439    2.968648
  21 H     1.0000    0     1.008    7.355580    0.117669   -0.086205
  22 H     1.0000    0     1.008    4.997610   -2.581754   -3.082664
  23 H     1.0000    0     1.008    0.411519   -2.676777   -3.018284

--------------------------------
INTERNAL COORDINATES (ANGSTROEM)
--------------------------------
 C      0   0   0     0.000000000000     0.00000000     0.00000000
 C      1   0   0     1.534043582479     0.00000000     0.00000000
 C      2   1   0     1.534459103920   107.77094508     0.00000000
 C      2   1   3     1.536089178918   109.13301246   118.50683967
 C      2   1   3     1.522063384436   111.66628612   237.30211888
 C      5   2   1     1.391547692915   121.40366963   330.83906614
 C      6   5   2     1.384030442773   121.35588804   182.02239912
 C      7   6   5     1.383141306752   120.40042648     0.23939225
 C      8   7   6     1.383292230538   119.02148681     0.37523847
 C      9   8   7     1.383733298089   120.37375381   359.68530706
 H      1   2   3     1.087578180694   109.67382561   310.39003305
 H      1   2   3     1.087638936161   110.56863284    69.89667943
 H      1   2   3     1.086414897588   111.63557201   191.32758841
 H      3   2   1     1.087625512284   109.71394996    49.56402564
 H      3   2   1     1.086232520747   111.70312669   168.68699292
 H      3   2   1     1.087701807032   110.51651153   290.01421955
 H      4   2   1     1.087838512059   110.48634335   181.08251528
 H      4   2   1     1.087628742202   110.23936165   301.24354198
 H      4   2   1     1.087913809657   110.42961538    61.37274326
 H      6   5   2     1.077945077485   120.40734362     1.96123318
 H      7   6   5     1.080404144773   119.55448619   180.17813791
 H      8   7   6     1.079842852067   120.48811546   180.14927406
 H      9   8   7     1.080407399177   120.04939945   179.61162109
 H     10   9   8     1.078137113272   118.26643485   179.57888205

---------------------------
INTERNAL COORDINATES (A.U.)
---------------------------
 C      0   0   0     0.000000000000     0.00000000     0.00000000
 C      1   0   0     2.898922248384     0.00000000     0.00000000
 C      2   1   0     2.899707470110   107.77094508     0.00000000
 C      2   1   3     2.902787865435   109.13301246   118.50683967
 C      2   1   3     2.876282955052   111.66628612   237.30211888
 C      5   2   1     2.629644041899   121.40366963   330.83906614
 C      6   5   2     2.615438497850   121.35588804   182.02239912
 C      7   6   5     2.613758274275   120.40042648     0.23939225
 C      8   7   6     2.614043478899   119.02148681     0.37523847
 C      9   8   7     2.614876975776   120.37375381   359.68530706
 H      1   2   3     2.055224910740   109.67382561   310.39003305
 H      1   2   3     2.055339721933   110.56863284    69.89667943
 H      1   2   3     2.053026624253   111.63557201   191.32758841
 H      3   2   1     2.055314354483   109.71394996    49.56402564
 H      3   2   1     2.052681981971   111.70312669   168.68699292
 H      3   2   1     2.055458530662   110.51651153   290.01421955
 H      4   2   1     2.055716865724   110.48634335   181.08251528
 H      4   2   1     2.055320458142   110.23936165   301.24354198
 H      4   2   1     2.055859157564   110.42961538    61.37274326
 H      6   5   2     2.037020983855   120.40734362     1.96123318
 H      7   6   5     2.041667947574   119.55448619   180.17813791
 H      8   7   6     2.040607258079   120.48811546   180.14927406
 H      9   8   7     2.041674097507   120.04939945   179.61162109
 H     10   9   8     2.037383878900   118.26643485   179.57888205

---------------------
BASIS SET INFORMATION
---------------------
There are 2 groups of distinct atoms

 Group   1 Type C   : 11s6p1d contracted to 5s3p1d pattern {62111/411/1}
 Group   2 Type H   : 4s1p contracted to 2s1p pattern {31/1}

Atom   0C    basis set group =>   1
Atom   1C    basis set group =>   1
Atom   2C    basis set group =>   1
Atom   3C    basis set group =>   1
Atom   4C    basis set group =>   1
Atom   5C    basis set group =>   1
Atom   6C    basis set group =>   1
Atom   7C    basis set group =>   1
Atom   8C    basis set group =>   1
Atom   9C    basis set group =>   1
Atom  10H    basis set group =>   2
Atom  11H    basis set group =>   2
Atom  12H    basis set group =>   2
Atom  13H    basis set group =>   2
Atom  14H    basis set group =>   2
Atom  15H    basis set group =>   2
Atom  16H    basis set group =>   2
Atom  17H    basis set group =>   2
Atom  18H    basis set group =>   2
Atom  19H    basis set group =>   2
Atom  20H    basis set group =>   2
Atom  21H    basis set group =>   2
Atom  22H    basis set group =>   2
Atom  23H    basis set group =>   2
---------------------------------
AUXILIARY/J BASIS SET INFORMATION
---------------------------------
There are 2 groups of distinct atoms

 Group   1 Type C   : 12s5p4d2f1g contracted to 6s4p3d1f1g pattern {711111/2111/211/2/1}
 Group   2 Type H   : 5s2p1d contracted to 3s1p1d pattern {311/2/1}

Atom   0C    basis set group =>   1
Atom   1C    basis set group =>   1
Atom   2C    basis set group =>   1
Atom   3C    basis set group =>   1
Atom   4C    basis set group =>   1
Atom   5C    basis set group =>   1
Atom   6C    basis set group =>   1
Atom   7C    basis set group =>   1
Atom   8C    basis set group =>   1
Atom   9C    basis set group =>   1
Atom  10H    basis set group =>   2
Atom  11H    basis set group =>   2
Atom  12H    basis set group =>   2
Atom  13H    basis set group =>   2
Atom  14H    basis set group =>   2
Atom  15H    basis set group =>   2
Atom  16H    basis set group =>   2
Atom  17H    basis set group =>   2
Atom  18H    basis set group =>   2
Atom  19H    basis set group =>   2
Atom  20H    basis set group =>   2
Atom  21H    basis set group =>   2
Atom  22H    basis set group =>   2
Atom  23H    basis set group =>   2

Checking for AutoStart:
The File: sp_solv.gbw exists
Trying to determine its content:
     ... Fine, the file contains calculation information
     ... Fine, the calculation information was read
     ... Fine, the file contains a basis set
     ... Fine, the basis set was read
     ... Fine, the file contains a geometry
     ... Fine, the geometry was read
     ... Fine, the file contains a set of orbitals
     ... Fine, the orbitals can be read
     => possible old guess file was deleted
     => GBW file was renamed to GES file
     => GES file is set as startup file
     => Guess is set to MORead
     ... now leaving AutoStart

------------------------------------------------------------------------------
                             ORCA STARTUP CALCULATIONS
                           -- RI-GTO INTEGRALS CHOSEN --
------------------------------------------------------------------------------
------------------------------------------------------------------------------
                   ___                                                        
                  /   \      - P O W E R E D   B Y -                         
                 /     \                                                     
                 |  |  |   _    _      __       _____    __    __             
                 |  |  |  | |  | |    /  \     |  _  \  |  |  /  |          
                  \  \/   | |  | |   /    \    | | | |  |  | /  /          
                 / \  \   | |__| |  /  /\  \   | |_| |  |  |/  /          
                |  |  |   |  __  | /  /__\  \  |    /   |      \           
                |  |  |   | |  | | |   __   |  |    \   |  |\   \          
                \     /   | |  | | |  |  |  |  | |\  \  |  | \   \       
                 \___/    |_|  |_| |__|  |__|  |_| \__\ |__|  \__/        
                                                                              
                      - O R C A' S   B I G   F R I E N D -                    
                                      &                                       
                       - I N T E G R A L  F E E D E R -                       
                                                                              
 v1 FN, 2020, v2 2021, v3 2022-2024                                           
------------------------------------------------------------------------------


----------------------
SHARK INTEGRAL PACKAGE
----------------------

Number of atoms                             ...     24
Number of basis functions                   ...    260
Number of shells                            ...    132
Maximum angular momentum                    ...      2
Integral batch strategy                     ... SHARK/LIBINT Hybrid
RI-J (if used) integral strategy            ... SPLIT-RIJ (Revised 2003 algorithm where possible)
Printlevel                                  ...      1
Contraction scheme used                     ... SEGMENTED contraction
Prescreening option                         ... SCHWARTZ
   Thresh                                   ... 1.000e-10
   Tcut                                     ... 1.000e-11
   Tpresel                                  ... 1.000e-11 
Coulomb Range Separation                    ... NOT USED
Exchange Range Separation                   ... NOT USED
Multipole approximations                    ... NOT USED
Finite Nucleus Model                        ... NOT USED
CABS basis                                  ... NOT available
Auxiliary Coulomb fitting basis             ... AVAILABLE
   # of basis functions in Aux-J            ...    644
   # of shells in Aux-J                     ...    220
   Maximum angular momentum in Aux-J        ...      4
Auxiliary J/K fitting basis                 ... NOT available
Auxiliary Correlation fitting basis         ... NOT available
Auxiliary 'external' fitting basis          ... NOT available

Checking pre-screening integrals            ... done (  0.0 sec) Dimension = 132
Check shell pair data                       ... done (  0.0 sec)
Shell pair information
Shell pair cut-off parameter TPreSel        ...   1.0e-11
Total number of shell pairs                 ...      8778
Shell pairs after pre-screening             ...      7739
Total number of primitive shell pairs       ...     31637
Primitive shell pairs kept                  ...     19396
          la=0 lb=0:   2667 shell pairs
          la=1 lb=0:   3052 shell pairs
          la=1 lb=1:    894 shell pairs
          la=2 lb=0:    681 shell pairs
          la=2 lb=1:    395 shell pairs
          la=2 lb=2:     50 shell pairs

Calculating one electron integrals          ... done (  0.0 sec)
Calculating RI/J V-Matrix + Cholesky decomp.... done (  0.1 sec)
Calculating Nuclear repulsion               ... done (  0.0 sec) ENN=    520.736230423501 Eh

Diagonalization of the overlap matrix:
Smallest eigenvalue                        ... 2.927e-05
Time for diagonalization                   ...    0.007 sec
Threshold for overlap eigenvalues          ... 1.000e-07
Number of eigenvalues below threshold      ... 0
Time for construction of square roots      ...    0.018 sec
Total time needed                          ...    0.034 sec

-------------------
DFT GRID GENERATION
-------------------

General Integration Accuracy     IntAcc      ... 4.388
Radial Grid Type                 RadialGrid  ... OptM3 with GC (2021)
Angular Grid (max. ang.)         AngularGrid ... 4 (Lebedev-302)
Angular grid pruning method      GridPruning ... 4 (adaptive)
Weight generation scheme         WeightScheme... mBecke (2022)
Basis function cutoff            BFCut       ... 1.0000e-10
Integration weight cutoff        WCut        ... 1.0000e-14
Partially contracted basis set               ... off
Rotationally invariant grid construction     ... off
Angular grids for H and He will be reduced by one unit

Total number of grid points                  ...   104371
Total number of batches                      ...     1642
Average number of points per batch           ...       63
Average number of grid points per atom       ...     4349
Initializing property integral containers    ... done (  0.0 sec)

SHARK setup successfully completed in   1.5 seconds

Maximum memory used throughout the entire STARTUP-calculation: 46.6 MB
-------------------------------------------------------------------------------
                                 ORCA GUESS
                   Start orbitals & Density for SCF / CASSCF
-------------------------------------------------------------------------------

------------
SCF SETTINGS
------------
Hamiltonian:
 Density Functional     Method          .... DFT(GTOs)
  Functional kind                       .... Exchange
  Functional name                       .... Re-regularized SCAN exchange by Furness et al
  Functional family                     .... MGGA
  Functional refs                              
    [ 0] J. W. Furness, A. D. Kaplan, J. Ning, J. P. Perdew, and J. Sun.,  J. Phys. Chem. Lett. 11, 8208-8215 (2020), doi: 10.1021/acs.jpclett.0c02405
    [ 1] J. W. Furness, A. D. Kaplan, J. Ning, J. P. Perdew, and J. Sun.,  J. Phys. Chem. Lett. 11, 9248-9248 (2020), doi: 10.1021/acs.jpclett.0c03077
  Functional external parameters        .... 6
    Parameter  0 _c1        =  6.670000e-01 : c1 parameter        
    Parameter  1 _c2        =  8.000000e-01 : c2 parameter        
    Parameter  2 _d         =  1.240000e+00 : d parameter         
    Parameter  3 _k1        =  6.500000e-02 : k1 parameter        
    Parameter  4 _eta       =  1.000000e-03 : eta parameter       
    Parameter  5 _dp2       =  3.610000e-01 : dp2 parameter       
  Functional kind                       .... Correlation
  Functional name                       .... Re-regularized SCAN correlation by Furness et al
  Functional family                     .... MGGA
  Functional refs                              
    [ 0] J. W. Furness, A. D. Kaplan, J. Ning, J. P. Perdew, and J. Sun.,  J. Phys. Chem. Lett. 11, 8208-8215 (2020), doi: 10.1021/acs.jpclett.0c02405
    [ 1] J. W. Furness, A. D. Kaplan, J. Ning, J. P. Perdew, and J. Sun.,  J. Phys. Chem. Lett. 11, 9248-9248 (2020), doi: 10.1021/acs.jpclett.0c03077
  Functional external parameters        .... 1
    Parameter  0 _eta       =  1.000000e-03 : Regularization parameter
 Gradients option       PostSCFGGA      .... off
 RI-approximation to the Coulomb term is turned on
   Number of AuxJ basis functions       .... 644


General Settings:
 Integral files         IntName         .... sp_solv
 Hartree-Fock type      HFTyp           .... RHF
 Total Charge           Charge          ....    0
 Multiplicity           Mult            ....    1
 Number of Electrons    NEL             ....   74
 Basis Dimension        Dim             ....  260
 Nuclear Repulsion      ENuc            ....    520.7362304235 Eh

Convergence Acceleration:
 AO-DIIS                CNVDIIS         .... on
   Start iteration      DIISMaxIt       ....    12
   Startup error        DIISStart       ....  0.200000
   # of expansion vecs  DIISMaxEq       ....     5
   Bias factor          DIISBfac        ....   1.050
   Max. coefficient     DIISMaxC        ....  10.000
 MO-DIIS                CNVKDIIS        .... off
 Trust-Rad. Augm. Hess. CNVTRAH         .... auto
   Auto Start mean grad. ratio tolernc. ....  1.125000
   Auto Start start iteration           ....     1
   Auto Start num. interpolation iter.  ....    10
   Max. Number of Micro iterations      ....    24
   Max. Number of Macro iterations      .... Maxiter - #DIIS iter
   Number of Davidson start vectors     ....     2
   Converg. threshold    (grad. norm)   ....   3.330e-04
   Grad. Scal. Fac. for Micro threshold ....   0.100
   Minimum threshold for Micro iter.    ....   1.000e-02
   NR start threshold (gradient norm)   ....   1.000e-04
   Initial trust radius                 ....   0.400
   Minimum AH scaling param. (alpha)    ....   1.000
   Maximum AH scaling param. (alpha)    .... 1000.000
   Quad. conv. algorithm                .... NR
   White noise on init. David. guess    .... on
   Maximum white noise                  ....   0.010
   Pseudo random numbers                .... off
   Inactive MOs                         .... canonical
   Orbital update algorithm             .... Taylor
   Preconditioner                       .... Diag
   Full preconditioner red. dimension   ....   250
   COSX micro iterations for RIJONX calc.... off
 SOSCF                  CNVSOSCF        .... on
   Start iteration      SOSCFMaxIt      ....   150
   Startup grad/error   SOSCFStart      ....  0.003300
   Hessian update       SOSCFHessUp     .... L-BFGS
 Level Shifting         CNVShift        .... on
   Level shift para.    LevelShift      ....    0.2500
   Turn off err/grad.   ShiftErr        ....    0.0010
 Zerner damping         CNVZerner       .... off
 Static damping         CNVDamp         .... on
   Fraction old density DampFac         ....    0.7000
   Max. Damping (<1)    DampMax         ....    0.9800
   Min. Damping (>=0)   DampMin         ....    0.0000
   Turn off err/grad.   DampErr         ....    0.1000

SCF Procedure:
 Maximum # iterations   MaxIter         ....   125
 SCF integral mode      SCFMode         .... Direct
   Integral package                     .... SHARK and LIBINT hybrid scheme
 Reset frequency        DirectResetFreq ....    20
 Integral Threshold     Thresh          ....  1.000e-10 Eh
 Primitive CutOff       TCut            ....  1.000e-11 Eh

Convergence Tolerance:
 Convergence Check Mode ConvCheckMode   .... Total+1el-Energy
 Convergence forced     ConvForced      .... 0
 Energy Change          TolE            ....  1.000e-06 Eh
 1-El. energy change                    ....  1.000e-03 Eh
 Orbital Gradient       TolG            ....  3.330e-04
 Orbital Rotation angle TolX            ....  3.330e-04
 DIIS Error             TolErr          ....  1.000e-06

---------------------
INITIAL GUESS: MOREAD
---------------------
Guess MOs are being read from file: sp_solv.ges
Input Geometry matches current geometry (good)
Atom 0: N(Shells)= 9 and 6 - projection required
Input basis set needs projection
NBasis(read)= 168
NBasis(calc)= 260
Basis set overlap was calculated
Using GuessMode=FMatrix for the initial guess
C*T matrix was formed
Effective Fockian was calculated
Effective Fockian was diagonalized
Initial density was built
                      ------------------
                      INITIAL GUESS DONE (   0.0 sec)
                      ------------------
             **** ENERGY FILE WAS UPDATED (sp_solv.en.tmp) ****
Finished Guess after   0.3 sec
Maximum memory used throughout the entire GUESS-calculation: 19.9 MB

-------------------------------------------------------------------------------------------
                                      ORCA LEAN-SCF
                              memory conserving SCF solver
-------------------------------------------------------------------------------------------

--------------------
CPCM SOLVATION MODEL
--------------------
CPCM parameters:
  Epsilon                                         ...      78.3550
  Refrac                                          ...       1.3328
  Rsolv                                           ...       1.3000
  Surface type                                    ... GAUSSIAN VDW
  Discretization scheme                           ... Constant charge density
    Threshold for H atoms                         ...       5.0000 (charges/Ang^2)
    Threshold for non-H atoms                     ...       5.0000 (charges/Ang^2)
  Epsilon function type                           ...         CPCM
Solvent:                                          ... WATER
SMD-CDS solvent descriptors:
  Soln                                            ...       1.3328
  Soln25                                          ...       1.3323
  Sola                                            ...       0.0000
  Solb                                            ...       0.0000
  Solg                                            ...       0.0000
  Solc                                            ...       0.0000
  Solh                                            ...       0.0000
Radii:
  Scheme                                          ... Element-dependent radii
  Radius for C  used is    3.4960 Bohr (=   1.8500 Ang.)
  Radius for H  used is    2.2677 Bohr (=   1.2000 Ang.)
Calculating surface                               ...        done! (  0.0s)
Cavity surface points                             ...         1739
Cavity Volume                                     ...    1085.8354
Cavity Surface-area                               ...     657.9275
Calculating surface distance matrix               ...        done! (  0.0s)
Performing Cholesky decomposition & store         ...        done! (  0.1s)
Overall time for CPCM initialization              ...                 0.1s

----------------------------------------D-I-I-S--------------------------------------------
Iteration    Energy (Eh)           Delta-E    RMSDP     MaxDP     DIISErr   Damp  Time(sec)
-------------------------------------------------------------------------------------------
               ***  Starting incremental Fock matrix formation  ***
    1    -389.1952984828612898     0.00e+00  9.35e-03  3.64e-01  2.88e-01  0.700   4.7
    2    -389.2519856982569308    -5.67e-02  6.89e-03  2.61e-01  2.02e-01  0.700   4.2
                               ***Turning on AO-DIIS***
    3    -389.2921032325050419    -4.01e-02  4.90e-03  1.81e-01  1.42e-01  0.700   4.1
    4    -389.3202815972606459    -2.82e-02  3.45e-03  1.26e-01  9.92e-02  0.700   4.0
    5    -389.3400562010200474    -1.98e-02  8.06e-03  2.93e-01  6.94e-02  0.000   3.9
                              *** Initializing SOSCF ***
---------------------------------------S-O-S-C-F--------------------------------------
Iteration    Energy (Eh)           Delta-E    RMSDP     MaxDP     MaxGrad    Time(sec)
--------------------------------------------------------------------------------------
    6    -389.3863716400162502    -4.63e-02  7.46e-05  1.82e-03  2.44e-04     4.2
               *** Restarting incremental Fock matrix formation ***
    7    -389.3863734674986290    -1.83e-06  3.83e-05  1.14e-03  1.42e-04     4.7
    8    -389.3863730626501365     4.05e-07  1.14e-05  2.73e-04  2.42e-04     3.7
                 **** Energy Check signals convergence ****

               *****************************************************
               *                     SUCCESS                       *
               *           SCF CONVERGED AFTER   8 CYCLES          *
               *****************************************************


SMD CDS free energy correction energy :                 4.31795     Kcal/mol
Total Energy after SMD CDS correction =              -389.379491976 Eh
             **** ENERGY FILE WAS UPDATED (sp_solv.en.tmp) ****

----------------
TOTAL SCF ENERGY
----------------

Total Energy       :       -389.37949197639284 Eh          -10595.55464 eV

Components:
Nuclear Repulsion  :        520.73623042350118 Eh           14169.95322 eV
Electronic Energy  :       -910.11397604942647 Eh          -24765.46034 eV
One Electron Energy:      -1556.41635711690265 Eh          -42352.24222 eV
Two Electron Energy:        646.30238106747618 Eh           17586.78188 eV
CPCM Dielectric    :         -0.00862743672481 Eh              -0.23476 eV
SMD CDS (Gcds)     :          0.00688108625728 Eh               0.18724 eV

Virial components:
Potential Energy   :       -777.12690258514226 Eh          -21146.69810 eV
Kinetic Energy     :        387.74741060874942 Eh           10551.14345 eV
Virial Ratio       :          2.00420913543970

DFT components:
N(Alpha)           :       37.000104345310 electrons
N(Beta)            :       37.000104345310 electrons
N(Total)           :       74.000208690620 electrons
E(X)               :      -57.083766690585 Eh       
E(C)               :       -2.339496238555 Eh       
E(XC)              :      -59.423262929140 Eh       

CPCM Solvation Model Properties:
Surface-charge          :         -0.05233117869496
Corrected charge        :         -0.00000000000000
Outlying charge corr.   :          0.00019743536394 Eh               0.00537 eV
Free-energy (cav+disp)  :          0.00688108625728 Eh               0.18724 eV

---------------
SCF CONVERGENCE
---------------

  Last Energy change         ...   -4.0485e-07  Tolerance :   1.0000e-06
  Last MAX-Density change    ...    2.7346e-04  Tolerance :   1.0000e-05
  Last RMS-Density change    ...    1.1437e-05  Tolerance :   1.0000e-06
  Last DIIS Error            ...    2.4385e-04  Tolerance :   1.0000e-06
  Last Orbital Gradient      ...    2.4237e-04  Tolerance :   3.3300e-04
  Last Orbital Rotation      ...    4.0092e-04  Tolerance :   3.3300e-04


----------------
ORBITAL ENERGIES
----------------

  NO   OCC          E(Eh)            E(eV) 
   0   2.0000     -10.045123      -273.3417 
   1   2.0000     -10.038910      -273.1726 
   2   2.0000     -10.029539      -272.9176 
   3   2.0000     -10.029475      -272.9159 
   4   2.0000     -10.027431      -272.8603 
   5   2.0000     -10.026836      -272.8441 
   6   2.0000     -10.026802      -272.8432 
   7   2.0000     -10.010713      -272.4054 
   8   2.0000     -10.008455      -272.3439 
   9   2.0000     -10.008360      -272.3413 
  10   2.0000      -0.830133       -22.5891 
  11   2.0000      -0.779797       -21.2193 
  12   2.0000      -0.712653       -19.3923 
  13   2.0000      -0.700445       -19.0601 
  14   2.0000      -0.646985       -17.6054 
  15   2.0000      -0.646348       -17.5880 
  16   2.0000      -0.578088       -15.7306 
  17   2.0000      -0.565562       -15.3897 
  18   2.0000      -0.513416       -13.9708 
  19   2.0000      -0.474495       -12.9117 
  20   2.0000      -0.424877       -11.5615 
  21   2.0000      -0.420498       -11.4423 
  22   2.0000      -0.409120       -11.1327 
  23   2.0000      -0.400836       -10.9073 
  24   2.0000      -0.388783       -10.5793 
  25   2.0000      -0.381528       -10.3819 
  26   2.0000      -0.362403        -9.8615 
  27   2.0000      -0.339565        -9.2400 
  28   2.0000      -0.336940        -9.1686 
  29   2.0000      -0.334251        -9.0954 
  30   2.0000      -0.325922        -8.8688 
  31   2.0000      -0.312023        -8.4906 
  32   2.0000      -0.296585        -8.0705 
  33   2.0000      -0.283961        -7.7270 
  34   2.0000      -0.280134        -7.6228 
  35   2.0000      -0.236444        -6.4340 
  36   2.0000      -0.226791        -6.1713 
  37   0.0000      -0.030226        -0.8225 
  38   0.0000      -0.028376        -0.7721 
  39   0.0000       0.081715         2.2236 
  40   0.0000       0.099641         2.7114 
  41   0.0000       0.114570         3.1176 
  42   0.0000       0.121624         3.3096 
  43   0.0000       0.127613         3.4725 
  44   0.0000       0.128594         3.4992 
  45   0.0000       0.137788         3.7494 
  46   0.0000       0.147146         4.0040 
  47   0.0000       0.152529         4.1505 
*Only the first 10 virtual orbitals were printed.

                    ********************************
                    * MULLIKEN POPULATION ANALYSIS *
                    ********************************

-----------------------
MULLIKEN ATOMIC CHARGES
-----------------------
   0 C :   -0.576800
   1 C :    0.230175
   2 C :   -0.570107
   3 C :   -0.543552
   4 C :    0.118962
   5 C :   -0.232352
   6 C :   -0.208773
   7 C :   -0.190892
   8 C :   -0.207312
   9 C :   -0.240863
  10 H :    0.173674
  11 H :    0.179575
  12 H :    0.168718
  13 H :    0.173178
  14 H :    0.168254
  15 H :    0.178096
  16 H :    0.172662
  17 H :    0.165938
  18 H :    0.172130
  19 H :    0.171131
  20 H :    0.175027
  21 H :    0.176901
  22 H :    0.175040
  23 H :    0.171190
Sum of atomic charges:    0.0000000

--------------------------------
MULLIKEN REDUCED ORBITAL CHARGES
--------------------------------
  0 C s       :     3.393897  s :     3.393897
      pz      :     0.953840  p :     3.155957
      px      :     1.098783
      py      :     1.103334
      dz2     :     0.006705  d :     0.026946
      dxz     :     0.004382
      dyz     :     0.006637
      dx2y2   :     0.007463
      dxy     :     0.001759

  1 C s       :     2.912402  s :     2.912402
      pz      :     0.926231  p :     2.802569
      px      :     0.954701
      py      :     0.921636
      dz2     :     0.011970  d :     0.054854
      dxz     :     0.008769
      dyz     :     0.011387
      dx2y2   :     0.013975
      dxy     :     0.008753

  2 C s       :     3.386678  s :     3.386678
      pz      :     1.099893  p :     3.156489
      px      :     1.098990
      py      :     0.957606
      dz2     :     0.006786  d :     0.026940
      dxz     :     0.001787
      dyz     :     0.006251
      dx2y2   :     0.007778
      dxy     :     0.004338

  3 C s       :     3.364928  s :     3.364928
      pz      :     1.031091  p :     3.151428
      px      :     1.099838
      py      :     1.020498
      dz2     :     0.007728  d :     0.027195
      dxz     :     0.003170
      dyz     :     0.005073
      dx2y2   :     0.008054
      dxy     :     0.003170

  4 C s       :     3.170451  s :     3.170451
      pz      :     0.909116  p :     2.663570
      px      :     0.833393
      py      :     0.921062
      dz2     :     0.008394  d :     0.047017
      dxz     :     0.011788
      dyz     :     0.006514
      dx2y2   :     0.009810
      dxy     :     0.010511

  5 C s       :     3.244129  s :     3.244129
      pz      :     1.003571  p :     2.950893
      px      :     0.952063
      py      :     0.995258
      dz2     :     0.005397  d :     0.037330
      dxz     :     0.009752
      dyz     :     0.004838
      dx2y2   :     0.008372
      dxy     :     0.008971

  6 C s       :     3.236685  s :     3.236685
      pz      :     0.989853  p :     2.933962
      px      :     0.945688
      py      :     0.998421
      dz2     :     0.005685  d :     0.038126
      dxz     :     0.010075
      dyz     :     0.004983
      dx2y2   :     0.008286
      dxy     :     0.009097

  7 C s       :     3.224196  s :     3.224196
      pz      :     0.941231  p :     2.928913
      px      :     1.033869
      py      :     0.953813
      dz2     :     0.008101  d :     0.037783
      dxz     :     0.007780
      dyz     :     0.006628
      dx2y2   :     0.008707
      dxy     :     0.006567

  8 C s       :     3.236007  s :     3.236007
      pz      :     1.000065  p :     2.933171
      px      :     0.944819
      py      :     0.988286
      dz2     :     0.005631  d :     0.038135
      dxz     :     0.010028
      dyz     :     0.004954
      dx2y2   :     0.008368
      dxy     :     0.009153

  9 C s       :     3.245543  s :     3.245543
      pz      :     0.997323  p :     2.958005
      px      :     0.959877
      py      :     1.000805
      dz2     :     0.005556  d :     0.037315
      dxz     :     0.009950
      dyz     :     0.004841
      dx2y2   :     0.008186
      dxy     :     0.008781

 10 H s       :     0.808079  s :     0.808079
      pz      :     0.003485  p :     0.018247
      px      :     0.010910
      py      :     0.003852

 11 H s       :     0.802257  s :     0.802257
      pz      :     0.007239  p :     0.018168
      px      :     0.004744
      py      :     0.006185

 12 H s       :     0.812798  s :     0.812798
      pz      :     0.004020  p :     0.018485
      px      :     0.004039
      py      :     0.010426

 13 H s       :     0.808573  s :     0.808573
      pz      :     0.003831  p :     0.018248
      px      :     0.010929
      py      :     0.003489

 14 H s       :     0.813228  s :     0.813228
      pz      :     0.010600  p :     0.018518
      px      :     0.004080
      py      :     0.003838

 15 H s       :     0.803735  s :     0.803735
      pz      :     0.005873  p :     0.018169
      px      :     0.004756
      py      :     0.007540

 16 H s       :     0.809157  s :     0.809157
      pz      :     0.009860  p :     0.018182
      px      :     0.004492
      py      :     0.003829

 17 H s       :     0.815834  s :     0.815834
      pz      :     0.003587  p :     0.018228
      px      :     0.011068
      py      :     0.003573

 18 H s       :     0.809694  s :     0.809694
      pz      :     0.004026  p :     0.018176
      px      :     0.004447
      py      :     0.009704

 19 H s       :     0.808676  s :     0.808676
      pz      :     0.007789  p :     0.020193
      px      :     0.005621
      py      :     0.006783

 20 H s       :     0.805519  s :     0.805519
      pz      :     0.007323  p :     0.019454
      px      :     0.005318
      py      :     0.006814

 21 H s       :     0.803557  s :     0.803557
      pz      :     0.003510  p :     0.019541
      px      :     0.012392
      py      :     0.003639

 22 H s       :     0.805505  s :     0.805505
      pz      :     0.007585  p :     0.019455
      px      :     0.005335
      py      :     0.006535

 23 H s       :     0.808648  s :     0.808648
      pz      :     0.007610  p :     0.020163
      px      :     0.005591
      py      :     0.006962


------------------------
MULLIKEN OVERLAP CHARGES
------------------------
B(  0-C ,  1-C ) :   0.5147 B(  0-C ,  2-C ) :  -0.3316 B(  0-C ,  3-C ) :  -0.2646 
B(  0-C ,  4-C ) :  -0.1857 B(  0-C , 10-H ) :   0.8396 B(  0-C , 11-H ) :   0.8376 
B(  0-C , 12-H ) :   0.7832 B(  1-C ,  2-C ) :   0.5361 B(  1-C ,  3-C ) :   0.6185 
B(  1-C ,  4-C ) :  -0.1541 B(  1-C ,  5-C ) :  -0.1596 B(  1-C ,  9-C ) :  -0.1550 
B(  1-C , 10-H ) :  -0.1146 B(  1-C , 11-H ) :  -0.1148 B(  1-C , 13-H ) :  -0.1173 
B(  1-C , 15-H ) :  -0.1107 B(  1-C , 17-H ) :  -0.1219 B(  2-C ,  3-C ) :  -0.2695 
B(  2-C ,  4-C ) :  -0.1952 B(  2-C , 13-H ) :   0.8394 B(  2-C , 14-H ) :   0.7845 
B(  2-C , 15-H ) :   0.8318 B(  3-C ,  4-C ) :  -0.2315 B(  3-C , 16-H ) :   0.8198 
B(  3-C , 17-H ) :   0.8059 B(  3-C , 18-H ) :   0.8202 B(  4-C ,  5-C ) :   0.9036 
B(  4-C ,  6-C ) :  -0.1279 B(  4-C ,  7-C ) :  -0.0747 B(  4-C ,  8-C ) :  -0.1259 
B(  4-C ,  9-C ) :   0.9004 B(  4-C , 19-H ) :  -0.0971 B(  4-C , 23-H ) :  -0.1049 
B(  5-C ,  6-C ) :   0.8751 B(  5-C ,  7-C ) :  -0.1477 B(  5-C ,  8-C ) :  -0.1523 
B(  5-C , 19-H ) :   0.8459 B(  5-C , 20-H ) :  -0.0768 B(  6-C ,  7-C ) :   0.8963 
B(  6-C ,  8-C ) :  -0.1199 B(  6-C ,  9-C ) :  -0.1549 B(  6-C , 19-H ) :  -0.0614 
B(  6-C , 20-H ) :   0.8385 B(  6-C , 21-H ) :  -0.0794 B(  7-C ,  8-C ) :   0.8982 
B(  7-C ,  9-C ) :  -0.1484 B(  7-C , 20-H ) :  -0.0814 B(  7-C , 21-H ) :   0.8365 
B(  7-C , 22-H ) :  -0.0811 B(  8-C ,  9-C ) :   0.8745 B(  8-C , 21-H ) :  -0.0797 
B(  8-C , 22-H ) :   0.8385 B(  8-C , 23-H ) :  -0.0579 B(  9-C , 22-H ) :  -0.0769 
B(  9-C , 23-H ) :   0.8466 


                     *******************************
                     * LOEWDIN POPULATION ANALYSIS *
                     *******************************

----------------------
LOEWDIN ATOMIC CHARGES
----------------------
   0 C :   -0.407808
   1 C :   -0.183324
   2 C :   -0.406787
   3 C :   -0.393836
   4 C :   -0.080921
   5 C :   -0.167506
   6 C :   -0.175606
   7 C :   -0.187175
   8 C :   -0.175513
   9 C :   -0.167136
  10 H :    0.161945
  11 H :    0.163935
  12 H :    0.159760
  13 H :    0.161765
  14 H :    0.159559
  15 H :    0.163897
  16 H :    0.161727
  17 H :    0.160825
  18 H :    0.161705
  19 H :    0.181188
  20 H :    0.176177
  21 H :    0.175890
  22 H :    0.176210
  23 H :    0.181028

-------------------------------
LOEWDIN REDUCED ORBITAL CHARGES
-------------------------------
  0 C s       :     2.965234  s :     2.965234
      pz      :     1.081077  p :     3.379563
      px      :     1.145652
      py      :     1.152834
      dz2     :     0.015584  d :     0.063012
      dxz     :     0.009869
      dyz     :     0.015059
      dx2y2   :     0.018293
      dxy     :     0.004207

  1 C s       :     2.872081  s :     2.872081
      pz      :     1.077730  p :     3.203384
      px      :     1.048340
      py      :     1.077313
      dz2     :     0.023845  d :     0.107860
      dxz     :     0.016664
      dyz     :     0.022482
      dx2y2   :     0.028373
      dxy     :     0.016495

  2 C s       :     2.965345  s :     2.965345
      pz      :     1.150639  p :     3.378418
      px      :     1.145749
      py      :     1.082030
      dz2     :     0.016569  d :     0.063024
      dxz     :     0.004242
      dyz     :     0.014177
      dx2y2   :     0.018247
      dxy     :     0.009790

  3 C s       :     2.967454  s :     2.967454
      pz      :     1.112551  p :     3.362875
      px      :     1.142761
      py      :     1.107563
      dz2     :     0.017802  d :     0.063507
      dxz     :     0.007249
      dyz     :     0.012094
      dx2y2   :     0.019168
      dxy     :     0.007193

  4 C s       :     2.867770  s :     2.867770
      pz      :     1.037990  p :     3.115321
      px      :     1.061402
      py      :     1.015929
      dz2     :     0.016929  d :     0.097829
      dxz     :     0.024495
      dyz     :     0.013934
      dx2y2   :     0.021192
      dxy     :     0.021279

  5 C s       :     2.895398  s :     2.895398
      pz      :     1.054241  p :     3.190199
      px      :     1.095009
      py      :     1.040949
      dz2     :     0.011125  d :     0.081909
      dxz     :     0.021952
      dyz     :     0.010082
      dx2y2   :     0.018977
      dxy     :     0.019773

  6 C s       :     2.906637  s :     2.906637
      pz      :     1.049807  p :     3.185960
      px      :     1.101426
      py      :     1.034727
      dz2     :     0.011525  d :     0.083009
      dxz     :     0.022748
      dyz     :     0.010265
      dx2y2   :     0.018566
      dxy     :     0.019906

  7 C s       :     2.906843  s :     2.906843
      pz      :     1.052315  p :     3.197927
      px      :     1.107577
      py      :     1.038035
      dz2     :     0.016725  d :     0.082404
      dxz     :     0.017496
      dyz     :     0.014342
      dx2y2   :     0.019515
      dxy     :     0.014325

  8 C s       :     2.906597  s :     2.906597
      pz      :     1.051398  p :     3.185884
      px      :     1.101461
      py      :     1.033025
      dz2     :     0.011492  d :     0.083031
      dxz     :     0.022593
      dyz     :     0.010201
      dx2y2   :     0.018661
      dxy     :     0.020083

  9 C s       :     2.895385  s :     2.895385
      pz      :     1.054551  p :     3.189866
      px      :     1.095285
      py      :     1.040029
      dz2     :     0.011551  d :     0.081885
      dxz     :     0.022591
      dyz     :     0.010074
      dx2y2   :     0.018509
      dxy     :     0.019159

 10 H s       :     0.793894  s :     0.793894
      pz      :     0.007976  p :     0.044161
      px      :     0.027599
      py      :     0.008586

 11 H s       :     0.791875  s :     0.791875
      pz      :     0.017930  p :     0.044191
      px      :     0.011109
      py      :     0.015151

 12 H s       :     0.795486  s :     0.795486
      pz      :     0.009436  p :     0.044753
      px      :     0.009140
      py      :     0.026178

 13 H s       :     0.794069  s :     0.794069
      pz      :     0.008547  p :     0.044166
      px      :     0.027651
      py      :     0.007968

 14 H s       :     0.795615  s :     0.795615
      pz      :     0.026621  p :     0.044826
      px      :     0.009244
      py      :     0.008962

 15 H s       :     0.791936  s :     0.791936
      pz      :     0.014302  p :     0.044167
      px      :     0.011140
      py      :     0.018724

 16 H s       :     0.794131  s :     0.794131
      pz      :     0.024876  p :     0.044142
      px      :     0.010422
      py      :     0.008844

 17 H s       :     0.794961  s :     0.794961
      pz      :     0.008122  p :     0.044214
      px      :     0.027993
      py      :     0.008100

 18 H s       :     0.794191  s :     0.794191
      pz      :     0.009355  p :     0.044104
      px      :     0.010300
      py      :     0.024449

 19 H s       :     0.772196  s :     0.772196
      pz      :     0.018122  p :     0.046616
      px      :     0.012806
      py      :     0.015688

 20 H s       :     0.778468  s :     0.778468
      pz      :     0.017114  p :     0.045355
      px      :     0.012398
      py      :     0.015843

 21 H s       :     0.778476  s :     0.778476
      pz      :     0.007934  p :     0.045634
      px      :     0.029505
      py      :     0.008195

 22 H s       :     0.778438  s :     0.778438
      pz      :     0.017754  p :     0.045352
      px      :     0.012436
      py      :     0.015162

 23 H s       :     0.772428  s :     0.772428
      pz      :     0.017667  p :     0.046544
      px      :     0.012752
      py      :     0.016125


---------------------------------
LOEWDIN BOND ORDERS (THRESH 0.050000)
---------------------------------
B(  0-C ,  1-C ) :   1.0708 B(  0-C ,  2-C ) :   0.0746 B(  0-C ,  3-C ) :   0.0699 
B(  0-C ,  4-C ) :   0.0663 B(  0-C , 10-H ) :   0.9133 B(  0-C , 11-H ) :   0.9148 
B(  0-C , 12-H ) :   0.9138 B(  1-C ,  2-C ) :   1.0698 B(  1-C ,  3-C ) :   1.0636 
B(  1-C ,  4-C ) :   1.0015 B(  1-C ,  5-C ) :   0.0795 B(  1-C ,  9-C ) :   0.0795 
B(  2-C ,  3-C ) :   0.0695 B(  2-C ,  4-C ) :   0.0669 B(  2-C , 13-H ) :   0.9135 
B(  2-C , 14-H ) :   0.9138 B(  2-C , 15-H ) :   0.9151 B(  3-C ,  4-C ) :   0.0776 
B(  3-C , 16-H ) :   0.9149 B(  3-C , 17-H ) :   0.9146 B(  3-C , 18-H ) :   0.9153 
B(  4-C ,  5-C ) :   1.4308 B(  4-C ,  6-C ) :   0.0899 B(  4-C ,  7-C ) :   0.1260 
B(  4-C ,  8-C ) :   0.0898 B(  4-C ,  9-C ) :   1.4283 B(  4-C , 19-H ) :   0.0506 
B(  4-C , 23-H ) :   0.0506 B(  5-C ,  6-C ) :   1.5145 B(  5-C ,  7-C ) :   0.0899 
B(  5-C ,  8-C ) :   0.1305 B(  5-C ,  9-C ) :   0.0862 B(  5-C , 19-H ) :   0.8551 
B(  5-C , 20-H ) :   0.0554 B(  6-C ,  7-C ) :   1.5093 B(  6-C ,  8-C ) :   0.0891 
B(  6-C ,  9-C ) :   0.1309 B(  6-C , 19-H ) :   0.0541 B(  6-C , 20-H ) :   0.8696 
B(  6-C , 21-H ) :   0.0542 B(  7-C ,  8-C ) :   1.5072 B(  7-C ,  9-C ) :   0.0899 
B(  7-C , 20-H ) :   0.0539 B(  7-C , 21-H ) :   0.8717 B(  7-C , 22-H ) :   0.0538 
B(  8-C ,  9-C ) :   1.5170 B(  8-C , 21-H ) :   0.0542 B(  8-C , 22-H ) :   0.8696 
B(  8-C , 23-H ) :   0.0541 B(  9-C , 22-H ) :   0.0555 B(  9-C , 23-H ) :   0.8553 


------------------------------------------
LOEWDIN REDUCED ORBITAL POPULATIONS PER MO
-------------------------------------------
THRESHOLD FOR PRINTING IS 0.1%%
                      0         1         2         3         4         5   
                 -10.04512 -10.03891 -10.02954 -10.02947 -10.02743 -10.02684
                   2.00000   2.00000   2.00000   2.00000   2.00000   2.00000
                  --------  --------  --------  --------  --------  --------
 1 C  s              99.6       0.0       0.0       0.0       0.0       0.0
 4 C  s               0.0      99.5       0.0       0.0       0.0       0.0
 5 C  s               0.0       0.1       0.1       0.7       0.2       4.2
 5 C  px              0.0       0.0       0.0       0.1       0.0       0.0
 6 C  s               0.0       0.0      14.8      82.7       1.2       0.0
 7 C  s               0.0       0.0       2.2       0.4      96.8       0.1
 7 C  pz              0.0       0.0       0.0       0.1       0.0       0.0
 8 C  s               0.0       0.0      81.9      15.7       1.2       0.8
 8 C  px              0.0       0.0       0.0       0.0       0.0       0.1
 9 C  s               0.0       0.1       0.6       0.1       0.2      94.5
 9 C  px              0.0       0.0       0.1       0.0       0.0       0.0

                      6         7         8         9        10        11   
                 -10.02680 -10.01071 -10.00846 -10.00836  -0.83013  -0.77980
                   2.00000   2.00000   2.00000   2.00000   2.00000   2.00000
                  --------  --------  --------  --------  --------  --------
 0 C  s               0.0       0.0       0.1      99.6       1.4       7.6
 0 C  pz              0.0       0.0       0.0       0.0       0.6       2.1
 0 C  px              0.0       0.0       0.0       0.0       0.3       0.2
 0 C  py              0.0       0.0       0.0       0.0       0.0       0.1
 1 C  s               0.0       0.0       0.0       0.0       6.3      20.3
 1 C  px              0.0       0.0       0.0       0.0       1.1       0.3
 2 C  s               0.0       0.0      99.6       0.1       1.4       7.6
 2 C  pz              0.0       0.0       0.0       0.0       0.0       0.2
 2 C  px              0.0       0.0       0.0       0.0       0.3       0.2
 2 C  py              0.0       0.0       0.0       0.0       0.6       2.1
 3 C  s               0.0      99.7       0.0       0.0       1.4       7.7
 3 C  pz              0.0       0.0       0.0       0.0       0.4       1.1
 3 C  px              0.0       0.0       0.0       0.0       0.2       0.2
 3 C  py              0.0       0.0       0.0       0.0       0.4       1.2
 4 C  s               0.1       0.0       0.0       0.0      15.8       2.0
 4 C  px              0.0       0.0       0.0       0.0       0.6       7.4
 4 C  dyz             0.0       0.0       0.0       0.0       0.1       0.0
 5 C  s              94.4       0.0       0.0       0.0      11.5       0.4
 5 C  pz              0.0       0.0       0.0       0.0       1.3       0.0
 5 C  px              0.0       0.0       0.0       0.0       0.2       3.2
 5 C  py              0.0       0.0       0.0       0.0       1.0       0.0
 6 C  s               0.8       0.0       0.0       0.0       9.2       5.0
 6 C  pz              0.0       0.0       0.0       0.0       0.9       0.6
 6 C  px              0.1       0.0       0.0       0.0       0.8       0.1
 6 C  py              0.0       0.0       0.0       0.0       0.7       0.4
 7 C  s               0.2       0.0       0.0       0.0       8.5       7.5
 7 C  px              0.0       0.0       0.0       0.0       2.3       0.8
 8 C  s               0.0       0.0       0.0       0.0       9.2       4.9
 8 C  pz              0.0       0.0       0.0       0.0       0.9       0.6
 8 C  px              0.0       0.0       0.0       0.0       0.8       0.1
 8 C  py              0.0       0.0       0.0       0.0       0.7       0.5
 9 C  s               4.1       0.0       0.0       0.0      11.5       0.4
 9 C  pz              0.0       0.0       0.0       0.0       1.3       0.0
 9 C  px              0.0       0.0       0.0       0.0       0.2       3.2
 9 C  py              0.0       0.0       0.0       0.0       1.0       0.0
10 H  s               0.0       0.0       0.0       0.0       0.1       1.0
11 H  s               0.0       0.0       0.0       0.0       0.1       0.9
12 H  s               0.0       0.0       0.0       0.0       0.2       0.9
13 H  s               0.0       0.0       0.0       0.0       0.1       1.0
14 H  s               0.0       0.0       0.0       0.0       0.2       0.9
15 H  s               0.0       0.0       0.0       0.0       0.1       0.9
16 H  s               0.0       0.0       0.0       0.0       0.1       0.9
17 H  s               0.0       0.0       0.0       0.0       0.1       1.0
18 H  s               0.0       0.0       0.0       0.0       0.1       0.9
19 H  s               0.0       0.0       0.0       0.0       1.1       0.0
20 H  s               0.0       0.0       0.0       0.0       0.8       0.5
21 H  s               0.0       0.0       0.0       0.0       0.7       0.8
22 H  s               0.0       0.0       0.0       0.0       0.8       0.5
23 H  s               0.0       0.0       0.0       0.0       1.1       0.0

                     12        13        14        15        16        17   
                  -0.71265  -0.70044  -0.64699  -0.64635  -0.57809  -0.56556
                   2.00000   2.00000   2.00000   2.00000   2.00000   2.00000
                  --------  --------  --------  --------  --------  --------
 0 C  s               0.3       3.2       8.1      20.6       1.6       1.2
 0 C  pz              0.0       0.3       0.5       0.5       0.4       0.1
 0 C  px              0.1       0.2       0.0       0.0       0.9       0.4
 0 C  py              0.0       0.0       0.5       0.5       0.1       0.0
 1 C  s               0.0       1.7       0.0       0.0       2.3       0.0
 1 C  pz              0.4       0.0       7.9       8.0       0.0       0.0
 1 C  px              0.0       6.3       0.1       0.0       7.1       0.0
 1 C  py              0.3       0.0       8.3       7.7       0.0       0.0
 1 C  dz2             0.0       0.0       0.0       0.2       0.0       0.0
 1 C  dyz             0.0       0.0       0.3       0.0       0.0       0.0
 1 C  dx2y2           0.0       0.1       0.0       0.1       0.1       0.0
 2 C  s               0.3       3.2       7.2      21.6       1.6       1.2
 2 C  pz              0.0       0.0       0.5       0.5       0.1       0.0
 2 C  px              0.1       0.2       0.0       0.0       0.9       0.3
 2 C  py              0.0       0.2       0.5       0.5       0.4       0.1
 3 C  s               0.0       2.9      29.6       0.0       2.3       0.0
 3 C  pz              0.0       0.1       0.5       0.5       0.3       0.0
 3 C  px              0.0       0.2       0.0       0.0       1.0       0.0
 3 C  py              0.0       0.1       0.5       0.5       0.3       0.0
 4 C  s               0.0      12.3       0.0       0.0       6.7       0.0
 4 C  pz              5.8       0.0       0.4       0.4       0.0       8.1
 4 C  px              0.0       2.2       0.0       0.0       3.9       0.0
 4 C  py              4.5       0.0       0.4       0.4       0.0       6.2
 4 C  dxz             0.1       0.0       0.0       0.0       0.0       0.1
 4 C  dyz             0.0       0.2       0.0       0.0       0.0       0.0
 4 C  dxy             0.1       0.0       0.0       0.0       0.0       0.1
 5 C  s              14.2       4.9       0.0       0.0       2.7       6.7
 5 C  pz              0.4       0.8       0.1       0.0       1.9       0.1
 5 C  px              1.8       2.8       0.0       1.0       4.0       5.4
 5 C  py              0.3       0.7       0.0       0.0       1.7       0.1
 5 C  dx2y2           0.1       0.0       0.0       0.0       0.0       0.0
 6 C  s              13.9       3.1       0.0       1.0       1.3       6.6
 6 C  pz              0.4       1.0       0.0       0.0       2.3       0.1
 6 C  px              2.0       5.3       0.0       0.0       5.9       5.6
 6 C  py              0.3       0.6       0.0       0.0       1.6       0.1
 6 C  dx2y2           0.1       0.0       0.0       0.0       0.1       0.0
 7 C  s               0.0      15.6       0.0       0.0       8.2       0.0
 7 C  pz              5.2       0.0       0.0       0.5       0.0       8.0
 7 C  px              0.0       0.2       0.0       0.0       2.4       0.0
 7 C  py              4.0       0.0       0.0       0.4       0.0       6.2
 7 C  dxz             0.2       0.0       0.0       0.0       0.0       0.1
 7 C  dyz             0.0       0.1       0.0       0.0       0.0       0.0
 7 C  dxy             0.1       0.0       0.0       0.0       0.0       0.1
 8 C  s              13.9       3.1       0.0       1.0       1.4       6.6
 8 C  pz              0.3       0.8       0.0       0.0       2.1       0.1
 8 C  px              2.0       5.3       0.0       0.0       5.9       5.6
 8 C  py              0.3       0.8       0.0       0.0       1.8       0.1
 8 C  dx2y2           0.1       0.0       0.0       0.0       0.1       0.0
 9 C  s              14.2       4.9       0.0       0.0       2.6       6.8
 9 C  pz              0.4       0.9       0.0       0.0       2.1       0.1
 9 C  px              1.8       2.8       0.0       1.0       4.0       5.3
 9 C  py              0.3       0.6       0.1       0.0       1.4       0.1
 9 C  dx2y2           0.1       0.0       0.0       0.0       0.0       0.0
10 H  s               0.0       0.7       2.0       4.4       1.0       0.6
10 H  px              0.0       0.1       0.2       0.4       0.1       0.0
11 H  s               0.1       0.5       2.3       4.6       0.4       0.3
11 H  pz              0.0       0.0       0.1       0.2       0.0       0.0
11 H  py              0.0       0.0       0.1       0.2       0.0       0.0
12 H  s               0.1       0.5       1.5       5.4       0.6       0.3
12 H  py              0.0       0.0       0.1       0.4       0.0       0.0
13 H  s               0.0       0.7       1.8       4.6       1.0       0.5
13 H  px              0.0       0.1       0.1       0.4       0.1       0.0
14 H  s               0.1       0.5       1.3       5.7       0.6       0.2
14 H  pz              0.0       0.0       0.1       0.5       0.0       0.0
15 H  s               0.0       0.5       2.1       4.9       0.4       0.3
15 H  pz              0.0       0.0       0.1       0.1       0.0       0.0
15 H  py              0.0       0.0       0.1       0.2       0.0       0.0
16 H  s               0.0       0.5       7.1       0.0       0.7       0.0
16 H  pz              0.0       0.0       0.5       0.0       0.0       0.0
17 H  s               0.0       0.6       6.5       0.0       1.4       0.0
17 H  px              0.0       0.1       0.6       0.0       0.1       0.0
18 H  s               0.0       0.5       7.1       0.1       0.7       0.0
18 H  py              0.0       0.0       0.5       0.0       0.0       0.0
19 H  s               2.6       0.7       0.0       0.0       1.3       3.5
19 H  pz              0.1       0.0       0.0       0.0       0.0       0.1
19 H  py              0.1       0.0       0.0       0.0       0.0       0.1
20 H  s               2.4       0.6       0.0       0.2       0.6       3.6
20 H  pz              0.1       0.0       0.0       0.0       0.0       0.1
20 H  py              0.1       0.0       0.0       0.0       0.0       0.1
21 H  s               0.0       2.9       0.0       0.0       4.1       0.0
21 H  px              0.0       0.3       0.0       0.0       0.3       0.0
22 H  s               2.4       0.6       0.0       0.2       0.6       3.6
22 H  pz              0.1       0.0       0.0       0.0       0.0       0.1
22 H  py              0.1       0.0       0.0       0.0       0.0       0.1
23 H  s               2.6       0.7       0.0       0.0       1.3       3.6
23 H  pz              0.1       0.0       0.0       0.0       0.0       0.1
23 H  py              0.1       0.0       0.0       0.0       0.0       0.1

                     18        19        20        21        22        23   
                  -0.51342  -0.47450  -0.42488  -0.42050  -0.40912  -0.40084
                   2.00000   2.00000   2.00000   2.00000   2.00000   2.00000
                  --------  --------  --------  --------  --------  --------
 0 C  s               1.6       0.5       0.3       0.2       0.0       0.1
 0 C  pz              2.7       5.1       1.9       5.9       0.5       0.0
 0 C  px              1.9       0.1       2.2       3.1       1.6       3.6
 0 C  py              0.1       0.8       0.3       0.1       6.8      11.2
 1 C  s               7.4       4.9       0.0       0.3       0.1       0.1
 1 C  pz              0.0       0.0       3.2       0.2       1.6       4.4
 1 C  px              1.6       2.5       0.0      11.9       0.9       0.0
 1 C  py              0.0       0.0       2.4       0.2       2.1       6.1
 2 C  s               1.6       0.5       0.3       0.2       0.1       0.2
 2 C  pz              0.2       1.1       0.4       0.1       6.8      10.0
 2 C  px              1.8       0.1       1.8       3.6       1.3       3.8
 2 C  py              2.7       4.7       2.3       5.6       0.3       0.1
 3 C  s               1.6       0.5       0.0       0.3       0.2       0.5
 3 C  pz              1.6       2.2       1.9       3.2       0.6       3.1
 3 C  px              1.2       0.1       0.0       4.6       4.4       1.9
 3 C  py              1.9       2.3       2.1       3.6       0.6       2.2
 3 C  dyz             0.1       0.1       0.0       0.1       0.0       0.0
 4 C  s               0.6       0.4       0.0       0.4       2.6       1.3
 4 C  pz              0.0       0.0       6.7       0.0       0.4       2.0
 4 C  px             11.6       0.1       0.0       3.4       2.5       0.4
 4 C  py              0.0       0.0       5.1       0.1       0.7       2.3
 4 C  dx2y2           0.1       0.2       0.0       0.1       0.0       0.0
 5 C  s               0.1       1.0       0.1       1.8       0.1       0.4
 5 C  pz              4.2       2.2       1.5       0.5       1.4       3.6
 5 C  px              0.3       5.2       8.8       1.0       0.3       0.1
 5 C  py              3.5       1.5       1.3       0.5       2.9       0.2
 5 C  dxz             0.0       0.0       0.0       0.0       0.2       0.1
 5 C  dxy             0.0       0.0       0.0       0.0       0.1       0.0
 6 C  s               2.2       0.4       0.0       1.4       0.4       0.4
 6 C  pz              4.1       1.1       1.1       0.3       4.9       0.8
 6 C  px              0.1       2.2      11.0       0.2       1.6       0.9
 6 C  py              3.3       1.0       0.6       0.2       2.8       2.4
 6 C  dxz             0.0       0.0       0.0       0.1       0.1       0.1
 6 C  dxy             0.0       0.0       0.0       0.0       0.1       0.0
 7 C  s               0.6       2.0       0.0       1.4       0.9       0.7
 7 C  pz              0.0       0.0       6.8       0.0       0.0       0.1
 7 C  px              0.4      14.9       0.0       7.8       5.7       0.2
 7 C  py              0.0       0.0       5.3       0.0       0.0       0.1
 8 C  s               2.2       0.4       0.0       1.4       0.4       0.4
 8 C  pz              4.2       1.2       1.0       0.2       3.6       2.6
 8 C  px              0.1       2.2      10.6       0.4       1.8       1.1
 8 C  py              3.1       0.8       1.0       0.2       3.8       0.4
 8 C  dxz             0.0       0.0       0.0       0.0       0.1       0.1
 9 C  s               0.1       1.0       0.1       1.9       0.1       0.4
 9 C  pz              4.5       2.0       1.5       0.8       3.4       0.4
 9 C  px              0.3       5.2       9.1       0.8       0.3       0.1
 9 C  py              3.2       1.7       1.1       0.4       0.9       3.3
 9 C  dxz             0.0       0.0       0.0       0.0       0.2       0.1
 9 C  dxy             0.0       0.0       0.0       0.0       0.1       0.1
10 H  s               1.8       0.1       1.4       0.7       0.7       1.2
11 H  s               0.9       1.0       0.6       3.2       0.1       2.3
11 H  pz              0.0       0.0       0.0       0.0       0.0       0.1
12 H  s               0.9       1.6       0.0       0.4       3.7       3.7
13 H  s               1.7       0.1       1.2       0.8       0.6       1.4
14 H  s               0.9       1.7       0.0       0.4       3.7       3.4
15 H  s               0.9       1.0       0.8       3.2       0.1       1.7
16 H  s               1.0       1.1       0.9       2.1       0.0       0.7
17 H  s               1.7       0.1       0.0       0.8       2.7       1.6
18 H  s               1.0       1.0       1.1       2.1       0.0       0.3
19 H  s               1.3       4.3       0.1       2.7       2.6       1.8
19 H  px              0.1       0.0       0.1       0.0       0.0       0.0
20 H  s               3.9       0.6       0.2       1.7       5.3       2.9
21 H  s               0.0       8.0       0.0       6.3       1.0       0.1
21 H  px              0.0       0.4       0.0       0.2       0.0       0.0
22 H  s               3.9       0.6       0.1       1.7       5.4       2.9
23 H  s               1.3       4.3       0.0       2.8       2.5       1.7
23 H  px              0.1       0.0       0.1       0.0       0.0       0.0

                     24        25        26        27        28        29   
                  -0.38878  -0.38153  -0.36240  -0.33956  -0.33694  -0.33425
                   2.00000   2.00000   2.00000   2.00000   2.00000   2.00000
                  --------  --------  --------  --------  --------  --------
 0 C  s               0.2       0.0       0.0       0.0       0.1       0.1
 0 C  pz              4.2       2.1       0.0       0.8       0.0       0.3
 0 C  px              0.2       0.7       3.1      21.3       1.7       8.6
 0 C  py              3.3       0.3       6.7       2.6       0.1       0.0
 0 C  dz2             0.0       0.0       0.0       0.1       0.0       0.1
 0 C  dx2y2           0.0       0.0       0.1       0.1       0.0       0.1
 1 C  s               0.0       0.0       0.0       0.0       0.3       0.2
 1 C  pz              2.6       1.0       0.1       1.7       0.1       0.1
 1 C  px              0.0       0.0       0.0       0.0       0.7       0.7
 1 C  py              1.8       0.7       0.1       1.2       0.3       0.0
 1 C  dxz             0.1       0.0       0.1       0.0       0.0       0.0
 1 C  dyz             0.0       0.0       0.1       0.0       0.0       0.0
 1 C  dx2y2           0.0       0.0       0.0       0.1       0.2       0.1
 1 C  dxy             0.0       0.0       0.2       0.0       0.0       0.0
 2 C  s               0.1       0.0       0.0       0.0       0.1       0.1
 2 C  pz              4.1       0.5       6.2       2.3       0.5       0.1
 2 C  px              0.1       0.8       4.0      23.0       0.1       7.4
 2 C  py              4.6       2.1       0.0       0.9       0.1       0.2
 2 C  dx2y2           0.0       0.0       0.0       0.3       0.0       0.1
 3 C  pz              9.9       3.8       0.5       0.2       0.0       0.3
 3 C  px              0.0       0.0      21.4       0.2      11.9       2.9
 3 C  py              9.5       3.8       0.5       0.2       0.0       0.5
 3 C  dx2y2           0.0       0.0       0.1       0.0       0.2       0.0
 4 C  s               0.0       0.0       0.1       0.0       0.5       0.3
 4 C  pz              2.8       0.2       3.5       0.2       0.8       1.2
 4 C  px              0.0       0.0       0.0       0.0       1.7       1.5
 4 C  py              2.3       0.2       4.6       0.1       1.2       1.4
 4 C  dxz             0.2       0.1       0.0       0.0       0.0       0.0
 4 C  dxy             0.2       0.1       0.0       0.0       0.0       0.0
 5 C  s               0.3       0.3       0.1       0.2       0.1       0.0
 5 C  pz              2.4       4.3       1.4       0.0       0.5       4.7
 5 C  px              0.3       6.8       0.1       1.1       4.6       2.1
 5 C  py              2.8       2.5       3.6       0.1       4.3       1.2
 6 C  s               0.1       0.4       0.1       0.1       0.1       0.0
 6 C  pz              3.1       3.5       1.8       0.0       4.0       2.5
 6 C  px              0.1       6.6       0.4       0.5       3.6       1.9
 6 C  py              2.6       3.0       1.3       0.0       2.6       5.5
[...]
 9 C  dxz             0.0       2.7       1.0       3.5       0.0       0.0
 9 C  dyz             0.2       1.9       0.8       1.3       0.0       0.0
 9 C  dx2y2           0.1       0.3       1.2       0.9       0.0       0.0
 9 C  dxy             0.0       2.0       0.8       2.5       0.0       0.0
10 H  s               0.3       0.0       1.9       0.0       0.0       0.0
10 H  px              0.8       0.0       4.6       0.0       0.0       0.0
11 H  s               1.9       0.2       0.0       0.0       0.0       0.0
11 H  pz              2.0       0.2       0.0       0.0       0.0       0.0
11 H  px              1.2       0.1       0.0       0.0       0.0       0.0
11 H  py              1.9       0.5       0.1       0.0       0.0       0.0
12 H  s               1.9       0.2       0.5       0.0       0.0       0.0
12 H  pz              0.6       0.0       0.2       0.0       0.0       0.0
12 H  py              3.4       0.8       0.7       0.0       0.0       0.0
13 H  s               0.5       0.1       1.8       0.0       0.0       0.0
13 H  px              1.2       0.0       4.1       0.0       0.0       0.0
14 H  s               2.8       0.2       0.3       0.0       0.0       0.0
14 H  pz              5.5       0.7       0.4       0.0       0.0       0.0
14 H  px              0.1       0.0       0.0       0.0       0.0       0.0
14 H  py              0.6       0.0       0.1       0.0       0.0       0.0
15 H  s               2.1       0.3       0.1       0.0       0.0       0.0
15 H  pz              1.6       0.5       0.2       0.0       0.0       0.0
15 H  px              1.4       0.1       0.0       0.0       0.0       0.0
15 H  py              2.6       0.3       0.1       0.0       0.0       0.0
16 H  s               0.0       0.0       2.5       0.0       0.0       0.0
16 H  pz              0.0       0.0       4.3       0.0       0.0       0.0
16 H  px              0.1       0.0       1.0       0.0       0.0       0.0
16 H  py              0.2       0.0       0.2       0.0       0.0       0.0
17 H  s               1.2       0.0       0.0       0.0       0.0       0.0
17 H  px              3.7       0.0       0.0       0.0       0.0       0.0
18 H  s               0.0       0.0       2.4       0.0       0.0       0.0
18 H  pz              0.2       0.0       0.3       0.0       0.0       0.0
18 H  px              0.2       0.0       0.9       0.0       0.0       0.0
18 H  py              0.0       0.0       4.0       0.0       0.0       0.0
19 H  s               0.1       3.1       0.0       2.1       0.0       0.0
19 H  pz              0.2       4.4       0.0       1.8       0.0       0.0
19 H  px              0.0       1.5       0.0       0.8       0.0       0.0
19 H  py              0.1       3.2       0.0       1.4       0.0       0.0
20 H  s               0.0       2.6       0.0       2.4       0.0       0.0
20 H  pz              0.0       3.4       0.1       1.8       0.0       0.0
20 H  px              0.1       1.4       0.0       1.2       0.0       0.0
20 H  py              0.0       2.8       0.1       1.5       0.0       0.0
21 H  s               0.1       0.0       0.0       2.8       0.0       0.0
21 H  pz              0.0       0.1       0.0       0.0       0.0       0.0
21 H  px              0.4       0.0       0.0       5.1       0.0       0.0
22 H  s               0.0       2.6       0.0       2.4       0.0       0.0
22 H  pz              0.1       3.6       0.1       1.9       0.0       0.0
22 H  px              0.1       1.4       0.0       1.2       0.0       0.0
22 H  py              0.0       2.6       0.0       1.3       0.0       0.0
23 H  s               0.1       3.1       0.0       2.1       0.0       0.0
23 H  pz              0.1       4.2       0.0       1.8       0.0       0.0
23 H  px              0.0       1.5       0.0       0.8       0.0       0.0
23 H  py              0.1       3.4       0.0       1.4       0.0       0.0

                    252       253       254       255       256       257   
                  21.98425  21.99065  22.06573  22.11764  22.15470  22.21219
                   0.00000   0.00000   0.00000   0.00000   0.00000   0.00000
                  --------  --------  --------  --------  --------  --------
 0 C  s               1.9      24.5      17.0      50.8       0.9       1.3
 1 C  s               3.6      13.4       0.2       0.1      37.6       0.0
 2 C  s               9.0      15.4      23.6      44.6       1.6       0.8
 3 C  s               5.5      22.7      57.7       0.1       0.5       0.0
 4 C  s               0.4       0.1       0.0       0.0      14.3       0.1
 5 C  s              11.9       7.5       0.2       2.0       7.1      27.5
 6 C  s              25.8       4.2       0.0       0.0       2.6      21.0
 7 C  s               1.3       1.9       0.7       0.0      25.2       0.0
 8 C  s              18.1       8.5       0.0       0.0       1.4      22.5
 9 C  s              22.0       1.7       0.3       1.9       8.5      26.4

                    258       259   
                  22.24811  22.35416
                   0.00000   0.00000
                  --------  --------
 0 C  s               1.7       0.2
 1 C  s              41.6       2.4
 2 C  s               2.6       0.3
 3 C  s               7.1       0.7
 4 C  s              14.0      20.1
 5 C  s               0.4      17.1
 6 C  s               8.8      14.3
 7 C  s              13.9      13.2
 8 C  s               9.0      14.3
 9 C  s               0.5      17.1


                      *****************************
                      * MAYER POPULATION ANALYSIS *
                      *****************************

  NA   - Mulliken gross atomic population
  ZA   - Total nuclear charge
  QA   - Mulliken gross atomic charge
  VA   - Mayer's total valence
  BVA  - Mayer's bonded valence
  FA   - Mayer's free valence

  ATOM       NA         ZA         QA         VA         BVA        FA
  0 C      6.5768     6.0000    -0.5768     3.6740     3.6740     0.0000
  1 C      5.7698     6.0000     0.2302     3.3483     3.3483    -0.0000
  2 C      6.5701     6.0000    -0.5701     3.6715     3.6715     0.0000
  3 C      6.5436     6.0000    -0.5436     3.6741     3.6741    -0.0000
  4 C      5.8810     6.0000     0.1190     3.3557     3.3557    -0.0000
  5 C      6.2324     6.0000    -0.2324     3.8309     3.8309     0.0000
  6 C      6.2088     6.0000    -0.2088     3.7589     3.7589     0.0000
  7 C      6.1909     6.0000    -0.1909     3.7398     3.7398     0.0000
  8 C      6.2073     6.0000    -0.2073     3.7625     3.7625     0.0000
  9 C      6.2409     6.0000    -0.2409     3.8356     3.8356     0.0000
 10 H      0.8263     1.0000     0.1737     0.9573     0.9573     0.0000
 11 H      0.8204     1.0000     0.1796     0.9532     0.9532     0.0000
 12 H      0.8313     1.0000     0.1687     0.9564     0.9564     0.0000
 13 H      0.8268     1.0000     0.1732     0.9575     0.9575     0.0000
 14 H      0.8317     1.0000     0.1683     0.9569     0.9569     0.0000
 15 H      0.8219     1.0000     0.1781     0.9539     0.9539     0.0000
 16 H      0.8273     1.0000     0.1727     0.9578     0.9578    -0.0000
 17 H      0.8341     1.0000     0.1659     0.9594     0.9594    -0.0000
 18 H      0.8279     1.0000     0.1721     0.9579     0.9579    -0.0000
 19 H      0.8289     1.0000     0.1711     0.9606     0.9606     0.0000
 20 H      0.8250     1.0000     0.1750     0.9595     0.9595     0.0000
 21 H      0.8231     1.0000     0.1769     0.9591     0.9591     0.0000
 22 H      0.8250     1.0000     0.1750     0.9595     0.9595     0.0000
 23 H      0.8288     1.0000     0.1712     0.9607     0.9607     0.0000

  Mayer bond orders larger than 0.100000
B(  0-C ,  1-C ) :   0.8877 B(  0-C , 10-H ) :   0.9755 B(  0-C , 11-H ) :   0.9814 
B(  0-C , 12-H ) :   0.9613 B(  1-C ,  2-C ) :   0.8930 B(  1-C ,  3-C ) :   0.9623 
B(  1-C ,  4-C ) :   0.7947 B(  2-C , 13-H ) :   0.9756 B(  2-C , 14-H ) :   0.9612 
B(  2-C , 15-H ) :   0.9802 B(  3-C , 16-H ) :   0.9704 B(  3-C , 17-H ) :   0.9689 
B(  3-C , 18-H ) :   0.9710 B(  4-C ,  5-C ) :   1.3918 B(  4-C ,  9-C ) :   1.3858 
B(  5-C ,  6-C ) :   1.4060 B(  5-C , 19-H ) :   0.9534 B(  6-C ,  7-C ) :   1.3796 
B(  6-C , 20-H ) :   0.9600 B(  7-C ,  8-C ) :   1.3780 B(  7-C , 21-H ) :   0.9574 
B(  8-C ,  9-C ) :   1.4094 B(  8-C , 22-H ) :   0.9600 B(  9-C , 23-H ) :   0.9548 


-------
TIMINGS
-------

Total SCF time: 0 days 0 hours 0 min 34 sec 

Total time                  ....      34.129 sec
Sum of individual times     ....      33.675 sec  ( 98.7%)

SCF preparation             ....       0.369 sec  (  1.1%)
Fock matrix formation       ....      32.400 sec  ( 94.9%)
  Startup                   ....       0.061 sec  (  0.2% of F)
  Split-RI-J                ....       5.678 sec  ( 17.5% of F)
  XC integration            ....      19.548 sec  ( 60.3% of F)
    Basis function eval.    ....       3.191 sec  ( 16.3% of XC)
    Density eval.           ....       6.685 sec  ( 34.2% of XC)
    XC-Functional eval.     ....       1.929 sec  (  9.9% of XC)
    XC-Potential eval.      ....       6.942 sec  ( 35.5% of XC)
  CPCM terms                ....       6.663 sec  ( 20.6% of F)
Diagonalization             ....       0.000 sec  (  0.0%)
Density matrix formation    ....       0.195 sec  (  0.6%)
Total Energy calculation    ....       0.038 sec  (  0.1%)
Population analysis         ....       0.148 sec  (  0.4%)
Orbital Transformation      ....       0.066 sec  (  0.2%)
Orbital Orthonormalization  ....       0.000 sec  (  0.0%)
DIIS solution               ....       0.353 sec  (  1.0%)
  MO trafo                  ....       0.000 sec  (  0.0 % of DIIS)
  Orb grad                  ....       0.000 sec  (  0.0 % of DIIS)
  Energy W gradient         ....       0.000 sec  (  0.0 % of DIIS)
  DIIS error                ....       0.013 sec  (  3.8 % of DIIS)
  DIIS work                 ....       0.289 sec  ( 82.0 % of DIIS)
  Form Q                    ....       0.000 sec  (  0.0 % of DIIS)
  Form QpQm                 ....       0.000 sec  (  0.0 % of DIIS)
  Exp/Cayley                ....       0.000 sec  (  0.0 % of DIIS)
  Orb update                ....       0.000 sec  (  0.0 % of DIIS)
  Wake-sleep                ....       0.017 sec  (  5.0 % of DIIS)
SOSCF solution              ....       0.106 sec  (  0.3%)
  MO trafo                  ....       0.057 sec  ( 53.9 % of SOSCF)
  Orb grad                  ....       0.001 sec  (  1.3 % of SOSCF)
  Rot update                ....       0.019 sec  ( 18.2 % of SOSCF)
  Step                      ....       0.028 sec  ( 26.5 % of SOSCF)
Finished LeanSCF after  34.3 sec

Maximum memory used throughout the entire LEANSCF-calculation: 40.3 MB


-------------------------------------------------------------------------------
                          DFT DISPERSION CORRECTION                            
                                                                               
                                DFTD4 V3.4.0                                   
-------------------------------------------------------------------------------
The R2SCAN3C composite method is recognized
Using three-body term ABC
Active option DFTDOPT                   ...         5   

-------------------------   ----------------
Dispersion correction           -0.008704844
-------------------------   ----------------

------------------   -----------------
gCP correction             0.008899377
------------------   -----------------

-------------------------   --------------------
FINAL SINGLE POINT ENERGY      -389.379297443296
-------------------------   --------------------


------------------------------------------------------------------------------
                              ORCA PROPERTY CALCULATIONS
------------------------------------------------------------------------------

GBWName                                 ... sp_solv.gbw
Number of atoms                         ...     24
Number of basis functions               ...    260
Max core memory                         ...   1024 MB

Electric properties:
Dipole moment                           ... YES
Quadrupole moment                       ...  NO
Static polarizability (Dipole/Dipole)   ...  NO
Static polarizability (Dipole/Quad.)    ...  NO
Static polarizability (Quad./Quad.)     ...  NO
Static polarizability (Velocity)        ...  NO

Atomic electric properties:
Dipole moment                           ...  NO
Quadrupole moment                       ...  NO
Static polarizability                   ...  NO

Choice of electric origin               ... Center of mass
Position of electric origin             ...    -0.000014     0.000000    -0.000000

General magnetic properties:
Magnetizability                         ...  NO

EPR properties:
g-Tensor (aka g-matrix)                 ...  NO
Zero-Field splitting spin-orbit         ...  NO
Zero-field splitting spin-spin          ...  NO
Hyperfine couplings                     ...  NO (   0 nuclei)
Quadrupole couplings                    ...  NO (   0 nuclei)
Contact density                         ...  NO (   0 nuclei)

NMR properties:
Chemical shifts                         ...  NO (   0 nuclei)
Spin-rotation constants                 ...  NO (   0 nuclei)
Spin-spin couplings                     ...  NO (   0 nuclei,    0 pairs)

Choice of magnetic origin               ... GIAO
Position of magnetic origin             ...     0.000000     0.000000     0.000000

Properties with geometric perturbations:
SCF Hessian                             ...  NO
IR spectrum                             ...  NO
VCD spectrum                            ...  NO
X-ray spectroscopy properties:
SCF XES/XAS/RIXS spectra                ...  NO


-------------
DIPOLE MOMENT
-------------

Method             : SCF
Type of density    : Electron Density
Multiplicity       :   1
Irrep              :   0
Energy             :  -389.3794919763928419 Eh
Relativity type    : 
Basis              : AO
                                X                 Y                 Z
Electronic contribution:      9.125221713       0.014446244       0.035437218
Nuclear contribution   :     -9.425861958       0.013314507      -0.063952778
                        -----------------------------------------
Total Dipole Moment    :     -0.300640246       0.027760751      -0.028515560
                        -----------------------------------------
Magnitude (a.u.)       :      0.303262846
Magnitude (Debye)      :      0.770832895



--------------------
Rotational spectrum 
--------------------
 
Rotational constants in cm-1:             0.086165             0.032078             0.027593 
Rotational constants in MHz :          2583.146891           961.666662           827.214186 

Dipole components along the rotational axes: 
x,y,z [a.u.] :    -0.299811    -0.002395    -0.045560 
x,y,z [Debye]:    -0.762060    -0.006086    -0.115804 

 

Dipole moment calculation done in   0.0 sec 

Maximum memory used throughout the entire PROP-calculation: 18.1 MB

--------------------------------
SUGGESTED CITATIONS FOR THIS RUN
--------------------------------

Below you find a list of papers that are relevant to this ORCA run
We neither can nor want to force you to cite these papers, but we appreciate if you do
You receive ORCA, which is the product of decades of hard work by many enthusiastic individuals, for free
The only thing we kindly ask in return is that you cite our papers,
We deeply appreciate it, if you show your appreciation for ORCA by not just citing the generic ORCA reference.

Please note that relegating all ORCA citations to the supporting information does *not* help us.
SI sections are not indexed - citations you put there will not count into any citation statistics
But we need these citations in order to attract the funding resources that allow us to do what we are doing

Therefore, if you are a happy ORCA user, please consider citing a few of the papers listed below in the main body of your paper

In addition to the list printed below, the program has created the file sp_solv.bibtex that contains the list in bibtex format
You can import this file easily into all common literature databanks and citation aid programs


List of essential papers. We consider these as the minimum necessary citations

  1. Neese,F.
     Software update: the ORCA program system, version 5.0
     WIRES Comput. Molec. Sci., 2022 12(1)e1606
     doi.org/10.1002/wcms.1606
  2. Grimme,S.; Hansen,A.; Ehlert,S.; Mewes,J.
     r2SCAN-3c: A 'Swiss army knife' composite electronic-structure method
     J. Chem. Phys., 2021 154 064103
     doi.org/10.1063/5.0040021

List of papers to cite with high priority. The work reported in these papers was absolutely
necessary for this run to complete.
Our perspective: the developers of density functionals and basis sets usually get cited in chemistry papers
Good! But without the algorithms to do something with them, the functionals or basis sets would not do anything.
Hence, in our opinion, the algorithm design and method developments papers are equally worthy of getting cited

  1. Neese,F.
     An improvement of the resolution of the identity approximation for the formation of the Coulomb matrix
     J. Comp. Chem., 2003 24(14)1740-1747
     doi.org/10.1002/jcc.10318
  2. Garcia-Rates,M.; Neese,F.
     Effect of the Solute Cavity on the Solvation Energy and its Derivatives within the Framework of the Gaussian Charge Scheme
     J. Comput. Chem., 2020 41 922-939
     doi.org/10.1002/jcc.26139
  3. Neese,F.
     The SHARK Integral Generation and Digestion System
     J. Comp. Chem., 2022  1-16
     doi.org/10.1002/jcc.26942
  4. Lehtola,S.; Steigemann,C.; Oliveira,M.; Marques,M.
     Recent developments in Libxc - A comprehensive library of functionals for density functional theory
     Software X, 2018 7 
     doi.org/10.1016/j.softx.2017.11.002
  5. Caldeweyher,E.; Bannwarth,C.; Grimme,S.
     Extension of the D3 dispersion coefficient model
     J. Chem. Phys., 2017 147 034112-XXXX
     doi.org/10.1063/1.4993215
  6. Caldeweyher,E.; Ehlert,S.; Hansen,A.; Neugebauer,H.; Spicher,S.; Bannwarth,C.; Grimme,S.
     A generally applicable atomic-charge dependent London dispersion correction
     J. Chem. Phys., 2019 150 154122-XXXX
     doi.org/10.1063/1.5090222
  7. Caldeweyher,E.; Mewes,J.; Ehlert,S.; Grimme,S.
     Extension and evaluation of the D4 London-dispersion model for periodic systems
     Phys. Chem. Chem. Phys., 2020 22(16)8499-8512
     doi.org/10.1039/D0CP00502A

List of suggested additional citations. These are papers that are important in the 'surrounding' of 
of this run, or papers that preceded the highly important papers. If you like your results we are grateful for a citation.

  1. Neese,F.
     The ORCA program system
     WIRES Comput. Molec. Sci., 2012 2(1)73-78
     doi.org/10.1002/wcms.81
  2. Neese,F.
     Software update: the ORCA program system, version 4.0
     WIRES Comput. Molec. Sci., 2018 8(1)1-6
     doi.org/10.1002/wcms.1327
  3. Neese,F.; Wennmohs,F.; Becker,U.; Riplinger,C.
     The ORCA quantum chemistry program package
     J. Chem. Phys., 2020 152 Art. No. L224108
     doi.org/10.1063/5.0004608

List of optional additional citations

  1. Neese,F.
     Approximate second-order SCF convergence for spin unrestricted wavefunctions
     Chem. Phys. Lett., 2000 325(1-3)93-98
     doi.org/10.1016/s0009-2614(00)00662-x

Timings for individual modules:

Sum of individual times          ...       36.254 sec (=   0.604 min)
Startup calculation              ...        1.520 sec (=   0.025 min)   4.2 %
SCF iterations                   ...       34.617 sec (=   0.577 min)  95.5 %
Property calculations            ...        0.117 sec (=   0.002 min)   0.3 %
                             ****ORCA TERMINATED NORMALLY****
TOTAL RUN TIME: 0 days 0 hours 0 minutes 37 seconds 89 msec
