
                                 *****************
                                 * O   R   C   A *
                                 *****************

                                            #,                                       
                                            ###                                      
                                            ####                                     
                                            #####                                    
                                            ######                                   
                                           ########,                                 
                                     ,,################,,,,,                         
                               ,,#################################,,                 
                          ,,##########################################,,             
                       ,#########################################, ''#####,          
                    ,#############################################,,   '####,        
                  ,##################################################,,,,####,       
                ,###########''''           ''''###############################       
              ,#####''   ,,,,##########,,,,          '''####'''          '####       
            ,##' ,,,,###########################,,,                        '##       
           ' ,,###''''                  '''############,,,                           
         ,,##''                                '''############,,,,        ,,,,,,###''
      ,#''                                            '''#######################'''  
     '                                                          ''''####''''         
             ,#######,   #######,   ,#######,      ##                                
            ,#'     '#,  ##    ##  ,#'     '#,    #''#        ,####,   ,####,        
            ##       ##  ##   ,#'  ##            #'  '#       #'       #'  '#        
            ##       ##  #######   ##           ,######,      #####,   #    #        
            '#,     ,#'  ##    ##  '#,     ,#' ,#      #,     #,   #   #,  ,#        
             '#######'   ##     ##  '#######'  #'      '#     '####' # '####'        



                #########################################################
                #                        -***-                          #
                #          Department of theory and spectroscopy        #
                #                                                       #
                #                      Frank Neese                      #
                #                                                       #
                #     Directorship, Architecture, Infrastructure        #
                #                    SHARK, DRIVERS                     #
                #        Core code/Algorithms in most modules           #
                #                                                       #
                #        Max Planck Institute fuer Kohlenforschung      #
                #                Kaiser Wilhelm Platz 1                 #
                #                 D-45470 Muelheim/Ruhr                 #
                #                      Germany                          #
                #                                                       #
                #                  All rights reserved                  #
                #                        -***-                          #
                #########################################################


                         Program Version 6.0.0  -   RELEASE  -


 With contributions from (in alphabetic order):
   Daniel Aravena         : Magnetic Suceptibility
   Michael Atanasov       : Ab Initio Ligand Field Theory (pilot matlab implementation)
   Alexander A. Auer      : GIAO ZORA, VPT2 properties, NMR spectrum
   Ute Becker             : All parallelization in ORCA, NUMFREQ, NUMCALC
   Giovanni Bistoni       : ED, misc. LED, open-shell LED, HFLD
   Martin Brehm           : Molecular dynamics
   Dmytro Bykov           : pre 5.0 version of the SCF Hessian
   Marcos Casanova-Páez   : Triplet and SCS-CIS(D). UHF-(DLPNO)-IP/EA/STEOM-CCSD. UHF-CVS-IP/STEOM-CCSD
   Vijay G. Chilkuri      : MRCI spin determinant printing, contributions to CSF-ICE
   Pauline Colinet        : FMM embedding
   Dipayan Datta          : RHF DLPNO-CCSD density
   Achintya Kumar Dutta   : EOM-CC, STEOM-CC
   Nicolas Foglia         : Exact transition moments, OPA infrastructure, MCD improvements
   Dmitry Ganyushin       : Spin-Orbit,Spin-Spin,Magnetic field MRCI
   Miquel Garcia          : C-PCM and meta-GGA Hessian, CCSD/C-PCM, Gaussian charge scheme
   Tiago L. C. Gouveia    : GS-ROHF, GS-ROCIS
   Yang Guo               : DLPNO-NEVPT2, F12-NEVPT2, CIM, IAO-localization
   Andreas Hansen         : Spin unrestricted coupled pair/coupled cluster methods
   Ingolf Harden          : AUTO-CI MPn and infrastructure 
   Benjamin Helmich-Paris : MC-RPA, TRAH-(SCF,CASSCF), AVAS, COSX integrals, SCF dyn. polar.
   Lee Huntington         : MR-EOM, pCC
   Robert Izsak           : Overlap fitted RIJCOSX, COSX-SCS-MP3, EOM
   Riya Kayal             : Wick's Theorem for AUTO-CI, AUTO-CI UHF-CCSDT
   Emily Kempfer          : AUTO-CI, RHF CISDT and CCSDT
   Christian Kollmar      : KDIIS, OOCD, Brueckner-CCSD(T), CCSD density, CASPT2, CASPT2-K, improved NEVPT2
   Axel Koslowski         : Symmetry handling
   Simone Kossmann        : Meta GGA functionals, TD-DFT gradient, OOMP2, (MP2 Hessian; deprecated post 5.0)
   Lucas Lang             : DCDCAS
   Marvin Lechner         : AUTO-CI (C++ implementation), FIC-MRCC
   Spencer Leger          : CASSCF response
   Dagmar Lenk            : GEPOL surface, SMD, ORCA-2-JSON
   Dimitrios Liakos       : Extrapolation schemes; Compound Job, initial MDCI parallelization
   Dimitrios Manganas     : Further ROCIS development; embedding schemes. LFT, Crystal Embedding
   Dimitrios Pantazis     : SARC Basis sets
   Anastasios Papadopoulos: AUTO-CI, single reference methods and gradients
   Taras Petrenko         : pre 6.0 DFT Hessian and TD-DFT gradient, (ASA, deprecated), ECA, 1-Electron XAS/XES, NRVS
   Peter Pinski           : DLPNO-MP2, DLPNO-MP2 Gradient
   Christoph Reimann      : Effective Core Potentials
   Marius Retegan         : Local ZFS, SOC
   Christoph Riplinger    : Optimizer, TS searches, QM/MM, DLPNO-CCSD(T), (RO)-DLPNO pert. Triples
   Michael Roemelt        : Original ROCIS implementation
   Masaaki Saitow         : Open-shell DLPNO-CCSD energy and density
   Barbara Sandhoefer     : DKH picture change effects
   Kantharuban Sivalingam : CASSCF convergence/infrastructure, NEVPT2 and variants, FIC-MRCI
   Bernardo de Souza      : ESD, SOC TD-DFT
   Georgi Stoychev        : AutoAux, RI-MP2 NMR, DLPNO-MP2 response, X2C
   Van Anh Tran           : RI-MP2 g-tensors
   Willem Van den Heuvel  : Paramagnetic NMR
   Zikuan Wang            : NOTCH, Electric field optimization 
   Frank Wennmohs         : Technical directorship and infrastructure
   Hang Xu                : AUTO-CI-Response properties 


 We gratefully acknowledge several colleagues who have allowed us to
 interface, adapt or use parts of their codes:
   Stefan Grimme, W. Hujo, H. Kruse, P. Pracht,  : VdW corrections, initial TS optimization,
                  C. Bannwarth, S. Ehlert,         DFT functionals, gCP, sTDA/sTD-DF
                  L. Wittmann, M. Mueller
   Ed Valeev, F. Pavosevic, A. Kumar             : LibInt (2-el integral package), F12 methods
   Garnet Chan, S. Sharma, J. Yang, R. Olivares  : DMRG
   Ulf Ekstrom                                   : XCFun DFT Library
   Mihaly Kallay                                 : mrcc  (arbitrary order and MRCC methods)
   Frank Weinhold                                : gennbo (NPA and NBO analysis)
   Simon Mueller                                 : openCOSMO-RS
   Christopher J. Cramer and Donald G. Truhlar   : smd solvation model
   Lars Goerigk                                  : TD-DFT with DH, B97 family of functionals
   V. Asgeirsson, H. Jonsson                     : NEB implementation
   FAccTs GmbH                                   : IRC, NEB, NEB-TS, DLPNO-Multilevel, CI-OPT
                                                   MM, QMMM, 2- and 3-layer-ONIOM, Crystal-QMMM,
                                                   LR-CPCM, SF, NACMEs, symmetry and pop. for TD-DFT,
                                                   nearIR, NL-DFT gradient (VV10), updates on ESD,
                                                   ML-optimized integration grids, MBIS, APM,
                                                   GOAT, DOCKER, SOLVATOR, interface openCOSMO-RS
   S Lehtola, MJT Oliveira, MAL Marques          : LibXC Library
   Liviu Ungur et al                             : ANISO software


 Your calculation uses the libint2 library for the computation of 2-el integrals
 For citations please refer to: http://libint.valeyev.net

 Your ORCA version has been built with support for libXC version: 6.2.2
 For citations please refer to: https://libxc.gitlab.io

 This ORCA versions uses:
   CBLAS   interface :  Fast vector & matrix operations
   LAPACKE interface :  Fast linear algebra routines
   SCALAPACK package :  Parallel linear algebra routines
   Shared memory     :  Shared parallel matrices
   BLAS/LAPACK       :  OpenBLAS 0.3.27  USE64BITINT DYNAMIC_ARCH NO_AFFINITY SkylakeX SINGLE_THREADED
        Core in use  :  SkylakeX
   Copyright (c) 2011-2014, The OpenBLAS Project


Your calculation utilizes the geometrical counterpoise correction gCP
Please cite in your paper:
H.Kruse, S. Grimme J.Chem.Phys., 136, (2012), 154101 
   

Your calculation utilizes the atom-pairwise dispersion correction
based on EEQ partial charges (D4)


================================================================================

----- Orbital basis set information -----
Your calculation utilizes the basis: def2-SV(P)
   F. Weigend and R. Ahlrichs, Phys. Chem. Chem. Phys. 7, 3297 (2005).

----- AuxJ basis set information -----
Your calculation utilizes the auxiliary basis: def2/J
   F. Weigend, Phys. Chem. Chem. Phys. 8, 1057 (2006).

================================================================================
                                        WARNINGS
                       Please study these warnings very carefully!
================================================================================


================================================================================
                                       INPUT FILE
================================================================================
NAME = sp.inp
|  1> ! pbe def2-sv(p) def2/J RI DEFGRID1 loosescf d4 GCP(DFT/SV(P)) printgap
|  2> %output
|  3>     printlevel normal
|  4> end
|  5> * xyz 0 1
|  6> C -1.6391357492 -1.2767325445 -0.6898053455
|  7> C -1.1641369282 -0.4660227377 0.5346433665
|  8> H -1.9599763686 -0.5030671108 1.2873048094
|  9> C -0.8705268598 1.0201384981 0.2155471921
| 10> H -1.2697718607 1.2813487403 -0.7742445166
| 11> C 0.6383130712 1.2921374256 0.1669178594
| 12> H 0.9812475511 1.4829822355 1.194575241
| 13> C 1.4054056856 0.0868180088 -0.3878429188
| 14> H 1.0573123463 -0.1191999617 -1.4096242077
| 15> C 1.142265233 -1.1518341158 0.4847380018
| 16> H 1.9120760343 -1.1953780018 1.2712710225
| 17> O -0.0688099944 -1.0889384028 1.1927069039
| 18> O 1.211942888 -2.2730078027 -0.3446565086
| 19> O 2.7680833203 0.4306449864 -0.3975708356
| 20> O 0.8443951325 2.4213732442 -0.6412141059
| 21> O -1.402638607 1.8801614482 1.194171253
| 22> O -2.9275882201 -0.9034778659 -1.1096044025
| 23> H -1.7141871318 -2.3242194258 -0.3894134859
| 24> H -0.9160617998 -1.2020785802 -1.5078570762
| 25> H 1.154257746 -3.0845938441 0.18202996
| 26> H 3.2765385523 -0.255512266 -0.8529430418
| 27> H 1.7990996001 2.5797153765 -0.7012824734
| 28> H -2.3676244262 1.9084662936 1.1253366905
| 29> H -2.8922341241 -0.0729913152 -1.6032704102
| 30> *
| 31> 
| 32>                          ****END OF INPUT****
================================================================================

                       ****************************
                       * Single Point Calculation *
                       ****************************

---------------------------------
CARTESIAN COORDINATES (ANGSTROEM)
---------------------------------
  C     -1.639136   -1.276733   -0.689805
  C     -1.164137   -0.466023    0.534643
  H     -1.959976   -0.503067    1.287305
  C     -0.870527    1.020138    0.215547
  H     -1.269772    1.281349   -0.774245
  C      0.638313    1.292137    0.166918
  H      0.981248    1.482982    1.194575
  C      1.405406    0.086818   -0.387843
  H      1.057312   -0.119200   -1.409624
  C      1.142265   -1.151834    0.484738
  H      1.912076   -1.195378    1.271271
  O     -0.068810   -1.088938    1.192707
  O      1.211943   -2.273008   -0.344657
  O      2.768083    0.430645   -0.397571
  O      0.844395    2.421373   -0.641214
  O     -1.402639    1.880161    1.194171
  O     -2.927588   -0.903478   -1.109604
  H     -1.714187   -2.324219   -0.389413
  H     -0.916062   -1.202079   -1.507857
  H      1.154258   -3.084594    0.182030
  H      3.276539   -0.255512   -0.852943
  H      1.799100    2.579715   -0.701282
  H     -2.367624    1.908466    1.125337
  H     -2.892234   -0.072991   -1.603270

----------------------------
CARTESIAN COORDINATES (A.U.)
----------------------------
  NO LB      ZA    FRAG     MASS         X           Y           Z
   0 C     6.0000    0    12.011   -3.097518   -2.412675   -1.303543
   1 C     6.0000    0    12.011   -2.199900   -0.880655    1.010330
   2 H     1.0000    0     1.008   -3.703819   -0.950659    2.432654
   3 C     6.0000    0    12.011   -1.645057    1.927782    0.407325
   4 H     1.0000    0     1.008   -2.399521    2.421398   -1.463110
   5 C     6.0000    0    12.011    1.206237    2.441786    0.315429
   6 H     1.0000    0     1.008    1.854289    2.802430    2.257420
   7 C     6.0000    0    12.011    2.655832    0.164062   -0.732917
   8 H     1.0000    0     1.008    1.998031   -0.225255   -2.663804
   9 C     6.0000    0    12.011    2.158568   -2.176651    0.916022
  10 H     1.0000    0     1.008    3.613300   -2.258937    2.402354
  11 O     8.0000    0    15.999   -0.130032   -2.057795    2.253889
  12 O     8.0000    0    15.999    2.290240   -4.295362   -0.651306
  13 O     8.0000    0    15.999    5.230919    0.813801   -0.751300
  14 O     8.0000    0    15.999    1.595676    4.575732   -1.211719
  15 O     8.0000    0    15.999   -2.650603    3.552990    2.256657
  16 O     8.0000    0    15.999   -5.532340   -1.707326   -2.096848
  17 H     1.0000    0     1.008   -3.239344   -4.392138   -0.735885
  18 H     1.0000    0     1.008   -1.731106   -2.271599   -2.849437
  19 H     1.0000    0     1.008    2.181231   -5.829038    0.343987
  20 H     1.0000    0     1.008    6.191761   -0.482848   -1.611829
  21 H     1.0000    0     1.008    3.399806    4.874956   -1.325232
  22 H     1.0000    0     1.008   -4.474162    3.606479    2.126578
  23 H     1.0000    0     1.008   -5.465530   -0.137934   -3.029742

--------------------------------
INTERNAL COORDINATES (ANGSTROEM)
--------------------------------
 C      0   0   0     0.000000000000     0.00000000     0.00000000
 C      1   0   0     1.543421173598     0.00000000     0.00000000
 H      2   1   0     1.096007275570   107.67290016     0.00000000
 C      2   1   3     1.548129342005   113.52133240   240.29909391
 H      4   2   1     1.098778862185   110.18014725    12.78935542
 C      4   2   1     1.533931604062   111.30364329   254.67883736
 H      6   4   2     1.100047950285   107.92624588   275.09421823
 C      6   4   2     1.532640041435   111.36700846    34.17736530
 H      8   6   4     1.098931016661   108.99275211    60.47736253
 C      8   6   4     1.537822956834   110.02399540   301.24776162
 H     10   8   6     1.101425863351   108.50824307   269.11714490
 O     10   8   6     1.404236106741   113.42629800    24.33554586
 O     10   8   6     1.396345467886   107.52742288   149.04278869
 O      8   6   4     1.405418784207   107.18106132   179.82064913
 O      6   4   2     1.403823572725   107.77540412   155.57401844
 O      4   2   1     1.407297921117   111.81509263   135.58183062
 O      1   2   3     1.405581756115   112.30686932    49.98723835
 H      1   2   3     1.092289680369   107.86006189   293.68267119
 H      1   2   3     1.094357247332   110.72329203   175.17247540
 H     13  10   8     0.969225522987   110.27946793   173.43216191
 H     14   8   6     0.967833841188   109.82756625   187.71429957
 H     15   6   4     0.969608714942   108.15386052   181.96923759
 H     16   4   2     0.967851740983   110.20647936   288.37969349
 H     17   1   2     0.966780197437   110.31009466    77.41018003

---------------------------
INTERNAL COORDINATES (A.U.)
---------------------------
 C      0   0   0     0.000000000000     0.00000000     0.00000000
 C      1   0   0     2.916643327396     0.00000000     0.00000000
 H      2   1   0     2.071153591613   107.67290016     0.00000000
 C      2   1   3     2.925540476277   113.52133240   240.29909391
 H      4   2   1     2.076391131272   110.18014725    12.78935542
 C      4   2   1     2.898710639844   111.30364329   254.67883736
 H      6   4   2     2.078789360221   107.92624588   275.09421823
 C      6   4   2     2.896269940195   111.36700846    34.17736530
 H      8   6   4     2.076678661561   108.99275211    60.47736253
 C      8   6   4     2.906064230873   110.02399540   301.24776162
 H     10   8   6     2.081393238550   108.50824307   269.11714490
 O     10   8   6     2.653621669105   113.42629800    24.33554586
 O     10   8   6     2.638710522646   107.52742288   149.04278869
 O      8   6   4     2.655856605620   107.18106132   179.82064913
 O      6   4   2     2.652842092793   107.77540412   155.57401844
 O      4   2   1     2.659407659747   111.81509263   135.58183062
 O      1   2   3     2.656164577893   112.30686932    49.98723835
 H      1   2   3     2.064128354805   107.86006189   293.68267119
 H      1   2   3     2.068035490129   110.72329203   175.17247540
 H     13  10   8     1.831570800452   110.27946793   173.43216191
 H     14   8   6     1.828940902986   109.82756625   187.71429957
 H     15   6   4     1.832294928303   108.15386052   181.96923759
 H     16   4   2     1.828974728698   110.20647936   288.37969349
 H     17   1   2     1.826949804854   110.31009466    77.41018003

---------------------
BASIS SET INFORMATION
---------------------
There are 3 groups of distinct atoms

 Group   1 Type C   : 7s4p1d contracted to 3s2p1d pattern {511/31/1}
 Group   2 Type H   : 4s contracted to 2s pattern {31}
 Group   3 Type O   : 7s4p1d contracted to 3s2p1d pattern {511/31/1}

Atom   0C    basis set group =>   1
Atom   1C    basis set group =>   1
Atom   2H    basis set group =>   2
Atom   3C    basis set group =>   1
Atom   4H    basis set group =>   2
Atom   5C    basis set group =>   1
Atom   6H    basis set group =>   2
Atom   7C    basis set group =>   1
Atom   8H    basis set group =>   2
Atom   9C    basis set group =>   1
Atom  10H    basis set group =>   2
Atom  11O    basis set group =>   3
Atom  12O    basis set group =>   3
Atom  13O    basis set group =>   3
Atom  14O    basis set group =>   3
Atom  15O    basis set group =>   3
Atom  16O    basis set group =>   3
Atom  17H    basis set group =>   2
Atom  18H    basis set group =>   2
Atom  19H    basis set group =>   2
Atom  20H    basis set group =>   2
Atom  21H    basis set group =>   2
Atom  22H    basis set group =>   2
Atom  23H    basis set group =>   2
---------------------------------
AUXILIARY/J BASIS SET INFORMATION
---------------------------------
There are 3 groups of distinct atoms

 Group   1 Type C   : 12s5p4d2f1g contracted to 6s4p3d1f1g pattern {711111/2111/211/2/1}
 Group   2 Type H   : 5s2p1d contracted to 3s1p1d pattern {311/2/1}
 Group   3 Type O   : 12s5p4d2f1g contracted to 6s4p3d1f1g pattern {711111/2111/211/2/1}

Atom   0C    basis set group =>   1
Atom   1C    basis set group =>   1
Atom   2H    basis set group =>   2
Atom   3C    basis set group =>   1
Atom   4H    basis set group =>   2
Atom   5C    basis set group =>   1
Atom   6H    basis set group =>   2
Atom   7C    basis set group =>   1
Atom   8H    basis set group =>   2
Atom   9C    basis set group =>   1
Atom  10H    basis set group =>   2
Atom  11O    basis set group =>   3
Atom  12O    basis set group =>   3
Atom  13O    basis set group =>   3
Atom  14O    basis set group =>   3
Atom  15O    basis set group =>   3
Atom  16O    basis set group =>   3
Atom  17H    basis set group =>   2
Atom  18H    basis set group =>   2
Atom  19H    basis set group =>   2
Atom  20H    basis set group =>   2
Atom  21H    basis set group =>   2
Atom  22H    basis set group =>   2
Atom  23H    basis set group =>   2
------------------------------------------------------------------------------
                             ORCA STARTUP CALCULATIONS
                           -- RI-GTO INTEGRALS CHOSEN --
------------------------------------------------------------------------------
------------------------------------------------------------------------------
                   ___                                                        
                  /   \      - P O W E R E D   B Y -                         
                 /     \                                                     
                 |  |  |   _    _      __       _____    __    __             
                 |  |  |  | |  | |    /  \     |  _  \  |  |  /  |          
                  \  \/   | |  | |   /    \    | | | |  |  | /  /          
                 / \  \   | |__| |  /  /\  \   | |_| |  |  |/  /          
                |  |  |   |  __  | /  /__\  \  |    /   |      \           
                |  |  |   | |  | | |   __   |  |    \   |  |\   \          
                \     /   | |  | | |  |  |  |  | |\  \  |  | \   \       
                 \___/    |_|  |_| |__|  |__|  |_| \__\ |__|  \__/        
                                                                              
                      - O R C A' S   B I G   F R I E N D -                    
                                      &                                       
                       - I N T E G R A L  F E E D E R -                       
                                                                              
 v1 FN, 2020, v2 2021, v3 2022-2024                                           
------------------------------------------------------------------------------


----------------------
SHARK INTEGRAL PACKAGE
----------------------

Number of atoms                             ...     24
Number of basis functions                   ...    192
Number of shells                            ...     96
Maximum angular momentum                    ...      2
Integral batch strategy                     ... SHARK/LIBINT Hybrid
RI-J (if used) integral strategy            ... SPLIT-RIJ (Revised 2003 algorithm where possible)
Printlevel                                  ...      1
Contraction scheme used                     ... SEGMENTED contraction
Prescreening option                         ... SCHWARTZ
   Thresh                                   ... 1.000e-09
   Tcut                                     ... 1.000e-10
   Tpresel                                  ... 1.000e-10 
Coulomb Range Separation                    ... NOT USED
Exchange Range Separation                   ... NOT USED
Multipole approximations                    ... NOT USED
Finite Nucleus Model                        ... NOT USED
CABS basis                                  ... NOT available
Auxiliary Coulomb fitting basis             ... AVAILABLE
   # of basis functions in Aux-J            ...    720
   # of shells in Aux-J                     ...    240
   Maximum angular momentum in Aux-J        ...      4
Auxiliary J/K fitting basis                 ... NOT available
Auxiliary Correlation fitting basis         ... NOT available
Auxiliary 'external' fitting basis          ... NOT available

Checking pre-screening integrals            ... done (  0.0 sec) Dimension = 96
Check shell pair data                       ... done (  0.0 sec)
Shell pair information
Shell pair cut-off parameter TPreSel        ...   1.0e-10
Total number of shell pairs                 ...      4656
Shell pairs after pre-screening             ...      4206
Total number of primitive shell pairs       ...     18720
Primitive shell pairs kept                  ...     11312
          la=0 lb=0:   1634 shell pairs
          la=1 lb=0:   1338 shell pairs
          la=1 lb=1:    289 shell pairs
          la=2 lb=0:    616 shell pairs
          la=2 lb=1:    264 shell pairs
          la=2 lb=2:     65 shell pairs

Calculating one electron integrals          ... done (  0.0 sec)
Calculating RI/J V-Matrix + Cholesky decomp.... done (  0.1 sec)
Calculating Nuclear repulsion               ... done (  0.0 sec) ENN=    836.991166871447 Eh

Diagonalization of the overlap matrix:
Smallest eigenvalue                        ... 7.360e-04
Time for diagonalization                   ...    0.003 sec
Threshold for overlap eigenvalues          ... 1.000e-07
Number of eigenvalues below threshold      ... 0
Time for construction of square roots      ...    0.019 sec
Total time needed                          ...    0.034 sec

-------------------
DFT GRID GENERATION
-------------------

General Integration Accuracy     IntAcc      ... 4.159
Radial Grid Type                 RadialGrid  ... OptM3 with GC (2021)
Angular Grid (max. ang.)         AngularGrid ... 3 (Lebedev-194)
Angular grid pruning method      GridPruning ... 4 (adaptive)
Weight generation scheme         WeightScheme... mBecke (2022)
Basis function cutoff            BFCut       ... 1.0000e-10
Integration weight cutoff        WCut        ... 1.0000e-14
Partially contracted basis set               ... off
Rotationally invariant grid construction     ... off
Angular grids for H and He will be reduced by one unit

Total number of grid points                  ...    55689
Total number of batches                      ...      883
Average number of points per batch           ...       63
Average number of grid points per atom       ...     2320
Initializing property integral containers    ... done (  0.0 sec)

SHARK setup successfully completed in   0.9 seconds

Maximum memory used throughout the entire STARTUP-calculation: 28.1 MB
-------------------------------------------------------------------------------
                                 ORCA GUESS
                   Start orbitals & Density for SCF / CASSCF
-------------------------------------------------------------------------------

------------
SCF SETTINGS
------------
Hamiltonian:
 Density Functional     Method          .... DFT(GTOs)
 Exchange Functional    Exchange        .... PBE
   PBE kappa parameter   XKappa         ....  0.804000
   PBE mue parameter    XMuePBE         ....  0.219520
 Correlation Functional Correlation     .... PBE
   PBE beta parameter  CBetaPBE         ....  0.066725
 LDA part of GGA corr.  LDAOpt          .... PW91-LDA
 Gradients option       PostSCFGGA      .... off
   NL short-range parameter             ....  6.400000
 RI-approximation to the Coulomb term is turned on
   Number of AuxJ basis functions       .... 720


General Settings:
 Integral files         IntName         .... sp
 Hartree-Fock type      HFTyp           .... RHF
 Total Charge           Charge          ....    0
 Multiplicity           Mult            ....    1
 Number of Electrons    NEL             ....   96
 Basis Dimension        Dim             ....  192
 Nuclear Repulsion      ENuc            ....    836.9911668714 Eh

Convergence Acceleration:
 AO-DIIS                CNVDIIS         .... on
   Start iteration      DIISMaxIt       ....    12
   Startup error        DIISStart       ....  0.200000
   # of expansion vecs  DIISMaxEq       ....     5
   Bias factor          DIISBfac        ....   1.050
   Max. coefficient     DIISMaxC        ....  10.000
 MO-DIIS                CNVKDIIS        .... off
 Trust-Rad. Augm. Hess. CNVTRAH         .... auto
   Auto Start mean grad. ratio tolernc. ....  1.125000
   Auto Start start iteration           ....    50
   Auto Start num. interpolation iter.  ....    10
   Max. Number of Micro iterations      ....    24
   Max. Number of Macro iterations      .... Maxiter - #DIIS iter
   Number of Davidson start vectors     ....     2
   Converg. threshold    (grad. norm)   ....   1.000e-04
   Grad. Scal. Fac. for Micro threshold ....   0.100
   Minimum threshold for Micro iter.    ....   1.000e-02
   NR start threshold (gradient norm)   ....   1.000e-04
   Initial trust radius                 ....   0.400
   Minimum AH scaling param. (alpha)    ....   1.000
   Maximum AH scaling param. (alpha)    .... 1000.000
   Quad. conv. algorithm                .... NR
   White noise on init. David. guess    .... on
   Maximum white noise                  ....   0.010
   Pseudo random numbers                .... off
   Inactive MOs                         .... canonical
   Orbital update algorithm             .... Taylor
   Preconditioner                       .... Diag
   Full preconditioner red. dimension   ....   250
 SOSCF                  CNVSOSCF        .... on
   Start iteration      SOSCFMaxIt      ....   150
   Startup grad/error   SOSCFStart      ....  0.003300
   Hessian update       SOSCFHessUp     .... L-BFGS
 Level Shifting         CNVShift        .... on
   Level shift para.    LevelShift      ....    0.2500
   Turn off err/grad.   ShiftErr        ....    0.0010
 Zerner damping         CNVZerner       .... off
 Static damping         CNVDamp         .... on
   Fraction old density DampFac         ....    0.7000
   Max. Damping (<1)    DampMax         ....    0.9800
   Min. Damping (>=0)   DampMin         ....    0.0000
   Turn off err/grad.   DampErr         ....    0.1000

SCF Procedure:
 Maximum # iterations   MaxIter         ....   125
 SCF integral mode      SCFMode         .... Direct
   Integral package                     .... SHARK and LIBINT hybrid scheme
 Reset frequency        DirectResetFreq ....    20
 Integral Threshold     Thresh          ....  1.000e-09 Eh
 Primitive CutOff       TCut            ....  1.000e-10 Eh

Convergence Tolerance:
 Convergence Check Mode ConvCheckMode   .... Total+1el-Energy
 Convergence forced     ConvForced      .... 0
 Energy Change          TolE            ....  1.000e-05 Eh
 1-El. energy change                    ....  1.000e-02 Eh
 Orbital Gradient       TolG            ....  1.000e-04
 Orbital Rotation angle TolX            ....  1.000e-04
 DIIS Error             TolErr          ....  5.000e-04

------------------------------
INITIAL GUESS: MODEL POTENTIAL
------------------------------
Loading Hartree-Fock densities                     ... done
Calculating cut-offs                               ... done
Initializing the effective Hamiltonian             ... done
Setting up the integral package (SHARK)            ... done
Starting the Coulomb interaction                   ... done (   0.2 sec)
Making the grid                                    ... done (   0.3 sec)
Mapping shells                                     ... done
Starting the XC term evaluation                    ... done (   0.2 sec)
  promolecular density results
     # of electrons  =     95.998174309
     EX              =    -83.231615327
     EC              =     -3.267624020
     EX+EC           =    -86.499239347
Transforming the Hamiltonian                       ... done (   0.0 sec)
Diagonalizing the Hamiltonian                      ... done (   0.0 sec)
Back transforming the eigenvectors                 ... done (   0.0 sec)
Now organizing SCF variables                       ... done
                      ------------------
                      INITIAL GUESS DONE (   0.8 sec)
                      ------------------
             **** ENERGY FILE WAS UPDATED (sp.en.tmp) ****
Finished Guess after   1.0 sec
Maximum memory used throughout the entire GUESS-calculation: 21.8 MB

-------------------------------------------------------------------------------------------
                                      ORCA LEAN-SCF
                              memory conserving SCF solver
-------------------------------------------------------------------------------------------

----------------------------------------D-I-I-S--------------------------------------------
Iteration    Energy (Eh)           Delta-E    RMSDP     MaxDP     DIISErr   Damp  Time(sec)
-------------------------------------------------------------------------------------------
               ***  Starting incremental Fock matrix formation  ***
    1    -685.5061159539450273     0.00e+00  5.60e-03  2.14e-01  2.46e-01  0.700   1.2
    2    -685.6612434247138026    -1.55e-01  3.59e-03  1.37e-01  9.64e-02  0.700   1.2
                               ***Turning on AO-DIIS***
    3    -685.7097578831144347    -4.85e-02  1.17e-03  2.89e-02  1.85e-02  0.700   1.1
    4    -685.7422243492221696    -3.25e-02  1.43e-03  1.93e-02  1.12e-02  0.000   1.1
    5    -685.8175151467289652    -7.53e-02  4.90e-04  1.68e-02  5.44e-03  0.000   1.1
                              *** Initializing SOSCF ***
---------------------------------------S-O-S-C-F--------------------------------------
Iteration    Energy (Eh)           Delta-E    RMSDP     MaxDP     MaxGrad    Time(sec)
--------------------------------------------------------------------------------------
    6    -685.8178631582679827    -3.48e-04  1.40e-04  3.43e-03  1.12e-03     1.1
               *** Restarting incremental Fock matrix formation ***
    7    -685.8178919786716961    -2.88e-05  9.67e-05  2.80e-03  1.73e-04     1.2
    8    -685.8178926777807192    -6.99e-07  3.74e-05  1.10e-03  2.79e-04     1.0
                 **** Energy Check signals convergence ****

               *****************************************************
               *                     SUCCESS                       *
               *           SCF CONVERGED AFTER   8 CYCLES          *
               *****************************************************

             **** ENERGY FILE WAS UPDATED (sp.en.tmp) ****

----------------
TOTAL SCF ENERGY
----------------

Total Energy       :       -685.81789267778072 Eh          -18662.05362 eV

Components:
Nuclear Repulsion  :        836.99116687144669 Eh           22775.68754 eV
Electronic Energy  :      -1522.80905954922741 Eh          -41437.74116 eV
One Electron Energy:      -2603.28426764099140 Eh          -70838.96631 eV
Two Electron Energy:       1080.47520809176399 Eh           29401.22514 eV

Virial components:
Potential Energy   :      -1366.92388767979719 Eh          -37195.88999 eV
Kinetic Energy     :        681.10599500201658 Eh           18533.83637 eV
Virial Ratio       :          2.00691800939992

DFT components:
N(Alpha)           :       48.000089495752 electrons
N(Beta)            :       48.000089495752 electrons
N(Total)           :       96.000178991504 electrons
E(X)               :      -84.602086346034 Eh       
E(C)               :       -3.280790543125 Eh       
E(XC)              :      -87.882876889160 Eh       

---------------
SCF CONVERGENCE
---------------

  Last Energy change         ...    6.9911e-07  Tolerance :   1.0000e-05
  Last MAX-Density change    ...    1.0953e-03  Tolerance :   1.0000e-03
  Last RMS-Density change    ...    3.7384e-05  Tolerance :   1.0000e-04
  Last DIIS Error            ...    1.1179e-03  Tolerance :   5.0000e-04
  Last Orbital Gradient      ...    2.7915e-04  Tolerance :   1.0000e-04
  Last Orbital Rotation      ...    1.9947e-04  Tolerance :   1.0000e-04


----------------
ORBITAL ENERGIES
----------------

  NO   OCC          E(Eh)            E(eV) 
   0   2.0000     -18.768604      -510.7197 
   1   2.0000     -18.767091      -510.6785 
   2   2.0000     -18.765747      -510.6419 
   3   2.0000     -18.753522      -510.3093 
   4   2.0000     -18.747681      -510.1503 
   5   2.0000     -18.742994      -510.0228 
   6   2.0000      -9.985919      -271.7307 
   7   2.0000      -9.945027      -270.6179 
   8   2.0000      -9.944974      -270.6165 
   9   2.0000      -9.940760      -270.5018 
  10   2.0000      -9.939286      -270.4617 
  11   2.0000      -9.930799      -270.2308 
  12   2.0000      -0.981679       -26.7128 
  13   2.0000      -0.945718       -25.7343 
  14   2.0000      -0.934440       -25.4274 
  15   2.0000      -0.927211       -25.2307 
  16   2.0000      -0.913789       -24.8655 
  17   2.0000      -0.912259       -24.8238 
  18   2.0000      -0.703318       -19.1382 
  19   2.0000      -0.690010       -18.7761 
  20   2.0000      -0.625341       -17.0164 
  21   2.0000      -0.583273       -15.8717 
  22   2.0000      -0.569505       -15.4970 
  23   2.0000      -0.516461       -14.0536 
  24   2.0000      -0.506039       -13.7700 
  25   2.0000      -0.490832       -13.3562 
  26   2.0000      -0.478627       -13.0241 
  27   2.0000      -0.466258       -12.6875 
  28   2.0000      -0.447140       -12.1673 
  29   2.0000      -0.431450       -11.7404 
  30   2.0000      -0.404615       -11.0101 
  31   2.0000      -0.401216       -10.9176 
  32   2.0000      -0.383578       -10.4377 
  33   2.0000      -0.376347       -10.2409 
  34   2.0000      -0.366272        -9.9668 
  35   2.0000      -0.348772        -9.4906 
  36   2.0000      -0.333932        -9.0868 
  37   2.0000      -0.310484        -8.4487 
  38   2.0000      -0.295365        -8.0373 
  39   2.0000      -0.288237        -7.8433 
  40   2.0000      -0.279681        -7.6105 
  41   2.0000      -0.271464        -7.3869 
  42   2.0000      -0.255299        -6.9470 
  43   2.0000      -0.251421        -6.8415 
  44   2.0000      -0.232325        -6.3219 
  45   2.0000      -0.228691        -6.2230 
  46   2.0000      -0.214312        -5.8317 
  47   2.0000      -0.198396        -5.3986 
  48   0.0000       0.008342         0.2270 
  49   0.0000       0.018008         0.4900 
  50   0.0000       0.027894         0.7590 
  51   0.0000       0.038481         1.0471 
  52   0.0000       0.059466         1.6182 
  53   0.0000       0.062270         1.6944 
  54   0.0000       0.074632         2.0308 
  55   0.0000       0.077229         2.1015 
  56   0.0000       0.088182         2.3995 
  57   0.0000       0.115640         3.1467 
  58   0.0000       0.121036         3.2936 
*Only the first 10 virtual orbitals were printed.

                    ********************************
                    * MULLIKEN POPULATION ANALYSIS *
                    ********************************

-----------------------
MULLIKEN ATOMIC CHARGES
-----------------------
   0 C :    0.007348
   1 C :    0.045275
   2 H :    0.062135
   3 C :    0.057499
   4 H :    0.042910
   5 C :    0.078364
   6 H :    0.072322
   7 C :   -0.015133
   8 H :    0.070024
   9 C :    0.200202
  10 H :    0.061715
  11 O :   -0.303648
  12 O :   -0.398668
  13 O :   -0.420725
  14 O :   -0.414799
  15 O :   -0.406706
  16 O :   -0.433522
  17 H :    0.082056
  18 H :    0.094258
  19 H :    0.303624
  20 H :    0.310990
  21 H :    0.303595
  22 H :    0.299687
  23 H :    0.301197
Sum of atomic charges:   -0.0000000

--------------------------------
MULLIKEN REDUCED ORBITAL CHARGES
--------------------------------
  0 C s       :     3.045223  s :     3.045223
      pz      :     1.011344  p :     2.884764
      px      :     0.801813
      py      :     1.071607
      dz2     :     0.009867  d :     0.062665
      dxz     :     0.019762
      dyz     :     0.006089
      dx2y2   :     0.017158
      dxy     :     0.009788

  1 C s       :     3.057040  s :     3.057040
      pz      :     0.979212  p :     2.832724
      px      :     0.879053
      py      :     0.974459
      dz2     :     0.009568  d :     0.064960
      dxz     :     0.017956
      dyz     :     0.010372
      dx2y2   :     0.014252
      dxy     :     0.012811

  2 H s       :     0.937865  s :     0.937865

  3 C s       :     3.042939  s :     3.042939
      pz      :     0.894282  p :     2.832544
      px      :     1.037958
      py      :     0.900304
      dz2     :     0.017379  d :     0.067017
      dxz     :     0.011217
      dyz     :     0.014034
      dx2y2   :     0.014858
      dxy     :     0.009530

  4 H s       :     0.957090  s :     0.957090

  5 C s       :     3.042414  s :     3.042414
      pz      :     0.951340  p :     2.811156
      px      :     1.022454
      py      :     0.837362
      dz2     :     0.017744  d :     0.068066
      dxz     :     0.007785
      dyz     :     0.015840
      dx2y2   :     0.015141
      dxy     :     0.011557

  6 H s       :     0.927678  s :     0.927678

  7 C s       :     3.085352  s :     3.085352
      pz      :     1.069519  p :     2.863440
      px      :     0.782494
      py      :     1.011427
      dz2     :     0.011346  d :     0.066341
      dxz     :     0.014912
      dyz     :     0.008900
      dx2y2   :     0.016374
      dxy     :     0.014809

  8 H s       :     0.929976  s :     0.929976

  9 C s       :     2.983489  s :     2.983489
      pz      :     0.939768  p :     2.716402
      px      :     0.883129
      py      :     0.893504
      dz2     :     0.012277  d :     0.099907
      dxz     :     0.026570
      dyz     :     0.022794
      dx2y2   :     0.022150
      dxy     :     0.016116

 10 H s       :     0.938285  s :     0.938285

 11 O s       :     3.746827  s :     3.746827
      pz      :     1.611993  p :     4.541520
      px      :     1.213948
      py      :     1.715578
      dz2     :     0.002316  d :     0.015301
      dxz     :     0.005714
      dyz     :     0.002217
      dx2y2   :     0.002716
      dxy     :     0.002337

 12 O s       :     3.773980  s :     3.773980
      pz      :     1.554600  p :     4.609685
      px      :     1.868166
      py      :     1.186920
      dz2     :     0.002247  d :     0.015003
      dxz     :     0.001601
      dyz     :     0.008048
      dx2y2   :     0.002449
      dxy     :     0.000658

 13 O s       :     3.781106  s :     3.781106
      pz      :     1.784029  p :     4.624395
      px      :     1.253782
      py      :     1.586584
      dz2     :     0.001473  d :     0.015224
      dxz     :     0.002477
      dyz     :     0.003375
      dx2y2   :     0.002755
      dxy     :     0.005143

 14 O s       :     3.782433  s :     3.782433
      pz      :     1.705568  p :     4.616860
      px      :     1.361326
      py      :     1.549966
      dz2     :     0.003133  d :     0.015506
      dxz     :     0.000901
      dyz     :     0.003132
      dx2y2   :     0.006864
      dxy     :     0.001476

 15 O s       :     3.784871  s :     3.784871
      pz      :     1.627065  p :     4.606416
      px      :     1.265327
      py      :     1.714024
      dz2     :     0.003689  d :     0.015419
      dxz     :     0.001534
      dyz     :     0.003275
      dx2y2   :     0.006040
      dxy     :     0.000881

 16 O s       :     3.783746  s :     3.783746
      pz      :     1.718636  p :     4.634187
      px      :     1.462386
      py      :     1.453166
      dz2     :     0.001446  d :     0.015589
      dxz     :     0.002146
      dyz     :     0.003809
      dx2y2   :     0.006267
      dxy     :     0.001921

 17 H s       :     0.917944  s :     0.917944

 18 H s       :     0.905742  s :     0.905742

 19 H s       :     0.696376  s :     0.696376

 20 H s       :     0.689010  s :     0.689010

 21 H s       :     0.696405  s :     0.696405

 22 H s       :     0.700313  s :     0.700313

 23 H s       :     0.698803  s :     0.698803


------------------------
MULLIKEN OVERLAP CHARGES
------------------------
B(  0-C ,  1-C ) :   0.4171 B(  0-C ,  3-C ) :  -0.0788 B(  0-C , 11-O ) :  -0.0877 
B(  0-C , 16-O ) :   0.6171 B(  0-C , 17-H ) :   0.6328 B(  0-C , 18-H ) :   0.7125 
B(  0-C , 23-H ) :  -0.0815 B(  1-C ,  2-H ) :   0.5685 B(  1-C ,  3-C ) :   0.2317 
B(  1-C ,  4-H ) :  -0.1718 B(  1-C ,  7-C ) :   0.0678 B(  1-C ,  9-C ) :  -0.1585 
B(  1-C , 11-O ) :   0.5687 B(  1-C , 15-O ) :  -0.0863 B(  1-C , 16-O ) :  -0.1182 
B(  1-C , 18-H ) :  -0.0693 B(  3-C ,  4-H ) :   0.5887 B(  3-C ,  7-C ) :   0.0817 
B(  3-C , 11-O ) :  -0.0992 B(  3-C , 14-O ) :  -0.1215 B(  3-C , 15-O ) :   0.6240 
B(  3-C , 22-H ) :  -0.0698 B(  4-H , 15-O ) :  -0.0605 B(  5-C ,  6-H ) :   0.5478 
B(  5-C , 13-O ) :  -0.1124 B(  5-C , 14-O ) :   0.6615 B(  5-C , 15-O ) :  -0.1129 
B(  5-C , 21-H ) :  -0.1130 B(  6-H ,  7-C ) :  -0.0550 B(  6-H , 14-O ) :  -0.0658 
B(  7-C ,  8-H ) :   0.5932 B(  7-C ,  9-C ) :   0.2931 B(  7-C , 11-O ) :  -0.1653 
B(  7-C , 12-O ) :  -0.1418 B(  7-C , 13-O ) :   0.6026 B(  7-C , 14-O ) :  -0.0693 
B(  7-C , 20-H ) :  -0.0904 B(  8-H ,  9-C ) :  -0.0620 B(  8-H , 13-O ) :  -0.0638 
B(  9-C , 10-H ) :   0.6421 B(  9-C , 11-O ) :   0.6753 B(  9-C , 12-O ) :   0.6629 
B(  9-C , 13-O ) :  -0.0701 B( 10-H , 11-O ) :  -0.0686 B( 10-H , 12-O ) :  -0.0687 
B( 11-O , 12-O ) :  -0.1354 B( 12-O , 19-H ) :   0.4905 B( 13-O , 20-H ) :   0.5306 
B( 14-O , 21-H ) :   0.5329 B( 15-O , 22-H ) :   0.5122 B( 16-O , 17-H ) :  -0.0512 
B( 16-O , 23-H ) :   0.5345 B( 17-H , 18-H ) :  -0.0705 


                     *******************************
                     * LOEWDIN POPULATION ANALYSIS *
                     *******************************

----------------------
LOEWDIN ATOMIC CHARGES
----------------------
   0 C :   -0.144011
   1 C :   -0.076368
   2 H :    0.118064
   3 C :   -0.063538
   4 H :    0.095622
   5 C :   -0.055917
   6 H :    0.115811
   7 C :   -0.091557
   8 H :    0.106637
   9 C :   -0.014220
  10 H :    0.099748
  11 O :   -0.140871
  12 O :   -0.314151
  13 O :   -0.316906
  14 O :   -0.316907
  15 O :   -0.313697
  16 O :   -0.333160
  17 H :    0.114506
  18 H :    0.100231
  19 H :    0.286170
  20 H :    0.293657
  21 H :    0.284917
  22 H :    0.284836
  23 H :    0.281103

-------------------------------
LOEWDIN REDUCED ORBITAL CHARGES
-------------------------------
  0 C s       :     2.924917  s :     2.924917
      pz      :     1.074981  p :     3.075349
      px      :     0.907382
      py      :     1.092986
      dz2     :     0.022257  d :     0.143746
      dxz     :     0.046041
      dyz     :     0.015763
      dx2y2   :     0.039342
      dxy     :     0.020342

  1 C s       :     2.912464  s :     2.912464
      pz      :     1.052097  p :     3.013375
      px      :     0.933564
      py      :     1.027714
      dz2     :     0.021252  d :     0.150529
      dxz     :     0.042154
      dyz     :     0.025099
      dx2y2   :     0.034395
      dxy     :     0.027630

  2 H s       :     0.881936  s :     0.881936

  3 C s       :     2.894128  s :     2.894128
      pz      :     0.983489  p :     3.013396
      px      :     1.038776
      py      :     0.991130
      dz2     :     0.042077  d :     0.156015
      dxz     :     0.023044
      dyz     :     0.030682
      dx2y2   :     0.040868
      dxy     :     0.019344

  4 H s       :     0.904378  s :     0.904378

  5 C s       :     2.890524  s :     2.890524
      pz      :     1.032836  p :     3.007499
      px      :     1.051159
      py      :     0.923504
      dz2     :     0.041641  d :     0.157895
      dxz     :     0.015112
      dyz     :     0.036846
      dx2y2   :     0.037418
      dxy     :     0.026879

  6 H s       :     0.884189  s :     0.884189

  7 C s       :     2.899594  s :     2.899594
      pz      :     1.095349  p :     3.035239
      px      :     0.874754
      py      :     1.065136
      dz2     :     0.026528  d :     0.156724
      dxz     :     0.032314
      dyz     :     0.024241
      dx2y2   :     0.038274
      dxy     :     0.035367

  8 H s       :     0.893363  s :     0.893363

  9 C s       :     2.888335  s :     2.888335
      pz      :     1.007226  p :     2.900830
      px      :     0.943150
      py      :     0.950453
      dz2     :     0.021529  d :     0.225054
      dxz     :     0.062818
      dyz     :     0.057535
      dx2y2   :     0.051630
      dxy     :     0.031541

 10 H s       :     0.900252  s :     0.900252

 11 O s       :     3.468648  s :     3.468648
      pz      :     1.639844  p :     4.642341
      px      :     1.282335
      py      :     1.720161
      dz2     :     0.003471  d :     0.029882
      dxz     :     0.011925
      dyz     :     0.003026
      dx2y2   :     0.006213
      dxy     :     0.005247

 12 O s       :     3.540444  s :     3.540444
      pz      :     1.622787  p :     4.746847
      px      :     1.864192
      py      :     1.259869
      dz2     :     0.003159  d :     0.026861
      dxz     :     0.001807
      dyz     :     0.015104
      dx2y2   :     0.005350
      dxy     :     0.001440

 13 O s       :     3.532017  s :     3.532017
      pz      :     1.802461  p :     4.758076
      px      :     1.326387
      py      :     1.629228
      dz2     :     0.002449  d :     0.026813
      dxz     :     0.004391
      dyz     :     0.004821
      dx2y2   :     0.005729
      dxy     :     0.009423

 14 O s       :     3.534136  s :     3.534136
      pz      :     1.743094  p :     4.755671
      px      :     1.429552
      py      :     1.583025
      dz2     :     0.004827  d :     0.027100
      dxz     :     0.001482
      dyz     :     0.005895
      dx2y2   :     0.012188
      dxy     :     0.002706

 15 O s       :     3.540065  s :     3.540065
      pz      :     1.677555  p :     4.746496
      px      :     1.341153
      py      :     1.727787
      dz2     :     0.005942  d :     0.027136
      dxz     :     0.002979
      dyz     :     0.005714
      dx2y2   :     0.010610
      dxy     :     0.001891

 16 O s       :     3.537733  s :     3.537733
      pz      :     1.732513  p :     4.768307
      px      :     1.528502
      py      :     1.507292
      dz2     :     0.002285  d :     0.027120
      dxz     :     0.003657
      dyz     :     0.006497
      dx2y2   :     0.011333
      dxy     :     0.003348

 17 H s       :     0.885494  s :     0.885494

 18 H s       :     0.899769  s :     0.899769

 19 H s       :     0.713830  s :     0.713830

 20 H s       :     0.706343  s :     0.706343

 21 H s       :     0.715083  s :     0.715083

 22 H s       :     0.715164  s :     0.715164

 23 H s       :     0.718897  s :     0.718897


---------------------------------
LOEWDIN BOND ORDERS (THRESH 0.050000)
---------------------------------
B(  0-C ,  1-C ) :   1.0511 B(  0-C ,  3-C ) :   0.0568 B(  0-C , 11-O ) :   0.0682 
B(  0-C , 16-O ) :   1.2390 B(  0-C , 17-H ) :   0.9063 B(  0-C , 18-H ) :   0.9046 
B(  1-C ,  2-H ) :   0.8740 B(  1-C ,  3-C ) :   1.0151 B(  1-C ,  5-C ) :   0.0523 
B(  1-C ,  9-C ) :   0.0627 B(  1-C , 11-O ) :   1.1356 B(  1-C , 15-O ) :   0.0800 
B(  1-C , 16-O ) :   0.0876 B(  3-C ,  4-H ) :   0.8626 B(  3-C ,  5-C ) :   1.0203 
B(  3-C ,  7-C ) :   0.0546 B(  3-C , 11-O ) :   0.0559 B(  3-C , 14-O ) :   0.0623 
B(  3-C , 15-O ) :   1.2223 B(  5-C ,  6-H ) :   0.8618 B(  5-C ,  7-C ) :   1.0207 
B(  5-C ,  9-C ) :   0.0555 B(  5-C , 13-O ) :   0.0630 B(  5-C , 14-O ) :   1.2300 
B(  5-C , 15-O ) :   0.0666 B(  7-C ,  8-H ) :   0.8645 B(  7-C ,  9-C ) :   1.0128 
B(  7-C , 11-O ) :   0.0566 B(  7-C , 12-O ) :   0.0654 B(  7-C , 13-O ) :   1.2136 
B(  7-C , 14-O ) :   0.0847 B(  9-C , 10-H ) :   0.8803 B(  9-C , 11-O ) :   1.2004 
B(  9-C , 12-O ) :   1.2586 B(  9-C , 13-O ) :   0.0817 B( 11-O , 12-O ) :   0.0970 
B( 12-O , 19-H ) :   0.8749 B( 13-O , 20-H ) :   0.8787 B( 14-O , 21-H ) :   0.8734 
B( 15-O , 22-H ) :   0.8832 B( 16-O , 23-H ) :   0.8883 

------------------------------------------
LOEWDIN REDUCED ORBITAL POPULATIONS PER MO
-------------------------------------------
THRESHOLD FOR PRINTING IS 0.1%%
                      0         1         2         3         4         5   
                 -18.76860 -18.76709 -18.76575 -18.75352 -18.74768 -18.74299
                   2.00000   2.00000   2.00000   2.00000   2.00000   2.00000
                  --------  --------  --------  --------  --------  --------
11 O  s               0.0      99.9       0.0       0.0       0.0       0.0
12 O  s              99.9       0.0       0.0       0.0       0.0       0.0
13 O  s               0.0       0.0      99.9       0.0       0.0       0.0
14 O  s               0.0       0.0       0.0       0.0       0.0      99.9
15 O  s               0.0       0.0       0.0       0.0      99.9       0.0
16 O  s               0.0       0.0       0.0      99.9       0.0       0.0

                      6         7         8         9        10        11   
                  -9.98592  -9.94503  -9.94497  -9.94076  -9.93929  -9.93080
                   2.00000   2.00000   2.00000   2.00000   2.00000   2.00000
                  --------  --------  --------  --------  --------  --------
 0 C  s               0.0       0.0       0.0       0.0       0.0      99.6
 1 C  s               0.0       0.0       0.0       0.0      99.6       0.0
 3 C  s               0.0      93.8       5.8       0.0       0.0       0.0
 3 C  px              0.0       0.0       0.0       0.1       0.0       0.0
 5 C  s               0.0       0.0       0.0      99.6       0.0       0.0
 5 C  px              0.0       0.1       0.0       0.0       0.0       0.0
 7 C  s               0.0       5.8      93.8       0.0       0.0       0.0
 9 C  s              99.6       0.0       0.0       0.0       0.0       0.0
13 O  px              0.0       0.0       0.1       0.0       0.0       0.0

                     12        13        14        15        16        17   
                  -0.98168  -0.94572  -0.93444  -0.92721  -0.91379  -0.91226
                   2.00000   2.00000   2.00000   2.00000   2.00000   2.00000
                  --------  --------  --------  --------  --------  --------
 0 C  s               0.4       0.0       3.0       7.2       0.1       0.0
 0 C  pz              0.2       0.0       0.0       0.8       0.5       0.0
 0 C  px              0.1       0.0       1.2       5.5       0.6       0.0
 0 C  py              0.1       0.0       0.5       0.7       0.0       0.0
 0 C  dxz             0.0       0.0       0.1       0.2       0.0       0.0
 0 C  dx2y2           0.0       0.0       0.1       0.2       0.0       0.0
 0 C  dxy             0.0       0.0       0.0       0.2       0.0       0.0
 1 C  s               4.1       0.2       2.7       0.1       2.8       0.1
 1 C  pz              0.4       0.1       0.1       0.7       0.9       0.0
 1 C  px              2.6       0.2       0.1       0.4       2.3       0.3
 1 C  py              0.5       0.3       0.2       0.6       0.7       0.6
 1 C  dxz             0.1       0.0       0.0       0.0       0.1       0.0
 1 C  dxy             0.1       0.0       0.0       0.0       0.1       0.0
 2 H  s               0.5       0.0       0.6       0.0       0.3       0.0
 3 C  s               0.8       0.7       7.2       1.8       0.1       1.3
 3 C  pz              0.1       0.0       1.8       0.7       0.0       1.7
 3 C  px              0.0       0.2       0.4       0.1       0.0       2.3
 3 C  py              0.2       0.4       0.8       1.0       1.1       0.8
 3 C  dyz             0.0       0.0       0.2       0.1       0.0       0.2
 4 H  s               0.1       0.1       1.1       0.1       0.0       0.1
 5 C  s               0.8       4.4       1.8       0.7       0.7       3.7
 5 C  pz              0.0       1.1       0.0       0.0       0.3       1.9
 5 C  px              0.0       0.6       1.0       0.3       0.0       0.6
 5 C  py              0.2       0.4       0.6       0.4       1.4       3.5
 5 C  dyz             0.0       0.1       0.0       0.0       0.1       0.3
 5 C  dx2y2           0.0       0.0       0.0       0.0       0.0       0.2
 6 H  s               0.2       0.6       0.3       0.1       0.1       0.3
 7 C  s               3.0       7.6       0.5       0.2       0.2       0.2
 7 C  pz              0.5       0.0       0.0       0.0       0.0       0.0
 7 C  px              0.1       5.3       1.4       0.7       0.3       1.6
 7 C  py              0.7       1.7       0.2       0.0       0.0       0.4
 7 C  dz2             0.0       0.2       0.0       0.0       0.0       0.0
 7 C  dx2y2           0.0       0.3       0.0       0.0       0.1       0.1
 8 H  s               0.5       0.9       0.1       0.0       0.0       0.0
 9 C  s              15.7       0.3       0.4       0.0       0.0       0.0
 9 C  pz              0.1       0.2       0.9       0.0       4.1       0.5
 9 C  px              2.4       0.9       0.7       0.0       2.9       0.6
 9 C  py              1.2       1.5       0.7       0.0       4.8       0.1
 9 C  dxz             0.2       0.0       0.0       0.0       0.2       0.0
 9 C  dyz             0.2       0.1       0.0       0.0       0.3       0.0
 9 C  dx2y2           0.0       0.0       0.1       0.0       0.6       0.1
10 H  s               1.9       0.0       0.1       0.0       0.0       0.0
11 O  s              25.6       2.7       2.2       0.1      21.1       2.4
11 O  pz              1.7       0.1       0.1       0.0       0.6       0.1
11 O  px              0.3       0.0       0.2       0.0       0.1       0.0
11 O  py              0.1       0.0       0.1       0.0       0.4       0.0
12 O  s              22.1       2.2       6.6       0.0      28.3       1.2
12 O  pz              1.7       0.2       0.3       0.0       1.1       0.0
12 O  py              0.3       0.0       0.0       0.0       0.1       0.0
13 O  s               2.8      39.3       5.1       3.0       2.9       5.9
13 O  pz              0.0       0.3       0.0       0.0       0.0       0.1
13 O  px              0.1       0.6       0.0       0.0       0.0       0.0
13 O  py              0.1       1.2       0.2       0.1       0.1       0.3
14 O  s               0.4      11.1       4.2       2.5       6.4      33.1
14 O  pz              0.0       0.2       0.1       0.0       0.1       0.4
14 O  px              0.0       0.3       0.0       0.0       0.1       0.9
14 O  py              0.0       0.4       0.1       0.1       0.1       0.6
15 O  s               0.5       1.3      25.4       9.7       1.5      19.8
15 O  pz              0.0       0.1       0.8       0.3       0.0       0.4
15 O  px              0.0       0.0       0.2       0.1       0.0       0.4
15 O  py              0.0       0.0       0.5       0.2       0.0       0.3
16 O  s               0.2       0.1      12.3      44.2       2.5       0.0
16 O  px              0.0       0.0       0.6       1.9       0.1       0.0
16 O  py              0.0       0.0       0.2       0.6       0.0       0.0
17 H  s               0.1       0.0       0.4       0.8       0.0       0.0
18 H  s               0.1       0.0       0.3       0.8       0.0       0.0
19 H  s               4.4       0.5       1.3       0.0       5.7       0.2
20 H  s               0.6       7.6       1.1       0.6       0.6       1.3
21 H  s               0.1       2.7       0.7       0.4       1.2       6.4
22 H  s               0.1       0.2       5.1       1.9       0.3       4.1
23 H  s               0.0       0.0       2.6       9.1       0.5       0.0

                     18        19        20        21        22        23   
                  -0.70332  -0.69001  -0.62534  -0.58327  -0.56950  -0.51646
                   2.00000   2.00000   2.00000   2.00000   2.00000   2.00000
                  --------  --------  --------  --------  --------  --------
 0 C  s               1.5       5.7      14.7       1.4       7.8       0.0
 0 C  pz              0.4       2.2       0.4       0.1       0.9       0.0
 0 C  px              0.5       1.0       0.8       0.0       0.1       0.2
 0 C  py              0.3       0.2       0.3       0.0       3.1       0.6
 1 C  s               4.9      14.9       1.1       0.4       5.1       0.2
 1 C  pz              1.6       0.1       2.7       3.6       1.2       0.8
 1 C  px              0.1       0.5       1.7       0.5       0.1       1.5
 1 C  py              2.3       0.2       3.1       1.8       3.1       3.9
 1 C  dyz             0.0       0.0       0.2       0.0       0.1       0.0
 2 H  s               0.7       3.6       0.3       0.4       2.4       0.1
 3 C  s              11.8       1.3       4.9       5.9       0.8       1.6
 3 C  pz              0.6       0.0       0.0       0.9       0.0       0.0
 3 C  px              2.8       0.8       1.8       0.1       3.4       3.4
 3 C  py              1.9       2.5       0.5       0.2       3.8       1.5
 3 C  dx2y2           0.0       0.1       0.0       0.0       0.1       0.0
 4 H  s               2.4       0.3       1.0       2.8       0.3       0.9
 5 C  s              11.8       1.6       2.9       0.7       5.8       1.6
 5 C  pz              0.0       0.0       0.5       0.1       0.5       0.1
 5 C  px              1.3       0.8       3.2       6.2       0.0       1.0
 5 C  py              4.6       1.4       0.2       1.6       0.2       1.6
 5 C  dyz             0.1       0.0       0.0       0.1       0.0       0.0
 6 H  s               2.0       0.4       0.8       0.3       2.3       0.2
 7 C  s               7.6       8.0       3.5       5.8       0.5       0.1
 7 C  pz              0.3       1.2       0.0       0.4       0.2       1.9
 7 C  px              3.1       1.3       0.0       0.1       0.0       2.2
 7 C  py              0.4       0.6       2.3       4.2       5.1       2.1
 7 C  dyz             0.0       0.0       0.0       0.1       0.1       0.0
 8 H  s               1.8       1.3       1.2       1.5       0.5       0.9
 9 C  s               0.1      10.4       3.3       6.4       1.2       0.2
 9 C  pz              2.0       0.1       1.4       1.4       3.6      12.0
 9 C  px              0.7       0.2       0.7       0.1       1.9       0.2
 9 C  py              1.7       2.6       0.8       0.8       0.2       0.7
 9 C  dx2y2           0.1       0.0       0.0       0.1       0.0       0.0
10 H  s               0.0       2.5       0.6       2.9       0.1       2.5
11 O  s               4.3       0.0       1.6       0.5       0.9       0.0
11 O  pz              0.1       0.0       0.4       0.1       0.1       0.6
11 O  px              0.6      11.2       0.1      10.3       2.6       7.4
11 O  py              0.5       0.4       0.1       0.8       1.2       0.0
11 O  dxz             0.0       0.1       0.0       0.1       0.0       0.0
12 O  s               0.0       2.0       0.6       1.1       0.0       0.2
12 O  pz              0.1       0.1       0.0       0.6       0.1       1.1
12 O  px              0.0       0.0       0.0       0.0       0.2       0.0
12 O  py              0.1       3.5       4.5       6.1       6.5      14.8
12 O  dyz             0.0       0.1       0.1       0.1       0.1       0.1
13 O  s               1.5       2.1       0.9       0.5       0.3       0.1
13 O  pz              0.2       0.3       0.1       0.5       0.0       1.9
13 O  px              1.9       2.3       1.9       9.1       0.1       7.1
13 O  py              0.1       0.1       0.0       1.5       0.3       2.0
14 O  s               3.6       0.5       0.5       0.5       1.1       0.0
14 O  pz              0.4       0.0       0.5       0.0       1.6       1.4
14 O  px              1.4       0.1       1.4       0.3       2.3       5.1
14 O  py              1.3       0.2       0.6       0.3       2.7       2.2
15 O  s               3.1       0.5       0.9       0.8       0.4       0.4
15 O  pz              0.5       0.0       0.7       1.5       0.0       0.4
15 O  px              2.2       0.1       3.1       3.0       0.0       0.1
15 O  py              0.6       0.2       0.5       0.8       0.6       1.0
16 O  s               0.7       1.6       2.1       0.3       0.4       0.1
16 O  pz              0.1       0.5       1.8       0.3       1.4       0.2
16 O  px              0.2       0.6       3.0       0.6       3.2       0.2
16 O  py              0.1       0.5       3.1       0.4       5.4       0.0
17 H  s               0.2       1.4       4.4       0.3       4.2       0.1
18 H  s               0.5       1.0       3.9       0.6       2.4       0.1
19 H  s               0.0       1.5       1.6       2.0       1.9       4.5
20 H  s               1.0       1.3       0.8       3.3       0.0       3.2
21 H  s               1.9       0.2       0.8       0.0       2.1       2.6
22 H  s               1.8       0.2       1.6       1.7       0.0       0.2
23 H  s               0.3       0.9       2.9       0.4       2.9       0.1

                     24        25        26        27        28        29   
                  -0.50604  -0.49083  -0.47863  -0.46626  -0.44714  -0.43145
                   2.00000   2.00000   2.00000   2.00000   2.00000   2.00000
                  --------  --------  --------  --------  --------  --------
 0 C  s               0.1       0.1       0.1       1.2       0.8       0.0
 0 C  pz              1.4       1.6       1.0       0.5       0.2       5.8
 0 C  px              3.0       0.9       0.2      16.0       5.0       0.2
 0 C  py              0.4       2.9       0.0       0.2       0.4       0.6
 0 C  dz2             0.0       0.0       0.0       0.1       0.1       0.0
 0 C  dx2y2           0.0       0.0       0.0       0.1       0.1       0.1
 1 C  s               1.3       2.4       0.1       0.0       0.0       1.0
 1 C  pz              5.6       1.2       0.3       3.6       0.1       0.3
 1 C  px              1.8       1.8       2.5       0.8       0.1      10.7
 1 C  py              0.2       0.1       1.0       1.0       2.7       0.4
 1 C  dxz             0.0       0.1       0.0       0.0       0.0       0.2
 1 C  dyz             0.0       0.0       0.0       0.1       0.0       0.2
 2 H  s               3.6       1.3       0.8       1.2       0.0       4.0
 3 C  s               0.8       1.3       0.2       0.0       0.3       1.2
 3 C  pz              9.6       3.0       3.6       0.6       0.1       6.9
 3 C  px              0.6       0.1       2.3       0.0       0.1       0.3
 3 C  py              0.1       5.1       2.5       0.2       2.3       0.2
 3 C  dz2             0.0       0.1       0.0       0.0       0.0       0.0
 3 C  dyz             0.0       0.2       0.0       0.1       0.0       0.2
 4 H  s               4.8       0.0       3.1       0.1       0.1       4.3
 5 C  s               1.4       2.5       0.3       0.1       0.6       0.1
 5 C  pz              8.4       0.1       5.8       4.0       0.4       0.2
 5 C  px              0.9       0.9       0.1       1.0       1.4       1.2
 5 C  py              1.1       0.1       5.2       0.3       1.5       0.1
 5 C  dx2y2           0.0       0.1       0.0       0.1       0.1       0.1
 6 H  s               5.1       0.8       1.9       2.0       0.7       0.0
 7 C  s               1.0       1.2       0.1       1.0       0.7       1.0
 7 C  pz              7.5       3.3       1.9       1.6       0.1       7.6
 7 C  px              2.1       0.7       6.7       1.8       0.2       2.4
 7 C  py              0.0       0.6       1.0       1.4       6.6       0.2
 7 C  dz2             0.0       0.0       0.1       0.1       0.1       0.1
 7 C  dyz             0.0       0.0       0.0       0.0       0.1       0.0
 7 C  dxy             0.0       0.1       0.1       0.1       0.0       0.0
 8 H  s               4.8       1.9       0.0       2.3       0.4       5.6
 9 C  s               1.4       0.9       0.0       0.1       0.6       0.0
 9 C  pz              0.6       2.6       0.4       0.3       1.6       1.0
 9 C  px              6.8       0.6       0.5       0.7       8.9       3.5
 9 C  py              0.1       0.0       5.2       1.5       6.3       0.5
 9 C  dyz             0.0       0.0       0.0       0.1       0.4       0.1
10 H  s               3.3       2.3       0.3       0.4       5.4       0.1
11 O  s               0.2       0.9       0.9       0.2       0.0       0.3
11 O  pz              0.9       0.1       0.8       1.8       0.8       0.1
11 O  px              1.9       1.0       0.3       0.0       1.8       6.0
11 O  py              0.4       0.0       3.6       0.7       0.8       4.3
12 O  s               0.0       0.2       0.1       0.0       0.3       0.5
12 O  pz              0.4       0.9       0.7       0.0       0.0       0.7
12 O  px              1.0       0.1       0.0       0.7       1.8       1.3
12 O  py              2.3       0.2       3.6       3.1      11.8       0.7
12 O  dyz             0.0       0.0       0.1       0.0       0.1       0.0
13 O  s               0.0       0.1       0.0       0.7       1.2       0.4
13 O  pz              1.6       0.0       0.6       1.6       0.0       4.7
13 O  px              0.0       4.5      13.2       1.8       0.0       1.1
13 O  py              0.0       0.1       1.4       2.8       5.8       0.1
14 O  s               0.1       0.1       0.0       0.3       0.9       0.1
14 O  pz              1.4       1.4       1.0       0.2       0.1       0.2
14 O  px              0.0       1.9       8.9       1.5       4.6       0.0
14 O  py              0.0       2.9       5.2       0.3       0.1       1.0
14 O  dx2y2           0.0       0.1       0.1       0.0       0.0       0.0
15 O  s               0.1       0.1       0.2       0.2       0.2       0.4
15 O  pz              0.1       3.6       1.3       0.0       0.2       0.1
15 O  px              3.6      20.6       0.0       1.8       1.9       6.4
15 O  py              0.6       2.9       0.0       0.0       0.1       1.7
15 O  dx2y2           0.0       0.1       0.0       0.0       0.0       0.0
16 O  s               0.2       0.2       0.0       1.0       0.4       0.0
16 O  pz              1.1       0.2       0.1       7.5       3.4       0.1
16 O  px              0.0       0.5       0.0       1.5       0.6       1.0
16 O  py              1.4       3.6       0.1      12.1       3.5       3.2
17 H  s               0.1       0.7       0.0       0.1       0.6       0.0
18 H  s               1.9       0.1       0.5       5.6       2.5       0.5
19 H  s               0.5       0.1       0.9       0.9       3.3       0.3
20 H  s               0.1       1.0       4.2       1.5       0.2       0.9
21 H  s               0.0       1.6       4.2       0.4       1.2       0.1
22 H  s               1.1       7.8       0.0       0.5       0.5       2.1
23 H  s               0.7       1.0       0.0       5.9       2.1       0.6

                     30        31        32        33        34        35   
                  -0.40462  -0.40122  -0.38358  -0.37635  -0.36627  -0.34877
                   2.00000   2.00000   2.00000   2.00000   2.00000   2.00000
                  --------  --------  --------  --------  --------  --------
 0 C  s               0.2       0.0       0.0       0.1       0.1       0.1
 0 C  pz             15.5       5.2       0.8       1.0       0.4       0.0
 0 C  px              0.8       0.2       0.1       0.4       0.2       0.0
 0 C  py              0.0       6.6       4.0      16.7       8.7       0.1
 0 C  dx2y2           0.0       0.1       0.0       0.1       0.1       0.0
 1 C  s               0.0       0.3       0.4       0.1       0.0       0.2
 1 C  pz              3.6       0.3       0.2       5.2       0.1       2.0
 1 C  px              0.3       0.3       3.2       0.9       0.1       8.0
 1 C  py              4.1       7.3       0.4       2.2       2.5       0.1
 1 C  dxz             0.0       0.0       0.0       0.2       0.1       0.1
 1 C  dxy             0.0       0.0       0.1       0.0       0.1       0.2
 2 H  s               0.2       0.1       0.4       2.3       0.2       5.3
 3 C  s               0.0       0.5       0.0       0.1       0.7       0.1
 3 C  pz              1.3       5.4       3.2       0.4       0.2       0.2
 3 C  px              0.1       0.3       6.9       7.4       1.5       6.6
 3 C  py              2.5       4.1       2.9       0.1       2.8       0.3
 3 C  dxz             0.0       0.0       0.1       0.1       0.1       0.0
 3 C  dyz             0.0       0.0       0.0       0.1       0.2       0.0
 3 C  dx2y2           0.0       0.2       0.0       0.0       0.0       0.1
 3 C  dxy             0.0       0.1       0.0       0.0       0.1       0.1
 4 H  s               0.6       3.9       5.0       0.1       0.0       0.1
 5 C  s               0.2       0.6       0.5       0.0       0.2       0.0
 5 C  pz              0.5       0.2       7.7       2.0       9.0       0.2
 5 C  px              0.2       0.0       5.0       3.9       3.0       6.6
 5 C  py              0.4       6.0       1.7       0.1       1.8       2.7
 5 C  dxz             0.0       0.0       0.1       0.0       0.1       0.0
 5 C  dyz             0.0       0.3       0.1       0.1       0.0       0.0
 5 C  dx2y2           0.0       0.2       0.0       0.1       0.0       0.1
 5 C  dxy             0.0       0.0       0.0       0.0       0.1       0.0
 6 H  s               0.0       0.1       7.9       0.5       3.9       0.7
 7 C  s               0.1       0.1       0.2       0.0       0.0       0.0
 7 C  pz              6.2       0.0       0.0       3.0       4.8       0.7
 7 C  px              0.3       2.4       0.1       1.0       5.0       0.1
 7 C  py              2.9       1.9       1.6       0.1       2.2       0.0
 7 C  dx2y2           0.0       0.0       0.1       0.1       0.3       0.0
 7 C  dxy             0.1       0.2       0.0       0.0       0.0       0.0
 8 H  s               2.4       0.1       0.7       0.8       1.1       0.3
 9 C  s               0.1       0.0       0.3       0.0       0.2       0.1
 9 C  pz              3.1       0.8       0.4       0.4       0.2       0.0
 9 C  px              4.1       2.6       0.0       1.1       0.4       0.5
 9 C  py              6.6       1.6       1.1       2.0       0.5       0.6
 9 C  dz2             0.1       0.0       0.1       0.0       0.0       0.2
 9 C  dxz             0.0       0.1       0.1       0.0       0.1       0.1
10 H  s               3.0       1.7       0.6       0.5       0.2       0.4
11 O  s               0.9       0.1       2.4       0.0       0.0       0.7
11 O  pz             10.5       1.1       5.4       0.2       0.4      10.2
11 O  px              0.4       3.4       0.0       1.1       2.1       2.8
11 O  py              0.0       3.5       0.9       0.6       0.2       0.5
12 O  s               0.1       0.4       0.8       0.7       0.0       2.9
12 O  pz              1.8       2.6       5.8       4.0       0.0      14.3
12 O  px              1.9       0.4       0.2       1.0       0.4       0.0
12 O  py              1.9       0.2       0.0       0.0       0.0       0.4
13 O  s               0.1       0.0       1.1       0.2       1.0       0.9
13 O  pz              2.6       0.2       0.4       1.0       2.6       1.8
13 O  px              0.2       2.6       0.2       2.3       8.2       0.1
13 O  py              0.3       0.2       2.7       0.6       4.6       1.6
14 O  s               0.4       1.0       0.8       0.0       0.1       1.0
14 O  pz              0.1       2.8       3.7       0.3       1.0       6.1
14 O  px              1.1       7.5       2.5       0.2       0.1       2.2
14 O  py              0.9       1.3       0.3       3.4       4.8       3.4
15 O  s               0.0       0.0       1.0       1.6       0.7       0.4
15 O  pz              0.9       1.4       4.6       2.9       2.0       3.8
15 O  px              0.2       0.1       0.7       1.3       4.4       0.4
15 O  py              0.8       1.2       0.0       6.8       0.1       2.5
16 O  s               0.5       0.2       1.0       0.1       0.4       0.7
16 O  pz              3.3       0.0       0.2       3.3       0.5       0.0
16 O  px              2.8       5.0       4.4       4.4       6.5       0.9
16 O  py              0.1       0.1       0.9       0.6       0.5       2.2
17 H  s               0.2       4.8       1.8       7.2       5.1       0.0
18 H  s               7.0       1.2       0.4       0.8       0.1       0.4
19 H  s               0.4       0.0       0.1       0.1       0.0       1.1
20 H  s               0.2       0.5       0.7       0.0       0.1       0.4
21 H  s               0.1       3.2       0.3       0.5       0.0       0.1
22 H  s               0.0       0.1       0.1       0.0       1.8       0.1
23 H  s               0.0       0.6       0.0       0.5       0.1       0.3

                     36        37        38        39        40        41   
                  -0.33393  -0.31048  -0.29537  -0.28824  -0.27968  -0.27146
                   2.00000   2.00000   2.00000   2.00000   2.00000   2.00000
                  --------  --------  --------  --------  --------  --------
 0 C  s               0.1       0.1       0.3       0.2       0.1       0.0
 0 C  pz              5.2       0.3       1.4       0.4       1.9       0.0
 0 C  px              0.1       0.0       0.0       3.5       2.0       0.1
 0 C  py              0.0       0.0       0.1       2.7       2.1       0.5
 0 C  dz2             0.1       0.0       0.0       0.0       0.2       0.0
 0 C  dyz             0.0       0.0       0.0       0.1       0.1       0.0
 0 C  dx2y2           0.0       0.0       0.0       0.3       0.4       0.1
 0 C  dxy             0.0       0.0       0.0       0.1       0.0       0.0
 1 C  s               0.0       0.2       0.3       0.0       0.7       0.0
 1 C  pz              6.6       0.9       1.3       2.5       0.8       0.1
 1 C  px              1.9       0.0       0.6       0.1       0.5       0.1
 1 C  py              0.0       0.1       0.2       0.1       1.9       1.0
 1 C  dxz             0.2       0.0       0.2       0.0       0.2       0.1
 1 C  dx2y2           0.0       0.1       0.0       0.2       0.2       0.0
 2 H  s               5.1       1.0       2.8       0.6       3.2       0.2
 3 C  s               0.0       0.1       0.2       0.0       0.3       0.9
 3 C  pz              0.0       0.6       4.6       0.1       0.0       1.5
 3 C  px              0.1       0.0       0.2       0.5       0.1       7.9
 3 C  py              0.7       0.6       0.1       0.9       3.2       0.6
 3 C  dz2             0.0       0.0       0.1       0.0       0.1       0.2
 3 C  dxz             0.0       0.1       0.1       0.0       0.0       0.2
 3 C  dx2y2           0.1       0.0       0.1       0.0       0.0       0.3
 4 H  s               0.1       0.5       2.5       0.2       0.1       4.0
 5 C  s               0.0       0.7       0.2       0.0       0.3       0.5
 5 C  pz              0.4       2.7       1.5       0.0       0.1       0.6
 5 C  px              0.5       0.3       0.1       0.4       0.0      10.2
 5 C  py              0.5       3.6       1.2       0.0       1.1       0.7
 5 C  dz2             0.0       0.0       0.1       0.0       0.0       0.2
 5 C  dxz             0.0       0.1       0.0       0.0       0.0       0.1
 5 C  dx2y2           0.0       0.0       0.0       0.0       0.1       0.2
 5 C  dxy             0.1       0.0       0.1       0.0       0.1       0.3
 6 H  s               0.1       1.4       0.7       0.2       0.1       2.6
 7 C  s               0.7       0.2       0.1       0.2       0.3       0.2
[...]
 3 C  dyz             0.1       0.1       1.6       3.5       1.7       0.1
 3 C  dx2y2           0.0       0.1       0.3       0.5       0.0       0.1
 3 C  dxy             0.0       0.0       0.1       2.8       0.0       0.0
 5 C  s               0.1       0.1       0.0       0.3       1.5       0.0
 5 C  pz              0.0       0.1       0.1       0.2       1.0       0.0
 5 C  px              0.0       0.0       0.3       0.1       0.1       0.0
 5 C  py              0.1       0.4       0.1       0.6       1.6       0.0
 5 C  dz2             0.0       0.0       0.1       0.1       0.0       0.0
 5 C  dxz             0.1       0.1       0.2       0.1       0.1       0.0
 5 C  dyz             0.2       0.7       0.1       1.2       5.2       0.0
 5 C  dx2y2           0.1       0.1       0.0       2.6       2.6       0.0
 5 C  dxy             0.0       0.3       0.2       0.6       0.1       0.0
 7 C  s               0.0       0.2       1.1       0.2       0.4       0.1
 7 C  px              0.1       0.4       2.5       0.3       0.5       0.2
 7 C  py              0.0       0.2       0.2       0.0       0.1       0.1
 7 C  dz2             0.1       0.5       1.0       0.0       1.1       0.2
 7 C  dxz             0.0       0.0       0.0       0.1       0.1       0.0
 7 C  dyz             0.0       0.3       0.0       0.0       0.0       0.0
 7 C  dx2y2           0.3       0.1       5.9       1.8       0.3       0.5
 7 C  dxy             0.0       0.2       2.6       0.2       0.1       0.0
 9 C  s               0.0       1.7       0.0       0.0       0.3       1.5
 9 C  pz              0.1       1.1       0.2       0.1       0.1       0.6
 9 C  px              0.1       0.1       0.1       0.1       0.0       1.9
 9 C  py              0.0       2.0       0.3       0.0       0.0       0.0
 9 C  dz2             0.0       0.0       0.0       0.1       0.2       0.5
 9 C  dxz             0.0       0.0       0.8       0.5       0.0       2.5
 9 C  dyz             0.0       7.6       1.1       0.1       0.3       0.2
 9 C  dx2y2           0.2       2.5       0.7       0.4       0.2       3.1
 9 C  dxy             0.0       0.3       0.6       0.0       0.0       0.2
11 O  s               0.0       0.1       0.2       0.1       0.2       0.0
11 O  px              0.2       0.0       0.1       0.1       0.2       5.7
11 O  py              0.1       0.0       0.1       0.0       0.1       0.5
11 O  dz2             0.7       0.0       0.1       0.4       0.4       0.0
11 O  dxz             1.0       0.0       1.4       0.9       0.8      48.3
11 O  dyz             0.4       0.0       0.5       0.2       0.8       3.3
11 O  dx2y2           0.2       0.5       1.8       0.9       0.2       2.4
11 O  dxy             2.2       3.6       1.3       0.0       1.5       6.2
12 O  s               0.0       3.8       0.2       0.0       0.2       0.0
12 O  pz              0.0       0.5       0.1       0.0       0.0       0.0
12 O  py              0.0       3.4       0.4       0.0       0.1       0.0
12 O  dz2             0.0       0.0       0.0       0.1       0.0       0.1
12 O  dxz             0.1       0.2       0.0       0.0       0.1       0.1
12 O  dyz             0.1      38.2       4.4       0.9       2.0       0.0
12 O  dx2y2           0.2      13.0       1.2       0.0       0.3       0.1
12 O  dxy             0.0       0.2       0.2       0.1       0.0       0.1
13 O  s               0.2       0.5       3.3       0.2       1.0       0.4
13 O  px              0.1       0.4       3.2       0.4       0.5       0.2
13 O  dz2             0.6       1.7       8.6       0.8       2.5       0.8
13 O  dxz             0.0       0.0       0.0       0.1       0.3       0.2
13 O  dx2y2           0.9       2.1      26.4       2.9       3.4       0.8
13 O  dxy             0.4       1.4       6.9       2.2       0.6       1.0
14 O  s               0.1       0.5       0.0       0.5       4.5       0.0
14 O  pz              0.0       0.1       0.0       0.2       0.9       0.0
14 O  px              0.0       0.1       0.0       0.2       0.7       0.0
14 O  py              0.1       0.3       0.0       0.6       1.9       0.0
14 O  dz2             0.0       0.0       0.2       0.3       0.0       0.0
14 O  dxz             0.0       0.1       0.1       0.0       1.5       0.0
14 O  dyz             0.9       3.7       0.3       7.7      24.4       0.0
14 O  dx2y2           0.8       2.7       0.1       5.7      13.2       0.0
14 O  dxy             0.0       0.1       0.2       0.5       1.6       0.0
15 O  s               0.0       0.2       1.0       2.8       1.7       0.1
15 O  pz              0.0       0.0       0.3       1.0       0.4       0.0
15 O  px              0.0       0.0       0.5       1.3       0.2       0.1
15 O  py              0.0       0.0       0.2       1.0       0.2       0.0
15 O  dz2             0.0       0.1       0.5       2.8       0.3       0.1
15 O  dxz             0.1       0.6       3.3       7.2       3.2       0.2
15 O  dyz             0.1       0.6       5.3      21.6       4.9       0.3
15 O  dx2y2           0.0       0.0       0.4       4.4       0.1       0.2
15 O  dxy             0.1       0.2       2.3       6.5       1.3       0.2
16 O  s               3.6       0.0       0.1       0.1       0.0       0.5
16 O  pz              0.6       0.0       0.0       0.0       0.0       0.1
16 O  px              2.6       0.0       0.1       0.1       0.0       0.2
16 O  py              0.9       0.0       0.0       0.0       0.0       0.0
16 O  dz2             7.9       0.0       0.2       0.1       0.2       0.2
16 O  dxz            11.4       0.0       0.3       0.1       0.1       1.7
16 O  dyz             0.2       0.0       0.0       0.1       0.0       0.0
16 O  dx2y2          31.0       0.0       0.7       0.2       0.4       1.8
16 O  dxy            11.2       0.0       0.2       0.0       0.4       0.2
19 H  s               0.0       0.5       0.1       0.0       0.0       0.0
20 H  s               0.0       0.1       0.4       0.1       0.0       0.0
21 H  s               0.0       0.1       0.0       0.3       0.3       0.0
22 H  s               0.0       0.0       0.1       0.6       0.0       0.0
23 H  s               0.6       0.0       0.0       0.0       0.0       0.0



                      *****************************
                      * MAYER POPULATION ANALYSIS *
                      *****************************

  NA   - Mulliken gross atomic population
  ZA   - Total nuclear charge
  QA   - Mulliken gross atomic charge
  VA   - Mayer's total valence
  BVA  - Mayer's bonded valence
  FA   - Mayer's free valence

  ATOM       NA         ZA         QA         VA         BVA        FA
  0 C      5.9927     6.0000     0.0073     3.9724     3.9724     0.0000
  1 C      5.9547     6.0000     0.0453     3.9595     3.9595    -0.0000
  2 H      0.9379     1.0000     0.0621     0.9950     0.9950    -0.0000
  3 C      5.9425     6.0000     0.0575     4.0229     4.0229     0.0000
  4 H      0.9571     1.0000     0.0429     1.0016     1.0016     0.0000
  5 C      5.9216     6.0000     0.0784     4.0294     4.0294     0.0000
  6 H      0.9277     1.0000     0.0723     0.9837     0.9837    -0.0000
  7 C      6.0151     6.0000    -0.0151     4.0218     4.0218    -0.0000
  8 H      0.9300     1.0000     0.0700     0.9907     0.9907     0.0000
  9 C      5.7998     6.0000     0.2002     4.1259     4.1259    -0.0000
 10 H      0.9383     1.0000     0.0617     0.9802     0.9802    -0.0000
 11 O      8.3036     8.0000    -0.3036     2.1883     2.1883    -0.0000
 12 O      8.3987     8.0000    -0.3987     2.0332     2.0332     0.0000
 13 O      8.4207     8.0000    -0.4207     2.0212     2.0212    -0.0000
 14 O      8.4148     8.0000    -0.4148     2.0300     2.0300    -0.0000
 15 O      8.4067     8.0000    -0.4067     2.0057     2.0057    -0.0000
 16 O      8.4335     8.0000    -0.4335     1.9996     1.9996    -0.0000
 17 H      0.9179     1.0000     0.0821     0.9720     0.9720    -0.0000
 18 H      0.9057     1.0000     0.0943     0.9755     0.9755    -0.0000
 19 H      0.6964     1.0000     0.3036     0.8926     0.8926     0.0000
 20 H      0.6890     1.0000     0.3110     0.8795     0.8795     0.0000
 21 H      0.6964     1.0000     0.3036     0.8995     0.8995    -0.0000
 22 H      0.7003     1.0000     0.2997     0.8829     0.8829    -0.0000
 23 H      0.6988     1.0000     0.3012     0.8850     0.8850    -0.0000

  Mayer bond orders larger than 0.100000
B(  0-C ,  1-C ) :   1.0004 B(  0-C , 16-O ) :   1.0591 B(  0-C , 17-H ) :   0.9123 
B(  0-C , 18-H ) :   0.9158 B(  1-C ,  2-H ) :   0.8890 B(  1-C ,  3-C ) :   0.9712 
B(  1-C , 11-O ) :   1.0233 B(  3-C ,  4-H ) :   0.8801 B(  3-C ,  5-C ) :   1.0249 
B(  3-C , 15-O ) :   1.0883 B(  5-C ,  6-H ) :   0.8638 B(  5-C ,  7-C ) :   1.0221 
B(  5-C , 14-O ) :   1.0933 B(  7-C ,  8-H ) :   0.8774 B(  7-C ,  9-C ) :   0.9716 
B(  7-C , 13-O ) :   1.0689 B(  9-C , 10-H ) :   0.8866 B(  9-C , 11-O ) :   1.0697 
B(  9-C , 12-O ) :   1.1170 B( 12-O , 19-H ) :   0.8397 B( 13-O , 20-H ) :   0.8436 
B( 14-O , 21-H ) :   0.8367 B( 15-O , 22-H ) :   0.8480 B( 16-O , 23-H ) :   0.8479 


-------
TIMINGS
-------

Total SCF time: 0 days 0 hours 0 min 9 sec 

Total time                  ....       9.372 sec
Sum of individual times     ....       8.959 sec  ( 95.6%)

SCF preparation             ....       0.164 sec  (  1.7%)
Fock matrix formation       ....       8.082 sec  ( 86.2%)
  Startup                   ....       0.053 sec  (  0.7% of F)
  Split-RI-J                ....       3.588 sec  ( 44.4% of F)
  XC integration            ....       4.018 sec  ( 49.7% of F)
    Basis function eval.    ....       1.346 sec  ( 33.5% of XC)
    Density eval.           ....       0.764 sec  ( 19.0% of XC)
    XC-Functional eval.     ....       0.280 sec  (  7.0% of XC)
    XC-Potential eval.      ....       0.996 sec  ( 24.8% of XC)
Diagonalization             ....       0.000 sec  (  0.0%)
Density matrix formation    ....       0.158 sec  (  1.7%)
Total Energy calculation    ....       0.028 sec  (  0.3%)
Population analysis         ....       0.095 sec  (  1.0%)
Orbital Transformation      ....       0.050 sec  (  0.5%)
Orbital Orthonormalization  ....       0.000 sec  (  0.0%)
DIIS solution               ....       0.295 sec  (  3.1%)
  MO trafo                  ....       0.000 sec  (  0.0 % of DIIS)
  Orb grad                  ....       0.000 sec  (  0.0 % of DIIS)
  Energy W gradient         ....       0.000 sec  (  0.0 % of DIIS)
  DIIS error                ....       0.006 sec  (  2.0 % of DIIS)
  DIIS work                 ....       0.247 sec  ( 83.9 % of DIIS)
  Form Q                    ....       0.000 sec  (  0.0 % of DIIS)
  Form QpQm                 ....       0.000 sec  (  0.0 % of DIIS)
  Exp/Cayley                ....       0.000 sec  (  0.0 % of DIIS)
  Orb update                ....       0.000 sec  (  0.0 % of DIIS)
  Wake-sleep                ....       0.013 sec  (  4.5 % of DIIS)
SOSCF solution              ....       0.089 sec  (  1.0%)
  MO trafo                  ....       0.050 sec  ( 56.3 % of SOSCF)
  Orb grad                  ....       0.001 sec  (  1.2 % of SOSCF)
  Rot update                ....       0.016 sec  ( 17.6 % of SOSCF)
  Step                      ....       0.022 sec  ( 24.8 % of SOSCF)
Finished LeanSCF after   9.5 sec

Maximum memory used throughout the entire LEANSCF-calculation: 18.2 MB


-------------------------------------------------------------------------------
                          DFT DISPERSION CORRECTION                            
                                                                               
                                DFTD4 V3.4.0                                   
-------------------------------------------------------------------------------
The PBE functional is recognized
Active option DFTDOPT                   ...         5   

-------------------------   ----------------
Dispersion correction           -0.024474264
-------------------------   ----------------

------------------   -----------------
gCP correction             0.153394620
------------------   -----------------

-------------------------   --------------------
FINAL SINGLE POINT ENERGY      -685.688972321439
-------------------------   --------------------


------------------------------------------------------------------------------
                              ORCA PROPERTY CALCULATIONS
------------------------------------------------------------------------------

GBWName                                 ... sp.gbw
Number of atoms                         ...     24
Number of basis functions               ...    192
Max core memory                         ...   1024 MB

Electric properties:
Dipole moment                           ... YES
Quadrupole moment                       ...  NO
Static polarizability (Dipole/Dipole)   ...  NO
Static polarizability (Dipole/Quad.)    ...  NO
Static polarizability (Quad./Quad.)     ...  NO
Static polarizability (Velocity)        ...  NO

Atomic electric properties:
Dipole moment                           ...  NO
Quadrupole moment                       ...  NO
Static polarizability                   ...  NO

Choice of electric origin               ... Center of mass
Position of electric origin             ...    -0.000003    -0.000004    -0.000002

General magnetic properties:
Magnetizability                         ...  NO

EPR properties:
g-Tensor (aka g-matrix)                 ...  NO
Zero-Field splitting spin-orbit         ...  NO
Zero-field splitting spin-spin          ...  NO
Hyperfine couplings                     ...  NO (   0 nuclei)
Quadrupole couplings                    ...  NO (   0 nuclei)
Contact density                         ...  NO (   0 nuclei)

NMR properties:
Chemical shifts                         ...  NO (   0 nuclei)
Spin-rotation constants                 ...  NO (   0 nuclei)
Spin-spin couplings                     ...  NO (   0 nuclei,    0 pairs)

Choice of magnetic origin               ... GIAO
Position of magnetic origin             ...     0.000000     0.000000     0.000000

Properties with geometric perturbations:
SCF Hessian                             ...  NO
IR spectrum                             ...  NO
VCD spectrum                            ...  NO
X-ray spectroscopy properties:
SCF XES/XAS/RIXS spectra                ...  NO


-------------
DIPOLE MOMENT
-------------

Method             : SCF
Type of density    : Electron Density
Multiplicity       :   1
Irrep              :   0
Energy             :  -685.8178926777807192 Eh
Relativity type    : 
Basis              : AO
                                X                 Y                 Z
Electronic contribution:      1.325490917       0.831577409       1.629038544
Nuclear contribution   :     -0.874943741      -1.404588333      -2.045017561
                        -----------------------------------------
Total Dipole Moment    :      0.450547176      -0.573010924      -0.415979017
                        -----------------------------------------
Magnitude (a.u.)       :      0.839269217
Magnitude (Debye)      :      2.133252818



--------------------
Rotational spectrum 
--------------------
 
Rotational constants in cm-1:             0.035766             0.028951             0.019923 
Rotational constants in MHz :          1072.236298           867.915120           597.268364 

Dipole components along the rotational axes: 
x,y,z [a.u.] :     0.305153    -0.695563    -0.356998 
x,y,z [Debye]:     0.775637    -1.767980    -0.907416 

 

Dipole moment calculation done in   0.0 sec 

Maximum memory used throughout the entire PROP-calculation: 11.9 MB

--------------------------------
SUGGESTED CITATIONS FOR THIS RUN
--------------------------------

Below you find a list of papers that are relevant to this ORCA run
We neither can nor want to force you to cite these papers, but we appreciate if you do
You receive ORCA, which is the product of decades of hard work by many enthusiastic individuals, for free
The only thing we kindly ask in return is that you cite our papers,
We deeply appreciate it, if you show your appreciation for ORCA by not just citing the generic ORCA reference.

Please note that relegating all ORCA citations to the supporting information does *not* help us.
SI sections are not indexed - citations you put there will not count into any citation statistics
But we need these citations in order to attract the funding resources that allow us to do what we are doing

Therefore, if you are a happy ORCA user, please consider citing a few of the papers listed below in the main body of your paper

In addition to the list printed below, the program has created the file sp.bibtex that contains the list in bibtex format
You can import this file easily into all common literature databanks and citation aid programs


List of essential papers. We consider these as the minimum necessary citations

  1. Neese,F.
     Software update: the ORCA program system, version 5.0
     WIRES Comput. Molec. Sci., 2022 12(1)e1606
     doi.org/10.1002/wcms.1606

List of papers to cite with high priority. The work reported in these papers was absolutely
necessary for this run to complete.
Our perspective: the developers of density functionals and basis sets usually get cited in chemistry papers
Good! But without the algorithms to do something with them, the functionals or basis sets would not do anything.
Hence, in our opinion, the algorithm design and method developments papers are equally worthy of getting cited

  1. Neese,F.
     An improvement of the resolution of the identity approximation for the formation of the Coulomb matrix
     J. Comp. Chem., 2003 24(14)1740-1747
     doi.org/10.1002/jcc.10318
  2. Neese,F.
     The SHARK Integral Generation and Digestion System
     J. Comp. Chem., 2022  1-16
     doi.org/10.1002/jcc.26942
  3. Caldeweyher,E.; Bannwarth,C.; Grimme,S.
     Extension of the D3 dispersion coefficient model
     J. Chem. Phys., 2017 147 034112-XXXX
     doi.org/10.1063/1.4993215
  4. Caldeweyher,E.; Ehlert,S.; Hansen,A.; Neugebauer,H.; Spicher,S.; Bannwarth,C.; Grimme,S.
     A generally applicable atomic-charge dependent London dispersion correction
     J. Chem. Phys., 2019 150 154122-XXXX
     doi.org/10.1063/1.5090222
  5. Caldeweyher,E.; Mewes,J.; Ehlert,S.; Grimme,S.
     Extension and evaluation of the D4 London-dispersion model for periodic systems
     Phys. Chem. Chem. Phys., 2020 22(16)8499-8512
     doi.org/10.1039/D0CP00502A

List of suggested additional citations. These are papers that are important in the 'surrounding' of 
of this run, or papers that preceded the highly important papers. If you like your results we are grateful for a citation.

  1. Neese,F.
     The ORCA program system
     WIRES Comput. Molec. Sci., 2012 2(1)73-78
     doi.org/10.1002/wcms.81
  2. Neese,F.
     Software update: the ORCA program system, version 4.0
     WIRES Comput. Molec. Sci., 2018 8(1)1-6
     doi.org/10.1002/wcms.1327
  3. Neese,F.; Wennmohs,F.; Becker,U.; Riplinger,C.
     The ORCA quantum chemistry program package
     J. Chem. Phys., 2020 152 Art. No. L224108
     doi.org/10.1063/5.0004608

List of optional additional citations

  1. Neese,F.
     Approximate second-order SCF convergence for spin unrestricted wavefunctions
     Chem. Phys. Lett., 2000 325(1-3)93-98
     doi.org/10.1016/s0009-2614(00)00662-x

Timings for individual modules:

Sum of individual times          ...       11.515 sec (=   0.192 min)
Startup calculation              ...        0.916 sec (=   0.015 min)   8.0 %
SCF iterations                   ...       10.504 sec (=   0.175 min)  91.2 %
Property calculations            ...        0.094 sec (=   0.002 min)   0.8 %
                             ****ORCA TERMINATED NORMALLY****
TOTAL RUN TIME: 0 days 0 hours 0 minutes 12 seconds 163 msec
