24
 energy: -464.391734227598 gnorm: 0.021200842214 xtb: 6.7.1 (edcfbbe)
C           -3.43550275192236       -1.18986283842726       -0.00150792550067
C           -2.05358816791000       -0.60845238536962        0.00184402380082
C           -1.86761527312759        0.78540088174803        0.00098888370044
C           -0.62367304217637        1.36222502520364       -0.00008327150004
C            0.52723923053363        0.52909134513445        0.00000193370000
C            1.84314224891675        1.03979906556076        0.00083552990037
C            2.92559639349641        0.20437304779056        0.00060246890027
C            2.74971908191847       -1.18731089042613       -0.00054159410024
C            1.49021494826035       -1.71564880296025       -0.00069172410031
C            0.35203264915599       -0.88102743929041       -0.00011588980005
C           -0.94900964112053       -1.41994066742921        0.00086819520038
C           -0.48611572691541        2.85524661086524       -0.00103909300046
H           -4.18737493125554       -0.40829653298093        0.06583574102917
H           -3.60329307489671       -1.75558253747795       -0.91684770460628
H           -3.56207447627845       -1.87113750972915        0.83795499417132
H           -2.74331162671563        1.42005379172926        0.00071637760032
H            1.99662147308476        2.10747577883388        0.00202883250090
H            3.92594027083969        0.61191654527116        0.00130416470058
H            3.61516197830197       -1.83356689831250       -0.00116702500052
H            1.34340941279530       -2.78651976073478       -0.00115551940051
H           -1.06413437517155       -2.49497254350559        0.00115676260051
H            0.05292732252345        3.19096572741400        0.88354354319152
H            0.06216912182755        3.18908873391317       -0.88063654029023
H           -1.46604033074964        3.32506051927342       -0.00657549640291
24
 energy: -464.392790720877 gnorm: 0.005967396712 xtb: 6.7.1 (edcfbbe)
C           -3.44528922926460       -1.19561519394205       -0.00196005320806
C           -2.05982607142646       -0.61444142374392        0.00233532883328
C           -1.87219456248057        0.78613899639211        0.00064812931051
C           -0.62375001849691        1.36842092927038       -0.00051938411754
C            0.52914607436521        0.53070028246334       -0.00018859346120
C            1.84811797293607        1.04681856364299        0.00062174588634
C            2.93618439416017        0.20772309688784        0.00040555833918
C            2.75948144252914       -1.19100411459624       -0.00059322951498
C            1.49501917980652       -1.72449121194585       -0.00055941092188
C            0.35256244556214       -0.88774070106720       -0.00003696617892
C           -0.95163286019564       -1.42995864134337        0.00182309908956
C           -0.48284572501487        2.86311474453119       -0.00091270442131
H           -4.20183862952570       -0.41222229389721        0.06581891632898
H           -3.62244348390129       -1.76473926933532       -0.91905950462367
H           -3.58092779864813       -1.88184615802058        0.83819756743715
H           -2.75047799264108        1.42499968751380        0.00125479505881
H            2.00024041725921        2.11948137178333        0.00151393489880
H            3.93922646378411        0.61958588874623        0.00102162656750
H            3.62737397729358       -1.84101396323294       -0.00112762716375
H            1.34828408961025       -2.79996353931494       -0.00091601242404
H           -1.06686603936570       -2.51005376221502        0.00254241943643
H            0.06093735025762        3.20959091958034        0.88296379649620
H            0.06961367028456        3.20819273463828       -0.87988802560868
H           -1.46565393304216        3.33670148360373       -0.00606585941974
24
 energy: -464.392880365117 gnorm: 0.000841812586 xtb: 6.7.1 (edcfbbe)
C           -3.44998885459916       -1.19710958923502       -0.00234133298100
C           -2.06241012478902       -0.61707098450330        0.00232011985946
C           -1.87363630424612        0.78597533091804        0.00065248522965
C           -0.62335069298086        1.37056384667413       -0.00053166761147
C            0.53052117728659        0.53075642007589       -0.00026154716387
C            1.85069957580823        1.04825570411713        0.00020530755566
C            2.94108913380242        0.20854373211384        0.00012227284942
C            2.76428759203153       -1.19201061998370       -0.00054238491182
C            1.49832297774818       -1.72744399282514       -0.00016930699650
C            0.35338617357416       -0.89096224973460        0.00037813652863
C           -0.95237592402483       -1.43369789712060        0.00249109154678
C           -0.48293141565759        2.86571726739765       -0.00076196447559
H           -4.20841595917847       -0.41351955058202        0.06629874105395
H           -3.63255058781670       -1.76686088938312       -0.92002483757445
H           -3.59088155391877       -1.88603630237817        0.83694779919310
H           -2.75255473384682        1.42644736913482        0.00115558424032
H            2.00199556627022        2.12240233559585        0.00079049924743
H            3.94467395022781        0.62251940147789        0.00054284006017
H            3.63278496616965       -1.84345849640459       -0.00110743107853
H            1.35301653844707       -2.80444963792060       -0.00036840715431
H           -1.06770284486627       -2.51528045698087        0.00378981699145
H            0.06318107771469        3.21681381424061        0.88215180747385
H            0.07106358181460        3.21590138361762       -0.87905422356160
H           -1.46578200698394        3.34238251717804       -0.00536399955588
24
 energy: -464.392881994469 gnorm: 0.000286885336 xtb: 6.7.1 (edcfbbe)
C           -3.45073415066594       -1.19669602028495       -0.00267643963558
C           -2.06268860654345       -0.61761337882783        0.00242661775074
C           -1.87355038572397        0.78553790009250        0.00055066156052
C           -0.62322164070839        1.37050800763514       -0.00053702097153
C            0.53082730163042        0.53056657515884       -0.00022085780922
C            1.85099602366994        1.04792814147091       -0.00010765517937
C            2.94174336881414        0.20861532199843       -0.00018948577461
C            2.76502732747021       -1.19165108330512       -0.00042801815233
C            1.49913380501723       -1.72737158708547        0.00031758907614
C            0.35356122570142       -0.89158203320801        0.00078792900660
C           -0.95239594107833       -1.43416252021700        0.00300520934520
C           -0.48329643518150        2.86537280208283       -0.00060446650236
H           -4.20860258698689       -0.41262121053311        0.06707009983678
H           -3.63468237866857       -1.76518921493305       -0.92095882791535
H           -3.59281216794674       -1.88667616212977        0.83561532134083
H           -2.75226368196430        1.42619490408444        0.00098189225018
H            2.00202064432980        2.12204600099900        0.00004329226458
H            3.94505012482723        0.62318145831059       -0.00009819263591
H            3.63328333993031       -1.84341073355087       -0.00103656799669
H            1.35512360799819       -2.80451017626307        0.00039216979560
H           -1.06773316469588       -2.51572948142301        0.00461179714538
H            0.06327051295765        3.21694989717860        0.88195224729837
H            0.07036123824033        3.21635525448188       -0.87890214370238
H           -1.46597603427767        3.34233574045890       -0.00467587127395
24
 energy: -464.392881994469 gnorm: 0.000286885336 xtb: 6.7.1 (edcfbbe)
C           -3.45073415066594       -1.19669602028495       -0.00267643963558
C           -2.06268860654345       -0.61761337882783        0.00242661775074
C           -1.87355038572397        0.78553790009250        0.00055066156052
C           -0.62322164070839        1.37050800763514       -0.00053702097153
C            0.53082730163042        0.53056657515884       -0.00022085780922
C            1.85099602366994        1.04792814147091       -0.00010765517937
C            2.94174336881414        0.20861532199843       -0.00018948577461
C            2.76502732747021       -1.19165108330512       -0.00042801815233
C            1.49913380501723       -1.72737158708547        0.00031758907614
C            0.35356122570142       -0.89158203320801        0.00078792900660
C           -0.95239594107833       -1.43416252021700        0.00300520934520
C           -0.48329643518150        2.86537280208283       -0.00060446650236
H           -4.20860258698689       -0.41262121053311        0.06707009983678
H           -3.63468237866857       -1.76518921493305       -0.92095882791535
H           -3.59281216794674       -1.88667616212977        0.83561532134083
H           -2.75226368196430        1.42619490408444        0.00098189225018
H            2.00202064432980        2.12204600099900        0.00004329226458
H            3.94505012482723        0.62318145831059       -0.00009819263591
H            3.63328333993031       -1.84341073355087       -0.00103656799669
H            1.35512360799819       -2.80451017626307        0.00039216979560
H           -1.06773316469588       -2.51572948142301        0.00461179714538
H            0.06327051295765        3.21694989717860        0.88195224729837
H            0.07036123824033        3.21635525448188       -0.87890214370238
H           -1.46597603427767        3.34233574045890       -0.00467587127395
