
                                 *****************
                                 * O   R   C   A *
                                 *****************

                                            #,                                       
                                            ###                                      
                                            ####                                     
                                            #####                                    
                                            ######                                   
                                           ########,                                 
                                     ,,################,,,,,                         
                               ,,#################################,,                 
                          ,,##########################################,,             
                       ,#########################################, ''#####,          
                    ,#############################################,,   '####,        
                  ,##################################################,,,,####,       
                ,###########''''           ''''###############################       
              ,#####''   ,,,,##########,,,,          '''####'''          '####       
            ,##' ,,,,###########################,,,                        '##       
           ' ,,###''''                  '''############,,,                           
         ,,##''                                '''############,,,,        ,,,,,,###''
      ,#''                                            '''#######################'''  
     '                                                          ''''####''''         
             ,#######,   #######,   ,#######,      ##                                
            ,#'     '#,  ##    ##  ,#'     '#,    #''#        ,####,   ,####,        
            ##       ##  ##   ,#'  ##            #'  '#       #'       #'  '#        
            ##       ##  #######   ##           ,######,      #####,   #    #        
            '#,     ,#'  ##    ##  '#,     ,#' ,#      #,     #,   #   #,  ,#        
             '#######'   ##     ##  '#######'  #'      '#     '####' # '####'        



                #########################################################
                #                        -***-                          #
                #          Department of theory and spectroscopy        #
                #                                                       #
                #                      Frank Neese                      #
                #                                                       #
                #     Directorship, Architecture, Infrastructure        #
                #                    SHARK, DRIVERS                     #
                #        Core code/Algorithms in most modules           #
                #                                                       #
                #        Max Planck Institute fuer Kohlenforschung      #
                #                Kaiser Wilhelm Platz 1                 #
                #                 D-45470 Muelheim/Ruhr                 #
                #                      Germany                          #
                #                                                       #
                #                  All rights reserved                  #
                #                        -***-                          #
                #########################################################


                         Program Version 6.0.0  -   RELEASE  -


 With contributions from (in alphabetic order):
   Daniel Aravena         : Magnetic Suceptibility
   Michael Atanasov       : Ab Initio Ligand Field Theory (pilot matlab implementation)
   Alexander A. Auer      : GIAO ZORA, VPT2 properties, NMR spectrum
   Ute Becker             : All parallelization in ORCA, NUMFREQ, NUMCALC
   Giovanni Bistoni       : ED, misc. LED, open-shell LED, HFLD
   Martin Brehm           : Molecular dynamics
   Dmytro Bykov           : pre 5.0 version of the SCF Hessian
   Marcos Casanova-Páez   : Triplet and SCS-CIS(D). UHF-(DLPNO)-IP/EA/STEOM-CCSD. UHF-CVS-IP/STEOM-CCSD
   Vijay G. Chilkuri      : MRCI spin determinant printing, contributions to CSF-ICE
   Pauline Colinet        : FMM embedding
   Dipayan Datta          : RHF DLPNO-CCSD density
   Achintya Kumar Dutta   : EOM-CC, STEOM-CC
   Nicolas Foglia         : Exact transition moments, OPA infrastructure, MCD improvements
   Dmitry Ganyushin       : Spin-Orbit,Spin-Spin,Magnetic field MRCI
   Miquel Garcia          : C-PCM and meta-GGA Hessian, CCSD/C-PCM, Gaussian charge scheme
   Tiago L. C. Gouveia    : GS-ROHF, GS-ROCIS
   Yang Guo               : DLPNO-NEVPT2, F12-NEVPT2, CIM, IAO-localization
   Andreas Hansen         : Spin unrestricted coupled pair/coupled cluster methods
   Ingolf Harden          : AUTO-CI MPn and infrastructure 
   Benjamin Helmich-Paris : MC-RPA, TRAH-(SCF,CASSCF), AVAS, COSX integrals, SCF dyn. polar.
   Lee Huntington         : MR-EOM, pCC
   Robert Izsak           : Overlap fitted RIJCOSX, COSX-SCS-MP3, EOM
   Riya Kayal             : Wick's Theorem for AUTO-CI, AUTO-CI UHF-CCSDT
   Emily Kempfer          : AUTO-CI, RHF CISDT and CCSDT
   Christian Kollmar      : KDIIS, OOCD, Brueckner-CCSD(T), CCSD density, CASPT2, CASPT2-K, improved NEVPT2
   Axel Koslowski         : Symmetry handling
   Simone Kossmann        : Meta GGA functionals, TD-DFT gradient, OOMP2, (MP2 Hessian; deprecated post 5.0)
   Lucas Lang             : DCDCAS
   Marvin Lechner         : AUTO-CI (C++ implementation), FIC-MRCC
   Spencer Leger          : CASSCF response
   Dagmar Lenk            : GEPOL surface, SMD, ORCA-2-JSON
   Dimitrios Liakos       : Extrapolation schemes; Compound Job, initial MDCI parallelization
   Dimitrios Manganas     : Further ROCIS development; embedding schemes. LFT, Crystal Embedding
   Dimitrios Pantazis     : SARC Basis sets
   Anastasios Papadopoulos: AUTO-CI, single reference methods and gradients
   Taras Petrenko         : pre 6.0 DFT Hessian and TD-DFT gradient, (ASA, deprecated), ECA, 1-Electron XAS/XES, NRVS
   Peter Pinski           : DLPNO-MP2, DLPNO-MP2 Gradient
   Christoph Reimann      : Effective Core Potentials
   Marius Retegan         : Local ZFS, SOC
   Christoph Riplinger    : Optimizer, TS searches, QM/MM, DLPNO-CCSD(T), (RO)-DLPNO pert. Triples
   Michael Roemelt        : Original ROCIS implementation
   Masaaki Saitow         : Open-shell DLPNO-CCSD energy and density
   Barbara Sandhoefer     : DKH picture change effects
   Kantharuban Sivalingam : CASSCF convergence/infrastructure, NEVPT2 and variants, FIC-MRCI
   Bernardo de Souza      : ESD, SOC TD-DFT
   Georgi Stoychev        : AutoAux, RI-MP2 NMR, DLPNO-MP2 response, X2C
   Van Anh Tran           : RI-MP2 g-tensors
   Willem Van den Heuvel  : Paramagnetic NMR
   Zikuan Wang            : NOTCH, Electric field optimization 
   Frank Wennmohs         : Technical directorship and infrastructure
   Hang Xu                : AUTO-CI-Response properties 


 We gratefully acknowledge several colleagues who have allowed us to
 interface, adapt or use parts of their codes:
   Stefan Grimme, W. Hujo, H. Kruse, P. Pracht,  : VdW corrections, initial TS optimization,
                  C. Bannwarth, S. Ehlert,         DFT functionals, gCP, sTDA/sTD-DF
                  L. Wittmann, M. Mueller
   Ed Valeev, F. Pavosevic, A. Kumar             : LibInt (2-el integral package), F12 methods
   Garnet Chan, S. Sharma, J. Yang, R. Olivares  : DMRG
   Ulf Ekstrom                                   : XCFun DFT Library
   Mihaly Kallay                                 : mrcc  (arbitrary order and MRCC methods)
   Frank Weinhold                                : gennbo (NPA and NBO analysis)
   Simon Mueller                                 : openCOSMO-RS
   Christopher J. Cramer and Donald G. Truhlar   : smd solvation model
   Lars Goerigk                                  : TD-DFT with DH, B97 family of functionals
   V. Asgeirsson, H. Jonsson                     : NEB implementation
   FAccTs GmbH                                   : IRC, NEB, NEB-TS, DLPNO-Multilevel, CI-OPT
                                                   MM, QMMM, 2- and 3-layer-ONIOM, Crystal-QMMM,
                                                   LR-CPCM, SF, NACMEs, symmetry and pop. for TD-DFT,
                                                   nearIR, NL-DFT gradient (VV10), updates on ESD,
                                                   ML-optimized integration grids, MBIS, APM,
                                                   GOAT, DOCKER, SOLVATOR, interface openCOSMO-RS
   S Lehtola, MJT Oliveira, MAL Marques          : LibXC Library
   Liviu Ungur et al                             : ANISO software


 Your calculation uses the libint2 library for the computation of 2-el integrals
 For citations please refer to: http://libint.valeyev.net

 Your ORCA version has been built with support for libXC version: 6.2.2
 For citations please refer to: https://libxc.gitlab.io

 This ORCA versions uses:
   CBLAS   interface :  Fast vector & matrix operations
   LAPACKE interface :  Fast linear algebra routines
   SCALAPACK package :  Parallel linear algebra routines
   Shared memory     :  Shared parallel matrices
   BLAS/LAPACK       :  OpenBLAS 0.3.27  USE64BITINT DYNAMIC_ARCH NO_AFFINITY SkylakeX SINGLE_THREADED
        Core in use  :  SkylakeX
   Copyright (c) 2011-2014, The OpenBLAS Project


Your calculation utilizes the geometrical counterpoise correction gCP
Please cite in your paper:
H.Kruse, S. Grimme J.Chem.Phys., 136, (2012), 154101 
   

Your calculation utilizes the DFT-NL dispersion correction.
Cite in your paper:
Vydrov, O. A.; Van Voorhis, T. J. Chem. Phys. 2010, 133, 244103
Hujo, W.; Grimme, S. J. Chem. Theory Comput. 2011, 7, 3866 
   

Your calculation utilizes the SMD solvation module
Please cite in your paper:
A.V. Marenich, C.J. Cramer, D.G. Truhlar J. Phys. Chem. B, 113, (2009), 6378 

================================================================================

----- Orbital basis set information -----
Your calculation utilizes the basis: def2-TZVP
   F. Weigend and R. Ahlrichs, Phys. Chem. Chem. Phys. 7, 3297 (2005).

----- AuxJ basis set information -----
Your calculation utilizes the auxiliary basis: def2/J
   F. Weigend, Phys. Chem. Chem. Phys. 8, 1057 (2006).

================================================================================
                                        WARNINGS
                       Please study these warnings very carefully!
================================================================================


================================================================================
                                       INPUT FILE
================================================================================
NAME = sp_solv.inp
|  1> ! wb97x-v def2-tzvp def2/J RIJCOSX DEFGRID2 scfconv7 GCP(DFT/TZ) printgap
|  2> %output
|  3>     printlevel normal
|  4> end
|  5> %cpcm
|  6>     smd true
|  7>     smdsolvent "water"
|  8> end
|  9> * xyz 0 1
| 10> C -2.622098872131161 0.4991664674793166 -0.0007144400596159981
| 11> O -1.239611841274688 0.9389765763858506 -0.0024236534399715635
| 12> C -0.3138409652220926 -0.04504589399591262 0.00015656015398968058
| 13> O -0.6049518096871398 -1.2326937745864301 0.0036629642687365563
| 14> C 1.0523430058789274 0.4977319969190955 -0.0016818955704811357
| 15> C 2.1138180619194196 -0.2947139293377296 0.7432174640038456
| 16> C 2.113810952067061 -0.2991878589463134 -0.7417536940604048
| 17> H -3.215034484423163 1.412923522686566 -0.0039027839252173094
| 18> H -2.8309912246703965 -0.08736524063674132 0.8970567342515637
| 19> H -2.83120589961354 -0.09380132764143541 -0.8941874657638053
| 20> H 1.1359575916926197 1.5772645159028502 -0.004930693085466334
| 21> H 2.8630391761648957 0.294000619314065 1.2601225185832157
| 22> H 1.7723328015463595 -1.1890437917378756 1.2531236056978121
| 23> H 2.8630263345394327 0.2864406824898817 -1.2621630924234992
| 24> H 1.7723810178470885 -1.196564876574281 -1.2463127878530138
| 25> *
| 26> 
| 27>                          ****END OF INPUT****
================================================================================

                       ****************************
                       * Single Point Calculation *
                       ****************************

---------------------------------
CARTESIAN COORDINATES (ANGSTROEM)
---------------------------------
  C     -2.622099    0.499166   -0.000714
  O     -1.239612    0.938977   -0.002424
  C     -0.313841   -0.045046    0.000157
  O     -0.604952   -1.232694    0.003663
  C      1.052343    0.497732   -0.001682
  C      2.113818   -0.294714    0.743217
  C      2.113811   -0.299188   -0.741754
  H     -3.215034    1.412924   -0.003903
  H     -2.830991   -0.087365    0.897057
  H     -2.831206   -0.093801   -0.894187
  H      1.135958    1.577265   -0.004931
  H      2.863039    0.294001    1.260123
  H      1.772333   -1.189044    1.253124
  H      2.863026    0.286441   -1.262163
  H      1.772381   -1.196565   -1.246313

----------------------------
CARTESIAN COORDINATES (A.U.)
----------------------------
  NO LB      ZA    FRAG     MASS         X           Y           Z
   0 C     6.0000    0    12.011   -4.955049    0.943288   -0.001350
   1 O     8.0000    0    15.999   -2.342527    1.774409   -0.004580
   2 C     6.0000    0    12.011   -0.593073   -0.085124    0.000296
   3 O     8.0000    0    15.999   -1.143193   -2.329454    0.006922
   4 C     6.0000    0    12.011    1.988640    0.940577   -0.003178
   5 C     6.0000    0    12.011    3.994537   -0.556929    1.404477
   6 C     6.0000    0    12.011    3.994524   -0.565383   -1.401711
   7 H     1.0000    0     1.008   -6.075535    2.670039   -0.007375
   8 H     1.0000    0     1.008   -5.349798   -0.165096    1.695192
   9 H     1.0000    0     1.008   -5.350204   -0.177259   -1.689769
  10 H     1.0000    0     1.008    2.146649    2.980598   -0.009318
  11 H     1.0000    0     1.008    5.410360    0.555581    2.381286
  12 H     1.0000    0     1.008    3.349224   -2.246967    2.368060
  13 H     1.0000    0     1.008    5.410336    0.541294   -2.385143
  14 H     1.0000    0     1.008    3.349315   -2.261180   -2.355190

--------------------------------
INTERNAL COORDINATES (ANGSTROEM)
--------------------------------
 C      0   0   0     0.000000000000     0.00000000     0.00000000
 O      1   0   0     1.450760574248     0.00000000     0.00000000
 C      2   1   0     1.351058323932   115.60531166     0.00000000
 O      3   2   1     1.222810413313   122.97467921     0.00000000
 C      3   2   1     1.470057774946   111.58505623   180.00694472
 C      5   3   2     1.519728560149   117.12739628   146.68442765
 C      6   5   3     1.484977897606    60.75250921   106.68208430
 H      1   2   3     1.089281764192   105.33178729   180.03871361
 H      1   2   3     1.092542237627   110.23792272    60.93401725
 H      1   2   3     1.092534028145   110.24061743   299.14759456
 H      5   3   2     1.082770711272   116.09673198     0.00000000
 H      6   5   3     1.084023954198   115.67598475   216.51393746
 H      6   5   3     1.084639276059   116.13413592   357.88331662
 H      7   6   5     1.084025101085   118.58345125   105.09178522
 H      7   6   5     1.084638092120   117.88371611   254.04193626

---------------------------
INTERNAL COORDINATES (A.U.)
---------------------------
 C      0   0   0     0.000000000000     0.00000000     0.00000000
 O      1   0   0     2.741540171220     0.00000000     0.00000000
 C      2   1   0     2.553130223186   115.60531166     0.00000000
 O      3   2   1     2.310776794868   122.97467921     0.00000000
 C      3   2   1     2.778006595689   111.58505623   180.00694472
 C      5   3   2     2.871870776579   117.12739628   146.68442765
 C      6   5   3     2.806201541402    60.75250921   106.68208430
 H      1   2   3     2.058444216998   105.33178729   180.03871361
 H      1   2   3     2.064605618857   110.23792272    60.93401725
 H      1   2   3     2.064590105183   110.24061743   299.14759456
 H      5   3   2     2.046140110136   116.09673198     0.00000000
 H      6   5   3     2.048508396045   115.67598475   216.51393746
 H      6   5   3     2.049671185846   116.13413592   357.88331662
 H      7   6   5     2.048510563347   118.58345125   105.09178522
 H      7   6   5     2.049668948525   117.88371611   254.04193626

---------------------
BASIS SET INFORMATION
---------------------
There are 3 groups of distinct atoms

 Group   1 Type C   : 11s6p2d1f contracted to 5s3p2d1f pattern {62111/411/11/1}
 Group   2 Type O   : 11s6p2d1f contracted to 5s3p2d1f pattern {62111/411/11/1}
 Group   3 Type H   : 5s1p contracted to 3s1p pattern {311/1}

Atom   0C    basis set group =>   1
Atom   1O    basis set group =>   2
Atom   2C    basis set group =>   1
Atom   3O    basis set group =>   2
Atom   4C    basis set group =>   1
Atom   5C    basis set group =>   1
Atom   6C    basis set group =>   1
Atom   7H    basis set group =>   3
Atom   8H    basis set group =>   3
Atom   9H    basis set group =>   3
Atom  10H    basis set group =>   3
Atom  11H    basis set group =>   3
Atom  12H    basis set group =>   3
Atom  13H    basis set group =>   3
Atom  14H    basis set group =>   3
---------------------------------
AUXILIARY/J BASIS SET INFORMATION
---------------------------------
There are 3 groups of distinct atoms

 Group   1 Type C   : 12s5p4d2f1g contracted to 6s4p3d1f1g pattern {711111/2111/211/2/1}
 Group   2 Type O   : 12s5p4d2f1g contracted to 6s4p3d1f1g pattern {711111/2111/211/2/1}
 Group   3 Type H   : 5s2p1d contracted to 3s1p1d pattern {311/2/1}

Atom   0C    basis set group =>   1
Atom   1O    basis set group =>   2
Atom   2C    basis set group =>   1
Atom   3O    basis set group =>   2
Atom   4C    basis set group =>   1
Atom   5C    basis set group =>   1
Atom   6C    basis set group =>   1
Atom   7H    basis set group =>   3
Atom   8H    basis set group =>   3
Atom   9H    basis set group =>   3
Atom  10H    basis set group =>   3
Atom  11H    basis set group =>   3
Atom  12H    basis set group =>   3
Atom  13H    basis set group =>   3
Atom  14H    basis set group =>   3

Checking for AutoStart:
The File: sp_solv.gbw exists
Trying to determine its content:
     ... Fine, the file contains calculation information
     ... Fine, the calculation information was read
     ... Fine, the file contains a basis set
     ... Fine, the basis set was read
     ... Fine, the file contains a geometry
     ... Fine, the geometry was read
     ... Fine, the file contains a set of orbitals
     ... Fine, the orbitals can be read
     => possible old guess file was deleted
     => GBW file was renamed to GES file
     => GES file is set as startup file
     => Guess is set to MORead
     ... now leaving AutoStart

------------------------------------------------------------------------------
                             ORCA STARTUP CALCULATIONS
                           -- RI-GTO INTEGRALS CHOSEN --
------------------------------------------------------------------------------
------------------------------------------------------------------------------
                   ___                                                        
                  /   \      - P O W E R E D   B Y -                         
                 /     \                                                     
                 |  |  |   _    _      __       _____    __    __             
                 |  |  |  | |  | |    /  \     |  _  \  |  |  /  |          
                  \  \/   | |  | |   /    \    | | | |  |  | /  /          
                 / \  \   | |__| |  /  /\  \   | |_| |  |  |/  /          
                |  |  |   |  __  | /  /__\  \  |    /   |      \           
                |  |  |   | |  | | |   __   |  |    \   |  |\   \          
                \     /   | |  | | |  |  |  |  | |\  \  |  | \   \       
                 \___/    |_|  |_| |__|  |__|  |_| \__\ |__|  \__/        
                                                                              
                      - O R C A' S   B I G   F R I E N D -                    
                                      &                                       
                       - I N T E G R A L  F E E D E R -                       
                                                                              
 v1 FN, 2020, v2 2021, v3 2022-2024                                           
------------------------------------------------------------------------------


----------------------
SHARK INTEGRAL PACKAGE
----------------------

Number of atoms                             ...     15
Number of basis functions                   ...    265
Number of shells                            ...    109
Maximum angular momentum                    ...      3
Integral batch strategy                     ... SHARK/LIBINT Hybrid
RI-J (if used) integral strategy            ... SPLIT-RIJ (Revised 2003 algorithm where possible)
Printlevel                                  ...      1
Contraction scheme used                     ... SEGMENTED contraction
Prescreening option                         ... SCHWARTZ
   Thresh                                   ... 3.000e-11
   Tcut                                     ... 1.000e-12
   Tpresel                                  ... 1.000e-12 
Coulomb Range Separation                    ... NOT USED
Exchange Range Separation                   ... Long Range
   Mu parameter                             ... 3.000e-01
   Scaling (regular/separated)              ... 1.670e-01 8.330e-01
Multipole approximations                    ... NOT USED
Finite Nucleus Model                        ... NOT USED
CABS basis                                  ... NOT available
Auxiliary Coulomb fitting basis             ... AVAILABLE
   # of basis functions in Aux-J            ...    431
   # of shells in Aux-J                     ...    145
   Maximum angular momentum in Aux-J        ...      4
Auxiliary J/K fitting basis                 ... NOT available
Auxiliary Correlation fitting basis         ... NOT available
Auxiliary 'external' fitting basis          ... NOT available

Checking pre-screening integrals            ... done (  0.0 sec) Dimension = 109
Check shell pair data                       ... done (  0.0 sec)
Shell pair information
Shell pair cut-off parameter TPreSel        ...   1.0e-12
Total number of shell pairs                 ...      5995
Shell pairs after pre-screening             ...      5506
Total number of primitive shell pairs       ...     17944
Primitive shell pairs kept                  ...     12590
          la=0 lb=0:   1566 shell pairs
          la=1 lb=0:   1577 shell pairs
          la=1 lb=1:    409 shell pairs
          la=2 lb=0:    770 shell pairs
          la=2 lb=1:    388 shell pairs
          la=2 lb=2:    101 shell pairs
          la=3 lb=0:    378 shell pairs
          la=3 lb=1:    195 shell pairs
          la=3 lb=2:     94 shell pairs
          la=3 lb=3:     28 shell pairs

Calculating one electron integrals          ... done (  0.0 sec)
Calculating RI/J V-Matrix + Cholesky decomp.... done (  0.1 sec)
Calculating Nuclear repulsion               ... done (  0.0 sec) ENN=    304.155402843621 Eh

Diagonalization of the overlap matrix:
Smallest eigenvalue                        ... 9.684e-05
Time for diagonalization                   ...    0.007 sec
Threshold for overlap eigenvalues          ... 1.000e-07
Number of eigenvalues below threshold      ... 0
Time for construction of square roots      ...    0.016 sec
Total time needed                          ...    0.030 sec

-------------------
DFT GRID GENERATION
-------------------

General Integration Accuracy     IntAcc      ... 4.388
Radial Grid Type                 RadialGrid  ... OptM3 with GC (2021)
Angular Grid (max. ang.)         AngularGrid ... 4 (Lebedev-302)
Angular grid pruning method      GridPruning ... 4 (adaptive)
Weight generation scheme         WeightScheme... mBecke (2022)
Basis function cutoff            BFCut       ... 1.0000e-11
Integration weight cutoff        WCut        ... 1.0000e-14
Partially contracted basis set               ... off
Rotationally invariant grid construction     ... off
Angular grids for H and He will be reduced by one unit

Total number of grid points                  ...    68155
Total number of batches                      ...     1072
Average number of points per batch           ...       63
Average number of grid points per atom       ...     4544

--------------------
COSX GRID GENERATION
--------------------

GRIDX 1
-------
General Integration Accuracy     IntAcc      ... 3.816
Radial Grid Type                 RadialGrid  ... OptM3 with GC (2021)
Angular Grid (max. ang.)         AngularGrid ... 1 (Lebedev-50)
Angular grid pruning method      GridPruning ... 4 (adaptive)
Weight generation scheme         WeightScheme... mBecke (2022)
Basis function cutoff            BFCut       ... 1.0000e-11
Integration weight cutoff        WCut        ... 1.0000e-14
Partially contracted basis set               ... on
Rotationally invariant grid construction     ... off
Angular grids for H and He will be reduced by one unit

Total number of grid points                  ...     8722
Total number of batches                      ...       79
Average number of points per batch           ...      110
Average number of grid points per atom       ...      581
UseSFitting                                  ... on

GRIDX 2
-------
General Integration Accuracy     IntAcc      ... 4.020
Radial Grid Type                 RadialGrid  ... OptM3 with GC (2021)
Angular Grid (max. ang.)         AngularGrid ... 2 (Lebedev-110)
Angular grid pruning method      GridPruning ... 4 (adaptive)
Weight generation scheme         WeightScheme... mBecke (2022)
Basis function cutoff            BFCut       ... 1.0000e-11
Integration weight cutoff        WCut        ... 1.0000e-14
Partially contracted basis set               ... on
Rotationally invariant grid construction     ... off
Angular grids for H and He will be reduced by one unit

Total number of grid points                  ...    18848
Total number of batches                      ...      154
Average number of points per batch           ...      122
Average number of grid points per atom       ...     1257
UseSFitting                                  ... on

GRIDX 3
-------
General Integration Accuracy     IntAcc      ... 4.338
Radial Grid Type                 RadialGrid  ... OptM3 with GC (2021)
Angular Grid (max. ang.)         AngularGrid ... 3 (Lebedev-194)
Angular grid pruning method      GridPruning ... 4 (adaptive)
Weight generation scheme         WeightScheme... mBecke (2022)
Basis function cutoff            BFCut       ... 1.0000e-11
Integration weight cutoff        WCut        ... 1.0000e-14
Partially contracted basis set               ... on
Rotationally invariant grid construction     ... off
Angular grids for H and He will be reduced by one unit

Total number of grid points                  ...    41375
Total number of batches                      ...      331
Average number of points per batch           ...      125
Average number of grid points per atom       ...     2758
UseSFitting                                  ... on
Initializing property integral containers    ... done (  0.0 sec)

SHARK setup successfully completed in   1.7 seconds

Maximum memory used throughout the entire STARTUP-calculation: 38.5 MB
-------------------------------------------------------------------------------
                                 ORCA GUESS
                   Start orbitals & Density for SCF / CASSCF
-------------------------------------------------------------------------------

------------
SCF SETTINGS
------------
Hamiltonian:
 Density Functional     Method          .... DFT(GTOs)
 Exchange Functional    Exchange        .... WB97X-V
 Correlation Functional Correlation     .... WB97X-V
 Gradients option       PostSCFGGA      .... off
 Hybrid DFT is turned on
   Fraction HF Exchange ScalHFX         ....  0.167000
   Scaling of DF-GGA-X  ScalDFX         ....  0.000000
   Scaling of DF-GGA-C  ScalDFC         ....  1.000000
   Scaling of DF-LDA-C  ScalLDAC        ....  1.000000
   Perturbative correction              ....  0.000000
 Long-range corrected/Screened/Range-Separated Hybrid DFT is turned on
   Amount of maximum screened exact exchange              ....  0.833000
   Range separation parameter mu (erf(mu*r12)/r12)        ....  0.300000
   NL short-range parameter             ....  6.000000
   NL long-range parameter              ....  0.010000
 RI-approximation to the Coulomb term is turned on
   Number of AuxJ basis functions       .... 431
   RIJ-COSX (HFX calculated with COS-X)).... on


General Settings:
 Integral files         IntName         .... sp_solv
 Hartree-Fock type      HFTyp           .... RHF
 Total Charge           Charge          ....    0
 Multiplicity           Mult            ....    1
 Number of Electrons    NEL             ....   54
 Basis Dimension        Dim             ....  265
 Nuclear Repulsion      ENuc            ....    304.1554028436 Eh

Convergence Acceleration:
 AO-DIIS                CNVDIIS         .... on
   Start iteration      DIISMaxIt       ....    12
   Startup error        DIISStart       ....  0.200000
   # of expansion vecs  DIISMaxEq       ....     5
   Bias factor          DIISBfac        ....   1.050
   Max. coefficient     DIISMaxC        ....  10.000
 MO-DIIS                CNVKDIIS        .... off
 Trust-Rad. Augm. Hess. CNVTRAH         .... auto
   Auto Start mean grad. ratio tolernc. ....  1.125000
   Auto Start start iteration           ....     1
   Auto Start num. interpolation iter.  ....    10
   Max. Number of Micro iterations      ....    24
   Max. Number of Macro iterations      .... Maxiter - #DIIS iter
   Number of Davidson start vectors     ....     2
   Converg. threshold    (grad. norm)   ....   1.000e-04
   Grad. Scal. Fac. for Micro threshold ....   0.100
   Minimum threshold for Micro iter.    ....   1.000e-02
   NR start threshold (gradient norm)   ....   1.000e-04
   Initial trust radius                 ....   0.400
   Minimum AH scaling param. (alpha)    ....   1.000
   Maximum AH scaling param. (alpha)    .... 1000.000
   Quad. conv. algorithm                .... NR
   White noise on init. David. guess    .... on
   Maximum white noise                  ....   0.010
   Pseudo random numbers                .... off
   Inactive MOs                         .... canonical
   Orbital update algorithm             .... Taylor
   Preconditioner                       .... Diag
   Full preconditioner red. dimension   ....   250
 SOSCF                  CNVSOSCF        .... on
   Start iteration      SOSCFMaxIt      ....   150
   Startup grad/error   SOSCFStart      ....  0.003300
   Hessian update       SOSCFHessUp     .... L-BFGS
 Level Shifting         CNVShift        .... on
   Level shift para.    LevelShift      ....    0.2500
   Turn off err/grad.   ShiftErr        ....    0.0010
 Zerner damping         CNVZerner       .... off
 Static damping         CNVDamp         .... on
   Fraction old density DampFac         ....    0.7000
   Max. Damping (<1)    DampMax         ....    0.9800
   Min. Damping (>=0)   DampMin         ....    0.0000
   Turn off err/grad.   DampErr         ....    0.1000

SCF Procedure:
 Maximum # iterations   MaxIter         ....   125
 SCF integral mode      SCFMode         .... Direct
   Integral package                     .... SHARK and LIBINT hybrid scheme
 Reset frequency        DirectResetFreq ....    20
 Integral Threshold     Thresh          ....  3.000e-11 Eh
 Primitive CutOff       TCut            ....  1.000e-12 Eh

Convergence Tolerance:
 Convergence Check Mode ConvCheckMode   .... Total+1el-Energy
 Convergence forced     ConvForced      .... 0
 Energy Change          TolE            ....  1.000e-07 Eh
 1-El. energy change                    ....  1.000e-04 Eh
 Orbital Gradient       TolG            ....  1.000e-04
 Orbital Rotation angle TolX            ....  1.000e-04
 DIIS Error             TolErr          ....  1.000e-07

---------------------
INITIAL GUESS: MOREAD
---------------------
Guess MOs are being read from file: sp_solv.ges
Input Geometry matches current geometry (good)
Atom 0: N(Shells)= 11 and 9 - projection required
Input basis set needs projection
NBasis(read)= 183
NBasis(calc)= 265
Basis set overlap was calculated
Using GuessMode=FMatrix for the initial guess
C*T matrix was formed
Effective Fockian was calculated
Effective Fockian was diagonalized
Initial density was built
                      ------------------
                      INITIAL GUESS DONE (   0.0 sec)
                      ------------------
             **** ENERGY FILE WAS UPDATED (sp_solv.en.tmp) ****
Finished Guess after   0.3 sec
Maximum memory used throughout the entire GUESS-calculation: 22.0 MB

-------------------------------------------------------------------------------------------
                                      ORCA LEAN-SCF
                              memory conserving SCF solver
-------------------------------------------------------------------------------------------

--------------------
CPCM SOLVATION MODEL
--------------------
CPCM parameters:
  Epsilon                                         ...      78.3550
  Refrac                                          ...       1.3328
  Rsolv                                           ...       1.3000
  Surface type                                    ... GAUSSIAN VDW
  Discretization scheme                           ... Constant charge density
    Threshold for H atoms                         ...       5.0000 (charges/Ang^2)
    Threshold for non-H atoms                     ...       5.0000 (charges/Ang^2)
  Epsilon function type                           ...         CPCM
Solvent:                                          ... WATER
SMD-CDS solvent descriptors:
  Soln                                            ...       1.3328
  Soln25                                          ...       1.3323
  Sola                                            ...       0.0000
  Solb                                            ...       0.0000
  Solg                                            ...       0.0000
  Solc                                            ...       0.0000
  Solh                                            ...       0.0000
Radii:
  Scheme                                          ... Element-dependent radii
  Radius for C  used is    3.4960 Bohr (=   1.8500 Ang.)
  Radius for O  used is    2.8724 Bohr (=   1.5200 Ang.)
  Radius for H  used is    2.2677 Bohr (=   1.2000 Ang.)
Calculating surface                               ...        done! (  0.0s)
Cavity surface points                             ...         1171
Cavity Volume                                     ...     716.6403
Cavity Surface-area                               ...     482.8062
Calculating surface distance matrix               ...        done! (  0.0s)
Performing Cholesky decomposition & store         ...        done! (  0.1s)
Overall time for CPCM initialization              ...                 0.1s

----------------------------------------D-I-I-S--------------------------------------------
Iteration    Energy (Eh)           Delta-E    RMSDP     MaxDP     DIISErr   Damp  Time(sec)
-------------------------------------------------------------------------------------------
               ***  Starting incremental Fock matrix formation  ***
    1    -346.0165181068808806     0.00e+00  8.19e-04  2.03e-02  5.91e-02  0.700  11.8
    2    -346.0213051702928624    -4.79e-03  6.92e-04  1.86e-02  4.30e-02  0.700   6.1
                               ***Turning on AO-DIIS***
    3    -346.0249112450867415    -3.61e-03  5.67e-04  1.58e-02  3.08e-02  0.700   6.2
    4    -346.0275667114045746    -2.66e-03  1.41e-03  4.03e-02  2.17e-02  0.000   6.0
                              *** Initializing SOSCF ***
---------------------------------------S-O-S-C-F--------------------------------------
Iteration    Energy (Eh)           Delta-E    RMSDP     MaxDP     MaxGrad    Time(sec)
--------------------------------------------------------------------------------------
    5    -346.0343317257551234    -6.77e-03  6.88e-05  2.03e-03  1.55e-03     6.2
               *** Restarting incremental Fock matrix formation ***
    6    -346.0343432023172454    -1.15e-05  3.56e-05  1.21e-03  5.52e-04    11.8
    7    -346.0343509035009220    -7.70e-06  1.94e-05  5.89e-04  2.13e-04     9.6
    8    -346.0343520837676579    -1.18e-06  4.08e-06  1.77e-04  9.84e-05     9.0
    9    -346.0343522647968939    -1.81e-07  2.24e-06  6.81e-05  6.14e-05     8.0
   10    -346.0343523134722545    -4.87e-08  3.98e-07  1.21e-05  7.04e-06     7.7
                 **** Energy Check signals convergence ****

               *****************************************************
               *                     SUCCESS                       *
               *           SCF CONVERGED AFTER  10 CYCLES          *
               *****************************************************


------------------
NL GRID GENERATION
------------------

General Integration Accuracy     IntAcc      ... 4.004
Radial Grid Type                 RadialGrid  ... OptM3 with GC (2021)
Angular Grid (max. ang.)         AngularGrid ... 2 (Lebedev-110)
Angular grid pruning method      GridPruning ... 4 (adaptive)
Weight generation scheme         WeightScheme... mBecke (2022)
Basis function cutoff            BFCut       ... 1.0000e-10
Integration weight cutoff        WCut        ... 1.0000e-14
Partially contracted basis set               ... off
Rotationally invariant grid construction     ... off
Angular grids for H and He will be reduced by one unit

Total number of grid points                  ...    21260
Total number of batches                      ...      342
Average number of points per batch           ...       62
Average number of grid points per atom       ...     1417
Final grid set up in    0.2 sec

-------------------------------------------------------------------------------
                    post-SCF DFT-NL dispersion correction                      
-------------------------------------------------------------------------------

SCF Energy:     -346.034352313 
NL    Energy:      0.209289542 
SC+NL Energy:   -345.825062772 
NL done in  :              1.8 sec
-------------------------------------------------------------------------------
Recomputing exchange energy using gridx3       ... done (   21.515 sec)
Old exchange energy                            :    -14.625830158 Eh
New exchange energy                            :    -14.625851567 Eh
Exchange energy change after final integration :     -0.000021409 Eh
Total energy after final integration           :   -345.825084181 Eh

SMD CDS free energy correction energy :                 4.47251     Kcal/mol
Total Energy after SMD CDS correction =              -345.817956785 Eh
             **** ENERGY FILE WAS UPDATED (sp_solv.en.tmp) ****

----------------
TOTAL SCF ENERGY
----------------

Total Energy       :       -345.81795678538413 Eh           -9410.18501 eV

Components:
Nuclear Repulsion  :        304.15540284362078 Eh            8276.48928 eV
Electronic Energy  :       -650.17342285976213 Eh          -17692.11829 eV
One Electron Energy:      -1072.39756892212608 Eh          -29181.42141 eV
Two Electron Energy:        422.22414606236396 Eh           11489.30312 eV
CPCM Dielectric    :         -0.01633229733088 Eh              -0.44442 eV
SMD CDS (Gcds)     :          0.00712739542556 Eh               0.19395 eV

Virial components:
Potential Energy   :       -690.24265683072326 Eh          -18782.45757 eV
Kinetic Energy     :        344.42470004533919 Eh            9372.27257 eV
Virial Ratio       :          2.00404517080181

DFT components:
N(Alpha)           :       27.000048166002 electrons
N(Beta)            :       27.000048166002 electrons
N(Total)           :       54.000096332004 electrons
E(X)               :      -30.598325232382 Eh       
E(C)               :       -2.250144352470 Eh       
NL Energy, E(C,NL) :        0.209289541565 Eh       
E(XC)              :      -32.639180043287 Eh       

CPCM Solvation Model Properties:
Surface-charge          :         -0.04201190836790
Corrected charge        :         -0.00000000000000
Outlying charge corr.   :          0.00014501452223 Eh               0.00395 eV
Free-energy (cav+disp)  :          0.00712739542556 Eh               0.19395 eV

---------------
SCF CONVERGENCE
---------------

  Last Energy change         ...    4.8675e-08  Tolerance :   1.0000e-07
  Last MAX-Density change    ...    1.2057e-05  Tolerance :   1.0000e-05
  Last RMS-Density change    ...    3.9814e-07  Tolerance :   1.0000e-06
  Last DIIS Error            ...    1.5466e-03  Tolerance :   1.0000e-07
  Last Orbital Gradient      ...    7.0421e-06  Tolerance :   1.0000e-04
  Last Orbital Rotation      ...    1.7297e-05  Tolerance :   1.0000e-04


----------------
ORBITAL ENERGIES
----------------

  NO   OCC          E(Eh)            E(eV) 
   0   2.0000     -21.723920      -591.1379 
   1   2.0000     -21.666411      -589.5730 
   2   2.0000     -12.186701      -331.6170 
   3   2.0000     -12.092278      -329.0476 
   4   2.0000     -12.065437      -328.3172 
   5   2.0000     -12.056273      -328.0679 
   6   2.0000     -12.055167      -328.0378 
   7   2.0000      -1.762785       -47.9678 
   8   2.0000      -1.700796       -46.2810 
   9   2.0000      -1.404317       -38.2134 
  10   2.0000      -1.286395       -35.0046 
  11   2.0000      -1.163445       -31.6590 
  12   2.0000      -1.109434       -30.1892 
  13   2.0000      -1.080428       -29.3999 
  14   2.0000      -1.071501       -29.1570 
  15   2.0000      -1.002034       -27.2667 
  16   2.0000      -0.997123       -27.1331 
  17   2.0000      -0.963818       -26.2268 
  18   2.0000      -0.927231       -25.2312 
  19   2.0000      -0.914242       -24.8778 
  20   2.0000      -0.895680       -24.3727 
  21   2.0000      -0.836988       -22.7756 
  22   2.0000      -0.827917       -22.5288 
  23   2.0000      -0.817412       -22.2429 
  24   2.0000      -0.797889       -21.7117 
  25   2.0000      -0.756772       -20.5928 
  26   2.0000      -0.743293       -20.2260 
  27   0.0000      -0.315039        -8.5726 
  28   0.0000      -0.178490        -4.8570 
  29   0.0000      -0.112256        -3.0547 
  30   0.0000      -0.074903        -2.0382 
  31   0.0000      -0.031239        -0.8501 
  32   0.0000      -0.015082        -0.4104 
  33   0.0000       0.001661         0.0452 
  34   0.0000       0.010155         0.2763 
  35   0.0000       0.025380         0.6906 
  36   0.0000       0.044104         1.2001 
  37   0.0000       0.057963         1.5773 
*Only the first 10 virtual orbitals were printed.

                    ********************************
                    * MULLIKEN POPULATION ANALYSIS *
                    ********************************

-----------------------
MULLIKEN ATOMIC CHARGES
-----------------------
   0 C :   -0.223650
   1 O :   -0.268634
   2 C :    0.373516
   3 O :   -0.489040
   4 C :   -0.095300
   5 C :   -0.257789
   6 C :   -0.257804
   7 H :    0.157521
   8 H :    0.149772
   9 H :    0.149767
  10 H :    0.153585
  11 H :    0.153183
  12 H :    0.150845
  13 H :    0.153179
  14 H :    0.150849
Sum of atomic charges:    0.0000000

--------------------------------
MULLIKEN REDUCED ORBITAL CHARGES
--------------------------------
  0 C s       :     3.248650  s :     3.248650
      pz      :     1.101793  p :     2.882927
      px      :     0.694231
      py      :     1.086903
      dz2     :     0.009409  d :     0.085005
      dxz     :     0.022819
      dyz     :     0.013913
      dx2y2   :     0.015799
      dxy     :     0.023064
      f0      :     0.000881  f :     0.007067
      f+1     :     0.000570
      f-1     :     0.001144
      f+2     :     0.001104
      f-2     :     0.000308
      f+3     :     0.001815
      f-3     :     0.001245

  1 O s       :     3.740276  s :     3.740276
      pz      :     1.724470  p :     4.488137
      px      :     1.208496
      py      :     1.555170
      dz2     :     0.004370  d :     0.038212
      dxz     :     0.005204
      dyz     :     0.004203
      dx2y2   :     0.009001
      dxy     :     0.015434
      f0      :     0.000266  f :     0.002009
      f+1     :     0.000361
      f-1     :     0.000187
      f+2     :     0.000083
      f-2     :     0.000229
      f+3     :     0.000439
      f-3     :     0.000444

  2 C s       :     3.093166  s :     3.093166
      pz      :     0.695173  p :     2.250777
      px      :     0.831452
      py      :     0.724152
      dz2     :     0.007615  d :     0.257778
      dxz     :     0.034901
      dyz     :     0.067307
      dx2y2   :     0.064039
      dxy     :     0.083916
      f0      :     0.003113  f :     0.024763
      f+1     :     0.001085
      f-1     :     0.001410
      f+2     :     0.002406
      f-2     :     0.003214
      f+3     :     0.007139
      f-3     :     0.006396

  3 O s       :     3.804675  s :     3.804675
      pz      :     1.486962  p :     4.653186
      px      :     1.785621
      py      :     1.380602
      dz2     :     0.002652  d :     0.029311
      dxz     :     0.000693
      dyz     :     0.009544
      dx2y2   :     0.008613
      dxy     :     0.007809
      f0      :     0.000189  f :     0.001868
      f+1     :     0.000032
      f-1     :     0.000189
      f+2     :     0.000353
      f-2     :     0.000099
      f+3     :     0.000508
      f-3     :     0.000497

  4 C s       :     3.153939  s :     3.153939
      pz      :     1.092831  p :     2.843303
      px      :     0.833812
      py      :     0.916660
      dz2     :     0.019156  d :     0.088531
      dxz     :     0.015620
      dyz     :     0.009991
      dx2y2   :     0.022440
      dxy     :     0.021323
      f0      :     0.000937  f :     0.009526
      f+1     :     0.001636
      f-1     :     0.001260
      f+2     :     0.001086
      f-2     :     0.000753
      f+3     :     0.001818
      f-3     :     0.002036

  5 C s       :     3.252081  s :     3.252081
      pz      :     0.894629  p :     2.926838
      px      :     1.005356
      py      :     1.026853
      dz2     :     0.014547  d :     0.071486
      dxz     :     0.018929
      dyz     :     0.018114
      dx2y2   :     0.008691
      dxy     :     0.011205
      f0      :     0.001305  f :     0.007385
      f+1     :     0.001851
      f-1     :     0.001416
      f+2     :     0.000666
      f-2     :     0.001107
      f+3     :     0.000625
      f-3     :     0.000415

  6 C s       :     3.252090  s :     3.252090
      pz      :     0.895401  p :     2.926840
      px      :     1.005361
      py      :     1.026077
      dz2     :     0.014516  d :     0.071489
      dxz     :     0.018949
      dyz     :     0.018112
      dx2y2   :     0.008730
      dxy     :     0.011183
      f0      :     0.001301  f :     0.007385
      f+1     :     0.001845
      f-1     :     0.001421
      f+2     :     0.000662
      f-2     :     0.001110
      f+3     :     0.000628
      f-3     :     0.000418

  7 H s       :     0.822014  s :     0.822014
      pz      :     0.004206  p :     0.020465
      px      :     0.005888
      py      :     0.010372

  8 H s       :     0.830068  s :     0.830068
      pz      :     0.010320  p :     0.020160
      px      :     0.003032
      py      :     0.006808

  9 H s       :     0.830073  s :     0.830073
      pz      :     0.010258  p :     0.020161
      px      :     0.003033
      py      :     0.006870

 10 H s       :     0.823569  s :     0.823569
      pz      :     0.005111  p :     0.022846
      px      :     0.003523
      py      :     0.014212

 11 H s       :     0.824704  s :     0.824704
      pz      :     0.006272  p :     0.022113
      px      :     0.009235
      py      :     0.006607

 12 H s       :     0.826969  s :     0.826969
      pz      :     0.006162  p :     0.022186
      px      :     0.005057
      py      :     0.010967

 13 H s       :     0.824708  s :     0.824708
      pz      :     0.006309  p :     0.022114
      px      :     0.009234
      py      :     0.006570

 14 H s       :     0.826966  s :     0.826966
      pz      :     0.006117  p :     0.022185
      px      :     0.005057
      py      :     0.011011


------------------------
MULLIKEN OVERLAP CHARGES
------------------------
B(  0-C ,  1-O ) :   0.4341 B(  0-C ,  2-C ) :  -0.0930 B(  0-C ,  7-H ) :   0.7953 
B(  0-C ,  8-H ) :   0.8374 B(  0-C ,  9-H ) :   0.8374 B(  1-O ,  2-C ) :   0.7861 
B(  1-O ,  3-O ) :  -0.1918 B(  1-O ,  4-C ) :  -0.1564 B(  1-O ,  7-H ) :  -0.0559 
B(  1-O ,  8-H ) :  -0.0699 B(  1-O ,  9-H ) :  -0.0699 B(  2-C ,  3-O ) :   1.2376 
B(  2-C ,  4-C ) :   0.7553 B(  2-C , 10-H ) :  -0.1050 B(  3-O ,  4-C ) :  -0.1763 
B(  4-C ,  5-C ) :   0.4521 B(  4-C ,  6-C ) :   0.4522 B(  4-C , 10-H ) :   0.8654 
B(  4-C , 11-H ) :  -0.0610 B(  4-C , 12-H ) :  -0.0643 B(  4-C , 13-H ) :  -0.0610 
B(  4-C , 14-H ) :  -0.0643 B(  5-C ,  6-C ) :   0.5049 B(  5-C , 10-H ) :  -0.0542 
B(  5-C , 11-H ) :   0.8447 B(  5-C , 12-H ) :   0.8436 B(  5-C , 14-H ) :  -0.0572 
B(  6-C , 10-H ) :  -0.0542 B(  6-C , 12-H ) :  -0.0572 B(  6-C , 13-H ) :   0.8447 
B(  6-C , 14-H ) :   0.8436 B(  8-H ,  9-H ) :  -0.0737 


                     *******************************
                     * LOEWDIN POPULATION ANALYSIS *
                     *******************************

----------------------
LOEWDIN ATOMIC CHARGES
----------------------
   0 C :   -0.285392
   1 O :    0.217699
   2 C :   -0.439405
   3 O :    0.017518
   4 C :   -0.186287
   5 C :   -0.194861
   6 C :   -0.194876
   7 H :    0.119283
   8 H :    0.115663
   9 H :    0.115658
  10 H :    0.159234
  11 H :    0.139080
  12 H :    0.138803
  13 H :    0.139085
  14 H :    0.138800

-------------------------------
LOEWDIN REDUCED ORBITAL CHARGES
-------------------------------
  0 C s       :     2.867419  s :     2.867419
      pz      :     1.119897  p :     3.020206
      px      :     0.799259
      py      :     1.101049
      dz2     :     0.048010  d :     0.347956
      dxz     :     0.072980
      dyz     :     0.053992
      dx2y2   :     0.065717
      dxy     :     0.107257
      f0      :     0.005079  f :     0.049811
      f+1     :     0.006912
      f-1     :     0.003702
      f+2     :     0.008250
      f-2     :     0.002556
      f+3     :     0.011884
      f-3     :     0.011428

  1 O s       :     3.264117  s :     3.264117
      pz      :     1.585006  p :     4.408240
      px      :     1.273953
      py      :     1.549281
      dz2     :     0.010771  d :     0.103627
      dxz     :     0.016435
      dyz     :     0.006343
      dx2y2   :     0.030203
      dxy     :     0.039874
      f0      :     0.000530  f :     0.006318
      f+1     :     0.000741
      f-1     :     0.000361
      f+2     :     0.000351
      f-2     :     0.000703
      f+3     :     0.001829
      f-3     :     0.001803

  2 C s       :     2.748571  s :     2.748571
      pz      :     0.691043  p :     2.599567
      px      :     0.949387
      py      :     0.959138
      dz2     :     0.060479  d :     0.938821
      dxz     :     0.101518
      dyz     :     0.187626
      dx2y2   :     0.254063
      dxy     :     0.335135
      f0      :     0.009688  f :     0.152445
      f+1     :     0.006527
      f-1     :     0.012280
      f+2     :     0.016880
      f-2     :     0.020901
      f+3     :     0.045610
      f-3     :     0.040559

  3 O s       :     3.397196  s :     3.397196
      pz      :     1.388313  p :     4.516613
      px      :     1.624964
      py      :     1.503336
      dz2     :     0.007666  d :     0.062930
      dxz     :     0.000874
      dyz     :     0.011778
      dx2y2   :     0.022966
      dxy     :     0.019646
      f0      :     0.000385  f :     0.005744
      f+1     :     0.000142
      f-1     :     0.000891
      f+2     :     0.000620
      f-2     :     0.000152
      f+3     :     0.001729
      f-3     :     0.001825

  4 C s       :     2.717875  s :     2.717875
      pz      :     1.032432  p :     2.969962
      px      :     0.947723
      py      :     0.989807
      dz2     :     0.082995  d :     0.444776
      dxz     :     0.074300
      dyz     :     0.041452
      dx2y2   :     0.146280
      dxy     :     0.099750
      f0      :     0.002863  f :     0.053674
      f+1     :     0.009969
      f-1     :     0.006973
      f+2     :     0.006817
      f-2     :     0.006865
      f+3     :     0.009090
      f-3     :     0.011098

  5 C s       :     2.772863  s :     2.772863
      pz      :     1.009998  p :     3.028680
      px      :     0.996829
      py      :     1.021853
      dz2     :     0.067361  d :     0.350854
      dxz     :     0.092726
      dyz     :     0.097885
      dx2y2   :     0.042511
      dxy     :     0.050371
      f0      :     0.007161  f :     0.042463
      f+1     :     0.012025
      f-1     :     0.009164
      f+2     :     0.002811
      f-2     :     0.004034
      f+3     :     0.004686
      f-3     :     0.002583

  6 C s       :     2.772857  s :     2.772857
      pz      :     1.010265  p :     3.028692
      px      :     0.996839
      py      :     1.021588
      dz2     :     0.067224  d :     0.350863
      dxz     :     0.092823
      dyz     :     0.097694
      dx2y2   :     0.042850
      dxy     :     0.050272
      f0      :     0.007138  f :     0.042465
      f+1     :     0.011969
      f-1     :     0.009213
      f+2     :     0.002772
      f-2     :     0.004076
      f+3     :     0.004701
      f-3     :     0.002596

  7 H s       :     0.818884  s :     0.818884
      pz      :     0.013519  p :     0.061833
      px      :     0.016659
      py      :     0.031656

  8 H s       :     0.821950  s :     0.821950
      pz      :     0.031704  p :     0.062387
      px      :     0.009464
      py      :     0.021219

  9 H s       :     0.821951  s :     0.821951
      pz      :     0.031524  p :     0.062391
      px      :     0.009467
      py      :     0.021400

 10 H s       :     0.779111  s :     0.779111
      pz      :     0.015530  p :     0.061655
      px      :     0.009838
      py      :     0.036287

 11 H s       :     0.798431  s :     0.798431
      pz      :     0.016828  p :     0.062489
      px      :     0.025178
      py      :     0.020483

 12 H s       :     0.798331  s :     0.798331
      pz      :     0.016613  p :     0.062867
      px      :     0.015668
      py      :     0.030586

 13 H s       :     0.798426  s :     0.798426
      pz      :     0.016918  p :     0.062489
      px      :     0.025177
      py      :     0.020393

 14 H s       :     0.798334  s :     0.798334
      pz      :     0.016514  p :     0.062867
      px      :     0.015667
      py      :     0.030685


---------------------------------
LOEWDIN BOND ORDERS (THRESH 0.050000)
---------------------------------
B(  0-C ,  1-O ) :   1.3540 B(  0-C ,  2-C ) :   0.1942 B(  0-C ,  3-O ) :   0.0647 
B(  0-C ,  7-H ) :   0.9362 B(  0-C ,  8-H ) :   0.9367 B(  0-C ,  9-H ) :   0.9367 
B(  1-O ,  2-C ) :   1.6791 B(  1-O ,  3-O ) :   0.1632 B(  1-O ,  4-C ) :   0.1499 
B(  1-O ,  7-H ) :   0.0517 B(  2-C ,  3-O ) :   2.5487 B(  2-C ,  4-C ) :   1.1904 
B(  2-C ,  5-C ) :   0.1513 B(  2-C ,  6-C ) :   0.1513 B(  2-C , 10-H ) :   0.0808 
B(  3-O ,  4-C ) :   0.1609 B(  4-C ,  5-C ) :   1.1666 B(  4-C ,  6-C ) :   1.1666 
B(  4-C , 10-H ) :   0.8132 B(  4-C , 11-H ) :   0.0684 B(  4-C , 12-H ) :   0.0654 
B(  4-C , 13-H ) :   0.0684 B(  4-C , 14-H ) :   0.0654 B(  5-C ,  6-C ) :   1.3085 
B(  5-C , 10-H ) :   0.0612 B(  5-C , 11-H ) :   0.8691 B(  5-C , 12-H ) :   0.8650 
B(  5-C , 13-H ) :   0.0698 B(  5-C , 14-H ) :   0.0698 B(  6-C , 10-H ) :   0.0612 
B(  6-C , 11-H ) :   0.0698 B(  6-C , 12-H ) :   0.0698 B(  6-C , 13-H ) :   0.8691 
B(  6-C , 14-H ) :   0.8650 

------------------------------------------
LOEWDIN REDUCED ORBITAL POPULATIONS PER MO
-------------------------------------------
THRESHOLD FOR PRINTING IS 0.1%%
                      0         1         2         3         4         5   
                 -21.72392 -21.66641 -12.18670 -12.09228 -12.06544 -12.05627
                   2.00000   2.00000   2.00000   2.00000   2.00000   2.00000
                  --------  --------  --------  --------  --------  --------
 0 C  s               0.0       0.0       0.0      99.7       0.0       0.0
 1 O  s              99.8       0.0       0.0       0.0       0.0       0.0
 2 C  s               0.0       0.0      99.1       0.0       0.0       0.0
 3 O  s               0.0      99.7       0.0       0.0       0.0       0.0
 3 O  py              0.0       0.0       0.1       0.0       0.0       0.0
 3 O  dx2y2           0.0       0.0       0.1       0.0       0.0       0.0
 4 C  s               0.0       0.0       0.0       0.0      98.6       0.6
 4 C  dxy             0.0       0.0       0.1       0.0       0.0       0.1
 5 C  s               0.0       0.0       0.0       0.0       0.3      49.4
 6 C  s               0.0       0.0       0.0       0.0       0.3      49.3

                      6         7         8         9        10        11   
                 -12.05517  -1.76278  -1.70080  -1.40432  -1.28640  -1.16345
                   2.00000   2.00000   2.00000   2.00000   2.00000   2.00000
                  --------  --------  --------  --------  --------  --------
 0 C  s               0.0       2.7       1.5       0.2      17.0      12.5
 0 C  px              0.0       5.6       2.2       0.1       1.6       1.1
 0 C  py              0.0       0.3       0.5       0.0       0.6       0.1
 0 C  dz2             0.0       0.6       0.2       0.0       0.0       0.1
 0 C  dx2y2           0.0       1.2       0.6       0.0       0.0       0.1
 0 C  dxy             0.0       0.3       0.4       0.0       0.3       0.1
 0 C  f+1             0.0       0.1       0.1       0.0       0.0       0.0
 0 C  f+3             0.0       0.1       0.1       0.0       0.0       0.0
 0 C  f-3             0.0       0.1       0.1       0.0       0.1       0.0
 1 O  s               0.0      33.8      20.4       0.1       0.2       2.6
 1 O  px              0.0       0.1       0.1       0.9      35.3       2.2
 1 O  py              0.0       1.8       0.4       0.0       1.8       2.5
 1 O  dz2             0.0       0.1       0.0       0.0       0.0       0.1
 1 O  dx2y2           0.0       0.0       0.1       0.0       0.2       0.4
 1 O  dxy             0.0       0.1       0.0       0.0       0.9       0.0
 2 C  s               0.0      16.5       2.0       1.8       7.5       5.6
 2 C  px              0.0       5.7       0.5       5.2       0.6       8.7
 2 C  py              0.0       0.2      24.2       0.8       6.0       0.6
 2 C  dz2             0.0       1.9       0.1       0.1       0.0       0.0
 2 C  dx2y2           0.0       0.9       2.0       0.8       0.1       1.6
 2 C  dxy             0.0       0.9       3.9       0.1       0.1       0.7
 2 C  f+1             0.0       0.1       0.0       0.0       0.0       0.1
 2 C  f-1             0.0       0.0       0.5       0.0       0.1       0.0
 2 C  f+3             0.0       0.5       0.0       0.0       0.1       0.2
 2 C  f-3             0.0       0.5       0.0       0.0       0.0       0.1
 3 O  s               0.0      17.5      35.3       0.5       1.3       3.7
 3 O  px              0.0       0.1       0.2       0.1       0.1       2.6
 3 O  py              0.0       2.9       2.3       0.2       1.7       7.4
 3 O  dx2y2           0.0       0.2       0.1       0.0       0.1       0.0
 3 O  dxy             0.0       0.0       0.1       0.0       0.0       0.2
 4 C  s               0.0       0.7       0.0      19.0       0.4       5.9
 4 C  px              0.0       2.1       0.0       3.0       6.3       9.6
 4 C  py              0.0       0.2       0.5       3.3       0.2       0.1
 4 C  dz2             0.0       0.1       0.0       0.3       0.1       0.1
 4 C  dx2y2           0.0       0.2       0.1       0.2       0.5       0.0
 4 C  dxy             0.0       0.1       0.4       0.9       0.3       1.5
 4 C  f-3             0.0       0.0       0.0       0.2       0.0       0.1
 5 C  s              49.6       0.0       0.0      15.8       1.4       2.6
 5 C  pz              0.0       0.0       0.0       6.1       0.4       0.3
 5 C  px              0.0       0.1       0.1       1.6       0.1       1.5
 5 C  py              0.0       0.0       0.0       0.8       0.0       0.3
 5 C  dz2             0.1       0.0       0.0       0.5       0.1       0.4
 5 C  dxz             0.0       0.0       0.0       0.4       0.0       0.1
 5 C  dyz             0.0       0.0       0.0       0.2       0.0       0.0
 5 C  dx2y2           0.0       0.0       0.0       0.0       0.0       0.2
 5 C  dxy             0.0       0.0       0.0       0.2       0.0       0.2
 6 C  s              49.8       0.0       0.0      15.8       1.4       2.6
 6 C  pz              0.0       0.0       0.0       6.1       0.4       0.3
 6 C  px              0.0       0.1       0.1       1.6       0.1       1.5
 6 C  py              0.0       0.0       0.0       0.8       0.0       0.3
 6 C  dz2             0.1       0.0       0.0       0.5       0.1       0.4
 6 C  dxz             0.0       0.0       0.0       0.4       0.0       0.1
 6 C  dyz             0.0       0.0       0.0       0.2       0.0       0.0
 6 C  dx2y2           0.0       0.0       0.0       0.0       0.0       0.2
 6 C  dxy             0.0       0.0       0.0       0.2       0.0       0.2
 7 H  s               0.0       0.3       0.1       0.0       3.7       3.9
 7 H  px              0.0       0.0       0.0       0.0       0.3       0.1
 7 H  py              0.0       0.0       0.0       0.0       0.2       0.3
 8 H  s               0.0       0.3       0.1       0.0       2.9       3.9
 8 H  pz              0.0       0.0       0.0       0.0       0.2       0.3
 8 H  py              0.0       0.0       0.0       0.0       0.1       0.1
 9 H  s               0.0       0.3       0.1       0.0       2.9       3.9
 9 H  pz              0.0       0.0       0.0       0.0       0.2       0.3
 9 H  py              0.0       0.0       0.0       0.0       0.1       0.1
10 H  s               0.0       0.1       0.0       2.2       0.1       1.6
10 H  py              0.0       0.0       0.0       0.2       0.0       0.2
11 H  s               0.0       0.0       0.0       1.9       0.3       0.9
12 H  s               0.0       0.0       0.0       1.8       0.2       0.6
12 H  py              0.0       0.0       0.0       0.1       0.0       0.0
13 H  s               0.0       0.0       0.0       1.9       0.3       0.9
14 H  s               0.0       0.0       0.0       1.8       0.2       0.6
14 H  py              0.0       0.0       0.0       0.1       0.0       0.0

                     12        13        14        15        16        17   
                  -1.10943  -1.08043  -1.07150  -1.00203  -0.99712  -0.96382
                   2.00000   2.00000   2.00000   2.00000   2.00000   2.00000
                  --------  --------  --------  --------  --------  --------
 0 C  s               1.3       0.0       4.5       2.6       0.0       1.2
 0 C  pz              0.0       0.0       0.0       0.0       8.6       0.0
 0 C  px              0.6       0.0       3.8       9.9       0.0       9.6
 0 C  py              2.5       0.0       2.8       0.2       0.0       0.2
 0 C  dz2             0.1       0.0       0.1       0.1       0.0       0.0
 0 C  dxz             0.0       0.0       0.0       0.0       1.7       0.0
 0 C  dx2y2           0.0       0.0       0.1       0.4       0.0       0.5
 0 C  dxy             1.1       0.0       0.8       0.0       0.0       0.0
 0 C  f0              0.0       0.0       0.0       0.0       0.1       0.0
 0 C  f+2             0.0       0.0       0.0       0.0       0.1       0.0
 0 C  f-3             0.1       0.0       0.1       0.0       0.0       0.0
 1 O  s               3.0       0.0       1.2       0.5       0.0       0.9
 1 O  pz              0.0       0.1       0.0       0.0      56.9       0.0
 1 O  px              1.0       0.0       5.2       7.7       0.0       7.4
 1 O  py             25.3       0.0       8.5       9.6       0.0      19.1
 1 O  dz2             0.1       0.0       0.0       0.0       0.0       0.0
 1 O  dyz             0.0       0.0       0.0       0.0       0.2       0.0
 1 O  dx2y2           0.2       0.0       0.1       0.0       0.0       0.2
 1 O  dxy             0.1       0.0       0.0       0.0       0.0       0.0
 2 C  s               1.4       0.0       0.6       0.4       0.0       0.3
 2 C  pz              0.0       0.9       0.0       0.0      18.1       0.0
 2 C  px             13.8       0.0       1.0       2.5       0.0       2.9
 2 C  py              0.5       0.0      10.6       0.2       0.0       2.9
 2 C  dz2             0.5       0.0       0.2       0.0       0.0       0.0
 2 C  dxz             0.0       0.2       0.0       0.0       1.7       0.0
 2 C  dyz             0.0       0.0       0.0       0.0       0.6       0.0
 2 C  dx2y2           0.9       0.0       0.2       1.6       0.0       1.7
 2 C  dxy             0.1       0.0       0.7       1.1       0.0       0.5
 2 C  f0              0.0       0.0       0.0       0.0       0.3       0.0
 2 C  f-2             0.0       0.0       0.0       0.0       0.3       0.0
 2 C  f+3             0.0       0.0       0.0       0.0       0.0       0.3
 2 C  f-3             0.0       0.0       0.0       0.0       0.0       0.4
 3 O  s               4.2       0.0       7.1       0.0       0.0       0.5
 3 O  pz              0.0       0.1       0.0       0.0       5.8       0.0
 3 O  px              1.3       0.0       7.4       6.0       0.0       3.2
 3 O  py             17.4       0.0      31.0       0.4       0.0       8.5
 3 O  dyz             0.0       0.0       0.0       0.0       0.3       0.0
 3 O  dx2y2           0.4       0.0       0.1       0.0       0.0       0.0
 3 O  dxy             0.1       0.0       0.2       0.1       0.0       0.0
 4 C  s               4.6       0.0       0.6       3.5       0.0       0.2
 4 C  pz              0.0       9.8       0.0       0.0       0.4       0.0
 4 C  px              2.9       0.0       0.0       4.1       0.0       4.3
 4 C  py              0.6       0.0       1.4       5.6       0.0       7.0
 4 C  dxz             0.0       1.4       0.0       0.0       0.9       0.0
 4 C  dyz             0.0       1.0       0.0       0.0       0.0       0.0
 4 C  dx2y2           0.1       0.0       0.1       0.2       0.0       0.0
 4 C  dxy             0.2       0.0       0.2       0.0       0.0       0.0
 4 C  f-2             0.0       0.1       0.0       0.0       0.0       0.0
 5 C  s               1.4      14.0       0.0       1.4       0.1       0.1
 5 C  pz              0.0      10.5       0.0       0.7       0.1       0.2
 5 C  px              1.5       0.0       0.0       0.8       0.0       0.9
 5 C  py              0.5       0.0       0.2       6.0       0.0       5.2
 5 C  dz2             0.2       1.1       0.0       0.0       0.0       0.0
 5 C  dxz             0.1       0.0       0.0       0.1       0.0       0.0
 5 C  dyz             0.0       0.0       0.0       0.3       0.0       0.1
 5 C  dxy             0.1       0.1       0.0       0.5       0.0       0.1
 6 C  s               1.4      14.0       0.0       1.4       0.1       0.1
 6 C  pz              0.0      10.5       0.0       0.7       0.1       0.2
 6 C  px              1.5       0.0       0.0       0.8       0.0       0.9
 6 C  py              0.5       0.0       0.2       6.1       0.0       5.2
 6 C  dz2             0.2       1.1       0.0       0.0       0.0       0.0
 6 C  dxz             0.1       0.0       0.0       0.1       0.0       0.0
 6 C  dyz             0.0       0.0       0.0       0.3       0.0       0.1
 6 C  dxy             0.1       0.1       0.0       0.5       0.0       0.1
 7 H  s               0.1       0.0       1.6       3.7       0.0       3.2
 7 H  py              0.0       0.0       0.2       0.3       0.0       0.2
 8 H  s               1.1       0.0       3.4       1.9       1.3       1.1
 8 H  pz              0.1       0.0       0.3       0.1       0.0       0.0
 8 H  px              0.0       0.0       0.0       0.1       0.0       0.1
 9 H  s               1.1       0.0       3.4       1.9       1.3       1.1
 9 H  pz              0.1       0.0       0.3       0.1       0.0       0.0
 9 H  px              0.0       0.0       0.0       0.1       0.0       0.1
10 H  s               2.3       0.0       0.9       5.7       0.0       3.4
10 H  py              0.2       0.0       0.1       0.5       0.0       0.1
11 H  s               0.6       7.9       0.0       0.5       0.1       0.5
11 H  px              0.0       0.4       0.0       0.0       0.0       0.0
11 H  py              0.0       0.3       0.0       0.1       0.0       0.0
12 H  s               0.5       7.9       0.1       3.5       0.1       2.1
12 H  py              0.0       0.6       0.0       0.1       0.0       0.0
13 H  s               0.6       7.9       0.0       0.5       0.1       0.5
13 H  px              0.0       0.4       0.0       0.0       0.0       0.0
13 H  py              0.0       0.3       0.0       0.1       0.0       0.0
14 H  s               0.5       7.9       0.1       3.5       0.1       2.1
14 H  py              0.0       0.6       0.0       0.1       0.0       0.0

                     18        19        20        21        22        23   
                  -0.92723  -0.91424  -0.89568  -0.83699  -0.82792  -0.81741
                   2.00000   2.00000   2.00000   2.00000   2.00000   2.00000
                  --------  --------  --------  --------  --------  --------
 0 C  s               0.1       0.0       0.1       0.0       0.0       0.0
 0 C  pz              0.0       4.2       0.0       0.0       0.0      42.8
 0 C  px              1.3       0.0       0.4       0.5       3.0       0.0
 0 C  py              0.1       0.0       0.6      26.2      21.0       0.0
 0 C  dz2             0.0       0.0       0.1       0.6       0.4       0.0
 0 C  dxz             0.0       0.2       0.0       0.0       0.0       1.7
 0 C  dyz             0.0       0.0       0.0       0.0       0.0       2.6
 0 C  dx2y2           0.0       0.0       0.1       0.0       0.1       0.0
 0 C  dxy             0.0       0.0       0.0       1.0       1.2       0.0
 0 C  f+2             0.0       0.0       0.0       0.0       0.0       0.3
 0 C  f+3             0.0       0.0       0.0       0.1       0.1       0.0
 1 O  s               0.1       0.0       0.1       0.3       0.1       0.0
 1 O  pz              0.0      11.2       0.0       0.0       0.0      10.2
 1 O  px              1.8       0.0       0.5       0.6       0.4       0.0
 1 O  py              0.5       0.0       3.4       0.9       3.6       0.0
 1 O  dxz             0.0       0.2       0.0       0.0       0.0       0.6
 1 O  dyz             0.0       0.1       0.0       0.0       0.0       0.0
 1 O  dx2y2           0.1       0.0       0.0       0.3       0.0       0.0
 1 O  dxy             0.0       0.0       0.0       0.5       0.2       0.0
 2 C  s               0.2       0.0       0.2       1.4       0.3       0.0
 2 C  pz              0.0      13.2       0.0       0.0       0.0       1.1
 2 C  px              0.6       0.0       0.1       0.8       4.5       0.0
 2 C  py              0.2       0.0       0.3       1.0       0.1       0.0
 2 C  dz2             0.0       0.0       0.0       0.1       0.0       0.0
 2 C  dyz             0.0       6.8       0.0       0.0       0.0       1.4
 2 C  dx2y2           0.0       0.0       1.1       0.6       0.6       0.0
 2 C  dxy             0.6       0.0       6.3       0.5       0.7       0.0
 2 C  f0              0.0       0.1       0.0       0.0       0.0       0.0
 2 C  f+2             0.0       0.5       0.0       0.0       0.0       0.0
 2 C  f-2             0.0       0.5       0.0       0.0       0.0       0.2
 2 C  f+3             0.2       0.0       0.5       0.1       0.2       0.0
 2 C  f-3             0.1       0.0       0.6       0.0       0.2       0.0
 3 O  s               0.0       0.0       0.0       0.1       0.0       0.0
 3 O  pz              0.0      58.9       0.0       0.0       0.0       2.0
 3 O  px              0.1       0.0      48.0       5.4       6.6       0.0
 3 O  py              0.0       0.0       2.9       0.2       0.1       0.0
 3 O  dyz             0.0       0.2       0.0       0.0       0.0       0.0
 3 O  dxy             0.0       0.0       0.0       0.1       0.1       0.0
 4 C  s               0.9       0.0       0.5       0.3       0.1       0.0
 4 C  pz              0.0       0.5       0.0       0.0       0.0       0.4
 4 C  px              4.1       0.0       2.6       2.0       2.8       0.0
 4 C  py             11.1       0.0       0.0       6.1       7.1       0.0
 4 C  dz2             0.0       0.0       0.1       0.0       0.0       0.0
 4 C  dxz             0.0       0.5       0.0       0.0       0.0       0.1
 4 C  dyz             0.0       0.1       0.0       0.0       0.0       0.0
 4 C  dx2y2           0.0       0.0       0.6       2.8       2.2       0.0
 4 C  dxy             0.7       0.0       0.2       0.0       0.0       0.0
 4 C  f+3             0.1       0.0       0.1       0.0       0.0       0.0
 5 C  s               2.1       0.1       0.2       0.0       0.0       0.0
 5 C  pz             10.5       0.1       1.4       0.7       0.2       0.0
 5 C  px              9.0       0.2       1.9       2.5       2.2       0.0
 5 C  py              0.4       0.0       6.1       2.2       2.4       0.0
 5 C  dz2             0.1       0.0       0.0       0.0       0.0       0.0
 5 C  dxz             0.2       0.0       0.0       0.0       0.0       0.0
 5 C  dx2y2           0.0       0.0       0.0       0.6       0.7       0.0
 5 C  dxy             0.2       0.0       0.0       0.0       0.0       0.0
 6 C  s               2.1       0.1       0.2       0.0       0.0       0.0
 6 C  pz             10.5       0.1       1.3       0.7       0.2       0.0
 6 C  px              9.0       0.2       1.9       2.5       2.2       0.0
 6 C  py              0.4       0.0       6.1       2.3       2.4       0.0
 6 C  dz2             0.1       0.0       0.0       0.0       0.0       0.0
 6 C  dxz             0.2       0.0       0.0       0.0       0.0       0.0
 6 C  dx2y2           0.0       0.0       0.0       0.6       0.7       0.0
 6 C  dxy             0.2       0.0       0.0       0.0       0.0       0.0
 7 H  s               0.1       0.0       0.1      11.7      12.2       0.0
 7 H  pz              0.0       0.1       0.0       0.0       0.0       0.6
 7 H  px              0.0       0.0       0.0       0.3       0.1       0.0
 7 H  py              0.0       0.0       0.0       0.1       0.2       0.0
 8 H  s               0.2       0.7       0.2       3.9       2.6      17.3
 8 H  pz              0.0       0.0       0.0       0.3       0.1       0.1
 8 H  py              0.0       0.1       0.0       0.1       0.1       0.4
 9 H  s               0.2       0.7       0.2       3.9       2.6      17.3
 9 H  pz              0.0       0.0       0.0       0.3       0.1       0.1
 9 H  py              0.0       0.1       0.0       0.1       0.1       0.4
10 H  s               6.0       0.0       0.2       6.3       6.3       0.0
10 H  py              0.2       0.0       0.0       0.1       0.1       0.0
11 H  s              10.3       0.1       0.8       1.1       1.5       0.0
11 H  px              0.2       0.0       0.0       0.0       0.0       0.0
11 H  py              0.3       0.0       0.0       0.0       0.0       0.0
12 H  s               1.2       0.0       4.0       2.7       2.3       0.0
12 H  px              0.2       0.0       0.0       0.0       0.0       0.0
12 H  py              0.0       0.0       0.1       0.0       0.0       0.0
13 H  s              10.3       0.1       0.8       1.1       1.5       0.0
13 H  px              0.2       0.0       0.0       0.0       0.0       0.0
13 H  py              0.3       0.0       0.0       0.0       0.0       0.0
14 H  s               1.2       0.0       4.0       2.7       2.3       0.0
14 H  px              0.2       0.0       0.0       0.0       0.0       0.0
14 H  py              0.0       0.0       0.1       0.0       0.0       0.0

                     24        25        26        27        28        29   
                  -0.79789  -0.75677  -0.74329  -0.31504  -0.17849  -0.11226
                   2.00000   2.00000   2.00000   0.00000   0.00000   0.00000
                  --------  --------  --------  --------  --------  --------
 0 C  s               0.0       0.0       0.0       0.0       5.0       2.9
 0 C  pz              0.0       0.0       0.3       0.0       0.0       0.0
 0 C  px              0.0       0.3       0.0       0.0      30.1       6.0
 0 C  py              0.0       0.0       0.0       0.0       1.9       0.2
 0 C  dz2             0.0       0.0       0.0       0.0       1.8       0.3
 0 C  dxz             0.0       0.0       0.1       0.3       0.0       0.0
 0 C  dyz             0.0       0.0       0.0       0.3       0.0       0.0
 0 C  dx2y2           0.0       0.0       0.0       0.0       4.6       0.4
 0 C  dxy             0.0       0.0       0.0       0.0       1.2       1.9
 0 C  f+1             0.0       0.0       0.0       0.0       0.5       0.1
 0 C  f+3             0.0       0.0       0.0       0.0       0.6       0.0
 0 C  f-3             0.0       0.0       0.0       0.0       0.4       0.2
 1 O  s               0.0       0.1       0.0       0.0      11.4       0.8
 1 O  pz              0.0       0.0       0.9      10.1       0.0       0.0
 1 O  px              0.0       0.4       0.0       0.0       5.9      20.9
 1 O  py              0.0       0.0       0.0       0.0       7.1       4.2
 1 O  dz2             0.0       0.0       0.0       0.0       2.1       0.1
 1 O  dxz             0.0       0.0       0.0       0.8       0.0       0.0
 1 O  dyz             0.0       0.0       0.0       0.9       0.0       0.0
 1 O  dx2y2           0.0       0.0       0.0       0.0       1.8       1.2
 1 O  dxy             0.0       0.0       0.0       0.0       0.0       5.8
 1 O  f+1             0.0       0.0       0.0       0.0       0.0       0.1
 1 O  f+3             0.0       0.0       0.0       0.0       0.1       0.1
 1 O  f-3             0.0       0.0       0.0       0.0       0.2       0.0
 2 C  s               0.0       0.1       0.0       0.0       2.6      12.6
 2 C  pz              0.1       0.0       1.3      44.0       0.0       0.0
 2 C  px              0.0       0.5       0.0       0.0       2.1       3.9
 2 C  py              0.0       0.3       0.0       0.0       2.9       2.2
 2 C  dz2             0.0       0.0       0.0       0.0       1.4       8.6
 2 C  dxz             0.1       0.0       3.0       0.4       0.0       0.0
[...]
 0 C  py              0.0       0.0       0.1       0.0       0.1       0.3
 0 C  dz2             0.1       0.0       0.0       0.0       0.0       0.2
 0 C  dxz             0.0       0.3       0.0       0.0       0.0       0.0
 0 C  dyz             0.0       0.1       0.0       0.0       0.0       0.0
 0 C  dx2y2           0.3       0.0       0.1       0.0       0.1       0.5
 0 C  dxy             0.1       0.0       0.1       0.0       0.5       0.3
 0 C  f0              0.0       0.1       0.0       0.0       0.0       0.0
 0 C  f+2             0.0       0.2       0.0       0.0       0.0       0.0
 0 C  f+3             0.1       0.0       0.1       0.0       0.3       0.0
 0 C  f-3             0.0       0.0       0.0       0.0       0.1       0.0
 1 O  s               0.6       0.0       0.5       0.4       1.5       2.2
 1 O  px              2.5       0.0       0.2       0.1       0.2       0.3
 1 O  py              0.9       0.0       0.1       0.1       0.4       0.2
 1 O  dz2            12.0       0.0       9.6       7.1       1.9       6.9
 1 O  dxz             0.0      35.3       0.0       0.0       0.0       0.0
 1 O  dyz             0.0       2.4       0.0       0.0       0.0       0.0
 1 O  dx2y2           0.7       0.0       0.0       0.3       6.3      56.1
 1 O  dxy            29.8       0.0      23.0       9.5      21.4       2.6
 1 O  f+1             1.5       0.0       0.2       0.6       0.0       0.2
 1 O  f-1             1.5       0.0       0.5       0.5       0.3       0.0
 1 O  f+2             0.0       1.2       0.0       0.0       0.0       0.0
 1 O  f-2             0.0       6.5       0.0       0.0       0.0       0.0
 1 O  f+3             4.3       0.0       2.1       0.1      11.3       0.9
 1 O  f-3             1.9       0.0       0.0       0.2       0.3      12.4
 2 C  s               0.3       0.0       0.6       4.0       0.8       0.2
 2 C  pz              0.0       0.2       0.0       0.0       0.0       0.0
 2 C  px              0.0       0.0       0.8       0.8       0.7       0.1
 2 C  py              0.0       0.0       1.6       0.9       0.1       0.2
 2 C  dz2             0.1       0.0       0.1       0.2       0.1       0.0
 2 C  dyz             0.0       3.4       0.0       0.0       0.0       0.0
 2 C  dx2y2           0.4       0.0       0.1       0.4       0.5       2.2
 2 C  dxy             1.2       0.0       1.5       0.3       4.0       0.4
 2 C  f+1             0.0       0.0       0.0       0.0       0.3       0.0
 2 C  f-1             0.0       0.0       0.5       0.2       0.1       0.2
 2 C  f+2             0.0       0.1       0.0       0.0       0.0       0.0
 2 C  f-2             0.0       0.6       0.0       0.0       0.0       0.0
 2 C  f+3             4.5       0.0       0.0       0.5       4.4       2.4
 2 C  f-3             4.4       0.0       0.0       3.2       2.3       1.3
 3 O  s               0.1       0.0       0.6       1.3       0.0       0.5
 3 O  pz              0.0       1.4       0.0       0.0       0.0       0.0
 3 O  px              0.5       0.0       1.1       0.3       3.1       0.1
 3 O  py              0.1       0.0       0.4       2.2       0.1       0.2
 3 O  dz2             3.3       0.0       5.5      11.7       0.2       0.8
 3 O  dxz             0.0       2.8       0.0       0.0       0.0       0.0
 3 O  dyz             0.0      31.9       0.0       0.0       0.0       0.0
 3 O  dx2y2           4.7       0.0       1.9      41.5       1.7       0.3
 3 O  dxy            14.2       0.0      38.5       0.4      12.7       0.9
 3 O  f0              0.0       3.9       0.0       0.0       0.0       0.0
 3 O  f+1             0.1       0.0       0.4       0.0       1.5       0.2
 3 O  f-1             0.0       0.0       1.2       4.5       0.0       0.5
 3 O  f+2             0.0       7.8       0.0       0.0       0.0       0.0
 3 O  f-2             0.0       1.1       0.0       0.0       0.0       0.0
 3 O  f+3             2.4       0.0       7.5       0.0      12.7       0.4
 3 O  f-3             3.6       0.0       0.0       7.8       8.4       2.2
 4 C  s               0.3       0.0       0.1       0.1       0.1       0.0
 4 C  px              0.5       0.0       0.1       0.1       0.1       0.0
 4 C  py              0.1       0.0       0.1       0.0       0.0       0.1
 4 C  dx2y2           0.4       0.0       0.1       0.1       0.2       0.1
 4 C  dxy             0.1       0.0       0.0       0.0       0.3       0.0
 4 C  f+3             0.6       0.0       0.0       0.0       0.1       0.1
 4 C  f-3             0.1       0.0       0.0       0.1       0.3       0.0

                    258       259       260       261       262       263   
                  20.68913  20.79987  20.84809  20.97325  21.70296  41.53155
                   0.00000   0.00000   0.00000   0.00000   0.00000   0.00000
                  --------  --------  --------  --------  --------  --------
 0 C  s              95.7       0.2       0.0       1.6       0.6       0.0
 1 O  s               0.2       0.0       0.0       0.0       0.4       0.7
 1 O  px              0.2       0.0       0.0       0.0       0.3       0.0
 1 O  py              0.0       0.0       0.0       0.0       0.2       0.0
 1 O  dxy             0.0       0.0       0.0       0.0       0.2       0.0
 2 C  s               0.7       1.2       0.0       0.5      93.6       0.0
 2 C  px              0.0       0.0       0.0       0.3       0.2       0.0
 2 C  dz2             0.0       0.0       0.0       0.0       0.2       0.0
 2 C  dx2y2           0.0       0.0       0.0       0.1       0.1       0.0
 3 O  s               0.0       0.0       0.0       0.0       0.9      99.2
 3 O  py              0.0       0.0       0.0       0.0       0.7       0.0
 4 C  s               1.2       3.0       0.0      93.4       0.9       0.0
 4 C  px              0.0       0.1       0.0       0.0       0.0       0.0
 5 C  s               0.2      47.1      49.4       1.5       0.4       0.0
 6 C  s               0.2      47.1      49.4       1.5       0.4       0.0
 7 H  s               0.2       0.0       0.0       0.0       0.0       0.0
 8 H  s               0.2       0.0       0.0       0.0       0.0       0.0
 9 H  s               0.2       0.0       0.0       0.0       0.0       0.0
10 H  s               0.0       0.0       0.0       0.3       0.0       0.0
10 H  py              0.0       0.0       0.0       0.1       0.0       0.0
11 H  s               0.0       0.1       0.1       0.0       0.0       0.0
12 H  s               0.0       0.1       0.1       0.0       0.0       0.0
13 H  s               0.0       0.1       0.1       0.0       0.0       0.0
14 H  s               0.0       0.1       0.1       0.0       0.0       0.0

                    264   
                  41.70059
                   0.00000
                  --------
 1 O  s              99.1
 3 O  s               0.7


                      *****************************
                      * MAYER POPULATION ANALYSIS *
                      *****************************

  NA   - Mulliken gross atomic population
  ZA   - Total nuclear charge
  QA   - Mulliken gross atomic charge
  VA   - Mayer's total valence
  BVA  - Mayer's bonded valence
  FA   - Mayer's free valence

  ATOM       NA         ZA         QA         VA         BVA        FA
  0 C      6.2236     6.0000    -0.2236     3.8384     3.8384     0.0000
  1 O      8.2686     8.0000    -0.2686     2.1156     2.1156    -0.0000
  2 C      5.6265     6.0000     0.3735     4.2158     4.2158    -0.0000
  3 O      8.4890     8.0000    -0.4890     2.0207     2.0207    -0.0000
  4 C      6.0953     6.0000    -0.0953     3.7413     3.7413     0.0000
  5 C      6.2578     6.0000    -0.2578     3.8749     3.8749     0.0000
  6 C      6.2578     6.0000    -0.2578     3.8749     3.8749     0.0000
  7 H      0.8425     1.0000     0.1575     0.9656     0.9656     0.0000
  8 H      0.8502     1.0000     0.1498     0.9668     0.9668     0.0000
  9 H      0.8502     1.0000     0.1498     0.9669     0.9669    -0.0000
 10 H      0.8464     1.0000     0.1536     0.9664     0.9664     0.0000
 11 H      0.8468     1.0000     0.1532     0.9702     0.9702     0.0000
 12 H      0.8492     1.0000     0.1508     0.9773     0.9773     0.0000
 13 H      0.8468     1.0000     0.1532     0.9702     0.9702    -0.0000
 14 H      0.8492     1.0000     0.1508     0.9773     0.9773     0.0000

  Mayer bond orders larger than 0.100000
B(  0-C ,  1-O ) :   0.8775 B(  0-C ,  7-H ) :   0.9667 B(  0-C ,  8-H ) :   0.9725 
B(  0-C ,  9-H ) :   0.9725 B(  1-O ,  2-C ) :   1.2116 B(  2-C ,  3-O ) :   1.8867 
B(  2-C ,  4-C ) :   1.0201 B(  4-C ,  5-C ) :   0.9005 B(  4-C ,  6-C ) :   0.9005 
B(  4-C , 10-H ) :   0.9656 B(  5-C ,  6-C ) :   0.9862 B(  5-C , 11-H ) :   0.9647 
B(  5-C , 12-H ) :   0.9617 B(  6-C , 13-H ) :   0.9647 B(  6-C , 14-H ) :   0.9617 


-------
TIMINGS
-------

Total SCF time: 0 days 0 hours 1 min 46 sec 

Total time                  ....     106.235 sec
Sum of individual times     ....     103.764 sec  ( 97.7%)

SCF preparation             ....       0.323 sec  (  0.3%)
Fock matrix formation       ....     102.271 sec  ( 96.3%)
  Startup                   ....       0.059 sec  (  0.1% of F)
  Split-RI-J                ....       3.882 sec  (  3.8% of F)
  Chain of spheres X        ....      83.391 sec  ( 81.5% of F)
  XC integration            ....      11.592 sec  ( 11.3% of F)
    XC Preparation          ....       0.000 sec  (  0.0% of XC)
    Basis function eval.    ....       2.699 sec  ( 23.3% of XC)
    Density eval.           ....       2.124 sec  ( 18.3% of XC)
    XC-Functional eval.     ....       2.631 sec  ( 22.7% of XC)
    XC-Potential eval.      ....       3.385 sec  ( 29.2% of XC)
  CPCM terms                ....       4.511 sec  (  4.4% of F)
Diagonalization             ....       0.000 sec  (  0.0%)
Density matrix formation    ....       0.198 sec  (  0.2%)
Total Energy calculation    ....       0.054 sec  (  0.1%)
Population analysis         ....       0.143 sec  (  0.1%)
Orbital Transformation      ....       0.062 sec  (  0.1%)
Orbital Orthonormalization  ....       0.000 sec  (  0.0%)
DIIS solution               ....       0.292 sec  (  0.3%)
  MO trafo                  ....       0.000 sec  (  0.0 % of DIIS)
  Orb grad                  ....       0.000 sec  (  0.0 % of DIIS)
  Energy W gradient         ....       0.000 sec  (  0.0 % of DIIS)
  DIIS error                ....       0.009 sec  (  3.2 % of DIIS)
  DIIS work                 ....       0.239 sec  ( 81.8 % of DIIS)
  Form Q                    ....       0.000 sec  (  0.0 % of DIIS)
  Form QpQm                 ....       0.000 sec  (  0.0 % of DIIS)
  Exp/Cayley                ....       0.000 sec  (  0.0 % of DIIS)
  Orb update                ....       0.000 sec  (  0.0 % of DIIS)
  Wake-sleep                ....       0.012 sec  (  4.2 % of DIIS)
SOSCF solution              ....       0.262 sec  (  0.2%)
  MO trafo                  ....       0.080 sec  ( 30.4 % of SOSCF)
  Orb grad                  ....       0.003 sec  (  1.1 % of SOSCF)
  Rot update                ....       0.109 sec  ( 41.8 % of SOSCF)
  Step                      ....       0.070 sec  ( 26.7 % of SOSCF)
Grid generation             ....       0.159 sec  (  0.1%)
Finished LeanSCF after 106.3 sec

Maximum memory used throughout the entire LEANSCF-calculation: 32.8 MB
------------------   -----------------
gCP correction             0.009548330
------------------   -----------------

-------------------------   --------------------
FINAL SINGLE POINT ENERGY      -345.808408454984
-------------------------   --------------------


------------------------------------------------------------------------------
                              ORCA PROPERTY CALCULATIONS
------------------------------------------------------------------------------

GBWName                                 ... sp_solv.gbw
Number of atoms                         ...     15
Number of basis functions               ...    265
Max core memory                         ...   1024 MB

Electric properties:
Dipole moment                           ... YES
Quadrupole moment                       ...  NO
Static polarizability (Dipole/Dipole)   ...  NO
Static polarizability (Dipole/Quad.)    ...  NO
Static polarizability (Quad./Quad.)     ...  NO
Static polarizability (Velocity)        ...  NO

Atomic electric properties:
Dipole moment                           ...  NO
Quadrupole moment                       ...  NO
Static polarizability                   ...  NO

Choice of electric origin               ... Center of mass
Position of electric origin             ...     0.003487     0.011553     0.000176

General magnetic properties:
Magnetizability                         ...  NO

EPR properties:
g-Tensor (aka g-matrix)                 ...  NO
Zero-Field splitting spin-orbit         ...  NO
Zero-field splitting spin-spin          ...  NO
Hyperfine couplings                     ...  NO (   0 nuclei)
Quadrupole couplings                    ...  NO (   0 nuclei)
Contact density                         ...  NO (   0 nuclei)

NMR properties:
Chemical shifts                         ...  NO (   0 nuclei)
Spin-rotation constants                 ...  NO (   0 nuclei)
Spin-spin couplings                     ...  NO (   0 nuclei,    0 pairs)

Choice of magnetic origin               ... GIAO
Position of magnetic origin             ...     0.000000     0.000000     0.000000

Properties with geometric perturbations:
SCF Hessian                             ...  NO
IR spectrum                             ...  NO
VCD spectrum                            ...  NO
X-ray spectroscopy properties:
SCF XES/XAS/RIXS spectra                ...  NO


-------------
DIPOLE MOMENT
-------------

Method             : SCF
Type of density    : Electron Density
Multiplicity       :   1
Irrep              :   0
Energy             :  -345.8179567853841263 Eh
Relativity type    : 
Basis              : AO
                                X                 Y                 Z
Electronic contribution:     -1.205207227       0.112006859      -0.000957072
Nuclear contribution   :      1.393762286       0.891384339      -0.001802028
                        -----------------------------------------
Total Dipole Moment    :      0.188555060       1.003391198      -0.002759100
                        -----------------------------------------
Magnitude (a.u.)       :      1.020957649
Magnitude (Debye)      :      2.595068109



--------------------
Rotational spectrum 
--------------------
 
Rotational constants in cm-1:             0.241229             0.053992             0.049629 
Rotational constants in MHz :          7231.860816          1618.648049          1487.832296 

Dipole components along the rotational axes: 
x,y,z [a.u.] :     0.036204     1.020316     0.000082 
x,y,z [Debye]:     0.092023     2.593436     0.000209 

 

Dipole moment calculation done in   0.0 sec 

Maximum memory used throughout the entire PROP-calculation: 19.8 MB

--------------------------------
SUGGESTED CITATIONS FOR THIS RUN
--------------------------------

Below you find a list of papers that are relevant to this ORCA run
We neither can nor want to force you to cite these papers, but we appreciate if you do
You receive ORCA, which is the product of decades of hard work by many enthusiastic individuals, for free
The only thing we kindly ask in return is that you cite our papers,
We deeply appreciate it, if you show your appreciation for ORCA by not just citing the generic ORCA reference.

Please note that relegating all ORCA citations to the supporting information does *not* help us.
SI sections are not indexed - citations you put there will not count into any citation statistics
But we need these citations in order to attract the funding resources that allow us to do what we are doing

Therefore, if you are a happy ORCA user, please consider citing a few of the papers listed below in the main body of your paper

In addition to the list printed below, the program has created the file sp_solv.bibtex that contains the list in bibtex format
You can import this file easily into all common literature databanks and citation aid programs


List of essential papers. We consider these as the minimum necessary citations

  1. Neese,F.
     Software update: the ORCA program system, version 5.0
     WIRES Comput. Molec. Sci., 2022 12(1)e1606
     doi.org/10.1002/wcms.1606

List of papers to cite with high priority. The work reported in these papers was absolutely
necessary for this run to complete.
Our perspective: the developers of density functionals and basis sets usually get cited in chemistry papers
Good! But without the algorithms to do something with them, the functionals or basis sets would not do anything.
Hence, in our opinion, the algorithm design and method developments papers are equally worthy of getting cited

  1. Neese,F.
     An improvement of the resolution of the identity approximation for the formation of the Coulomb matrix
     J. Comp. Chem., 2003 24(14)1740-1747
     doi.org/10.1002/jcc.10318
  2. Neese,F.; Wennmohs,F.; Hansen,A.; Becker,U.
     Efficient, approximate and parallel Hartree-Fock and hybrid DFT calculations. A 'chain-of-spheres' algorithm for the Hartree-Fock exchange
     Chem. Phys., 2009 356(1-3)98-109
     doi.org/10.1016/j.chemphys.2008.10.036
  3. Garcia-Rates,M.; Neese,F.
     Effect of the Solute Cavity on the Solvation Energy and its Derivatives within the Framework of the Gaussian Charge Scheme
     J. Comput. Chem., 2020 41 922-939
     doi.org/10.1002/jcc.26139
  4. Helmich-Paris,B.; de Souza,B.; Neese,F.; Izsák,R.
     An improved chain of spheres for exchange algorithm
     J. Chem. Phys., 2021 155 104109
     doi.org/doi: 10.1063/5.0058766.
  5. Neese,F.
     The SHARK Integral Generation and Digestion System
     J. Comp. Chem., 2022  1-16
     doi.org/10.1002/jcc.26942

List of suggested additional citations. These are papers that are important in the 'surrounding' of 
of this run, or papers that preceded the highly important papers. If you like your results we are grateful for a citation.

  1. Izsak,R.; Neese,F.
     An overlap fitted chain of spheres exchange method
     J. Chem. Phys., 2011 135 144105
     doi.org/10.1063/1.3646921
  2. Izsak,R.; Hansen,A.; Neese,F.
     The resolution of identity and chain of spheres approximations for the LPNO-CCSD singles Fock term
     Molec. Phys., 2012 110 2413-2417
     doi.org/10.1080/00268976.2012.687466
  3. Neese,F.
     The ORCA program system
     WIRES Comput. Molec. Sci., 2012 2(1)73-78
     doi.org/10.1002/wcms.81
  4. Izsak,R.; Neese,F.; Klopper,W.
     Robust fitting techniques in the chain of spheres approximation to the Fock exchange: The role of the complementary space
     J. Chem. Phys., 2013 139 
     doi.org/10.1063/1.4819264
  5. Neese,F.
     Software update: the ORCA program system, version 4.0
     WIRES Comput. Molec. Sci., 2018 8(1)1-6
     doi.org/10.1002/wcms.1327
  6. Neese,F.; Wennmohs,F.; Becker,U.; Riplinger,C.
     The ORCA quantum chemistry program package
     J. Chem. Phys., 2020 152 Art. No. L224108
     doi.org/10.1063/5.0004608

List of optional additional citations

  1. Neese,F.
     Approximate second-order SCF convergence for spin unrestricted wavefunctions
     Chem. Phys. Lett., 2000 325(1-3)93-98
     doi.org/10.1016/s0009-2614(00)00662-x

Timings for individual modules:

Sum of individual times          ...      108.565 sec (=   1.809 min)
Startup calculation              ...        1.762 sec (=   0.029 min)   1.6 %
SCF iterations                   ...      106.695 sec (=   1.778 min)  98.3 %
Property calculations            ...        0.108 sec (=   0.002 min)   0.1 %
                             ****ORCA TERMINATED NORMALLY****
TOTAL RUN TIME: 0 days 0 hours 1 minutes 49 seconds 498 msec
