      -----------------------------------------------------------      
     |                   =====================                   |     
     |                           x T B                           |     
     |                   =====================                   |     
     |                         S. Grimme                         |     
     |          Mulliken Center for Theoretical Chemistry        |     
     |                    University of Bonn                     |     
      -----------------------------------------------------------      

   * xtb version 6.7.1 (edcfbbe) compiled by 'albert@albert-system' on 2024-07-22

   xtb is free software: you can redistribute it and/or modify it under
   the terms of the GNU Lesser General Public License as published by
   the Free Software Foundation, either version 3 of the License, or
   (at your option) any later version.
   
   xtb is distributed in the hope that it will be useful,
   but WITHOUT ANY WARRANTY; without even the implied warranty of
   MERCHANTABILITY or FITNESS FOR A PARTICULAR PURPOSE.  See the
   GNU Lesser General Public License for more details.
   
   Cite this work as:
   * C. Bannwarth, E. Caldeweyher, S. Ehlert, A. Hansen, P. Pracht,
     J. Seibert, S. Spicher, S. Grimme, WIREs Comput. Mol. Sci., 2020, 11,
     e01493. DOI: 10.1002/wcms.1493
   
   for GFN2-xTB:
   * C. Bannwarth, S. Ehlert and S. Grimme., J. Chem. Theory Comput., 2019,
     15, 1652-1671. DOI: 10.1021/acs.jctc.8b01176
   for GFN1-xTB:
   * S. Grimme, C. Bannwarth, P. Shushkov, J. Chem. Theory Comput., 2017,
     13, 1989-2009. DOI: 10.1021/acs.jctc.7b00118
   for GFN0-xTB:
   * P. Pracht, E. Caldeweyher, S. Ehlert, S. Grimme, ChemRxiv, 2019, preprint.
     DOI: 10.26434/chemrxiv.8326202.v1
   for GFN-FF:
   * S. Spicher and S. Grimme, Angew. Chem. Int. Ed., 2020, 59, 15665-15673.
     DOI: 10.1002/anie.202004239
   
   for ALPB and GBSA implicit solvation:
   * S. Ehlert, M. Stahn, S. Spicher, S. Grimme, J. Chem. Theory Comput.,
     2021, 17, 4250-4261. DOI: 10.1021/acs.jctc.1c00471
   
   for ddCOSMO and CPCM-X implicit solvation:
   * M. Stahn, S. Ehlert, S. Grimme, J. Phys. Chem. A,
     2023, XX, XXXX-XXXX. DOI: 10.1021/acs.jpca.3c04382
   
   for DFT-D4:
   * E. Caldeweyher, C. Bannwarth and S. Grimme, J. Chem. Phys., 2017,
     147, 034112. DOI: 10.1063/1.4993215
   * E. Caldeweyher, S. Ehlert, A. Hansen, H. Neugebauer, S. Spicher,
     C. Bannwarth and S. Grimme, J. Chem. Phys., 2019, 150, 154122.
     DOI: 10.1063/1.5090222
   * E. Caldeweyher, J.-M. Mewes, S. Ehlert and S. Grimme, Phys. Chem. Chem. Phys.
     2020, 22, 8499-8512. DOI: 10.1039/D0CP00502A
   
   for sTDA-xTB:
   * S. Grimme and C. Bannwarth, J. Chem. Phys., 2016, 145, 054103.
     DOI: 10.1063/1.4959605
   
   in the mass-spec context:
   * V. Asgeirsson, C. Bauer and S. Grimme, Chem. Sci., 2017, 8, 4879.
     DOI: 10.1039/c7sc00601b
   * J. Koopman and S. Grimme, ACS Omega 2019, 4, 12, 15120-15133.
     DOI: 10.1021/acsomega.9b02011
   
   for metadynamics refer to:
   * S. Grimme, J. Chem. Theory Comput., 2019, 155, 2847-2862
     DOI: 10.1021/acs.jctc.9b00143
   
   for SPH calculations refer to:
   * S. Spicher and S. Grimme, J. Chem. Theory Comput., 2021, 17, 1701-1714
     DOI: 10.1021/acs.jctc.0c01306
   
   for ONIOM refer to:
   * C. Plett, A. Katbashev, S. Ehlert, S. Grimme, M. Bursch,
     Phys. Chem. Chem. Phys., 2023, 25, 17860-17868. DOI: 10.1039/D3CP02178E
   
   for DIPRO refer to:
   * J. Kohn, N. Gildemeister, S. Grimme, D. Fazzi, A. Hansen,
     J. Chem. Phys., 2023, just accepted.
   
   for PTB refer to:
   * S. Grimme, M. Mueller, A. Hansen, J. Chem. Phys., 2023, 158, 124111.
     DOI: 10.1063/5.0137838
   
   with help from (in alphabetical order)
   P. Atkinson, C. Bannwarth, F. Bohle, G. Brandenburg, E. Caldeweyher
   M. Checinski, S. Dohm, S. Ehlert, S. Ehrlich, I. Gerasimov, C. Hölzer
   A. Katbashev, J. Kohn, J. Koopman, C. Lavigne, S. Lehtola, F. März, M. Müller,
   F. Musil, H. Neugebauer, J. Pisarek, C. Plett, P. Pracht, F. Pultar,
   J. Seibert, P. Shushkov, S. Spicher, M. Stahn, M. Steiner, T. Strunk,
   J. Stückrath, T. Rose, and J. Unsleber
   
 * started run on 2025/04/06 at 18:00:44.318     
   ID    Z sym.   atoms
    1    6 C      1, 2, 4, 6, 8, 10
    2    1 H      3, 5, 7, 9, 11, 18-24
    3    8 O      12-17

           -------------------------------------------------
          |                Calculation Setup                |
           -------------------------------------------------

          program call               : /srv/scratch/z5358697/.xtb/bin/xtb solv.coord --gfn2 --sp --chrg 0 --norestart --parallel 1 --alpb water reference -I xtb_sp-xcontrol-inp
          hostname                   : k155
          coordinate file            : solv.coord
          omp threads                :                     1


           -------------------------------------------------
          |                 G F N 2 - x T B                 |
           -------------------------------------------------

        Reference                      10.1021/acs.jctc.8b01176
      * Hamiltonian:
        H0-scaling (s, p, d)           1.850000    2.230000    2.230000
        zeta-weighting                 0.500000
      * Dispersion:
        s8                             2.700000
        a1                             0.520000
        a2                             5.000000
        s9                             5.000000
      * Repulsion:
        kExp                           1.500000    1.000000
        rExp                           1.000000
      * Coulomb:
        alpha                          2.000000
        third order                    shell-resolved
        anisotropic                    true
        a3                             3.000000
        a5                             4.000000
        cn-shift                       1.200000
        cn-exp                         4.000000
        max-rad                        5.000000

      * Solvation model:               ALPB
        Solvent                        water
        Parameter file                 internal GFN2-xTB/ALPB
        Dielectric constant                8.0200E+01
        Reference state                gsolv=reference [X=1]
        Free energy shift                  2.8945E-03 Eh       1.8164E+00 kcal/mol
        Temperature                        2.9815E+02 K
        Density                            1.0000E+00 kg/L
        Solvent mass                       1.8000E+01 g/mol
        Interaction kernel             P16
        Born radius scaling (c1)           1.4744E+00
        Born radii integrator          GBOBC
        Born offset                        0.0000E+00 a0       0.0000E+00 AA
        H-bond correction              true
        Ion screening                  false
        Surface tension                    1.0000E-05 Eh       1.5569E+01 dyn/cm
        Grid points                               974 per atom

          ...................................................
          :                      SETUP                      :
          :.................................................:
          :  # basis functions                  60          :
          :  # atomic orbitals                  60          :
          :  # shells                           36          :
          :  # electrons                        72          :
          :  max. iterations                   250          :
          :  Hamiltonian                  GFN2-xTB          :
          :  restarted?                      false          :
          :  GBSA solvation                   true          :
          :  PC potential                    false          :
          :  electronic temp.          300.0000000     K    :
          :  accuracy                    1.0000000          :
          :  -> integral cutoff          0.2500000E+02      :
          :  -> integral neglect         0.1000000E-07      :
          :  -> SCF convergence          0.1000000E-05 Eh   :
          :  -> wf. convergence          0.1000000E-03 e    :
          :  Broyden damping             0.4000000          :
          :  net charge                          0          :
          :  unpaired electrons                  0          :
          ...................................................

 iter      E             dE          RMSdq      gap      omega  full diag
   1    -43.6511821 -0.436512E+02  0.491E+00   10.47       0.0  T
   2    -43.6847531 -0.335711E-01  0.264E+00   10.30       1.0  T
   3    -43.6868735 -0.212036E-02  0.611E-01   10.38       1.0  T
   4    -43.6872336 -0.360120E-03  0.180E-01   10.39       1.0  T
   5    -43.6872867 -0.530510E-04  0.687E-02   10.40       1.0  T
   6    -43.6873050 -0.183360E-04  0.216E-02   10.40       1.0  T
   7    -43.6873058 -0.812873E-06  0.597E-03   10.40       3.4  T
   8    -43.6873061 -0.252335E-06  0.208E-03   10.40       9.8  T
   9    -43.6873061 -0.867456E-08  0.913E-04   10.40      22.4  T
  10    -43.6873061 -0.443976E-08  0.283E-04   10.40      72.2  T

   *** convergence criteria satisfied after 10 iterations ***

         #    Occupation            Energy/Eh            Energy/eV
      -------------------------------------------------------------
         1        2.0000           -0.7254635             -19.7409
       ...           ...                  ...                  ...
        30        2.0000           -0.4596965             -12.5090
        31        2.0000           -0.4428459             -12.0505
        32        2.0000           -0.4397977             -11.9675
        33        2.0000           -0.4313852             -11.7386
        34        2.0000           -0.4195244             -11.4158
        35        2.0000           -0.4178960             -11.3715
        36        2.0000           -0.4012598             -10.9188 (HOMO)
        37                         -0.0190158              -0.5174 (LUMO)
        38                         -0.0010666              -0.0290
        39                          0.0052272               0.1422
        40                          0.0369621               1.0058
        41                          0.0464939               1.2652
       ...                                ...                  ...
        60                          0.3120024               8.4900
      -------------------------------------------------------------
                  HL-Gap            0.3822439 Eh           10.4014 eV
             Fermi-level           -0.2101378 Eh           -5.7181 eV

 SCC (total)                   0 d,  0 h,  0 min,  0.026 sec
 SCC setup                      ...        0 min,  0.002 sec (  5.765%)
 Dispersion                     ...        0 min,  0.000 sec (  0.543%)
 classical contributions        ...        0 min,  0.000 sec (  0.099%)
 integral evaluation            ...        0 min,  0.003 sec ( 10.237%)
 iterations                     ...        0 min,  0.014 sec ( 53.602%)
 molecular gradient             ...        0 min,  0.008 sec ( 29.181%)
 printout                       ...        0 min,  0.000 sec (  0.513%)

         :::::::::::::::::::::::::::::::::::::::::::::::::::::
         ::                     SUMMARY                     ::
         :::::::::::::::::::::::::::::::::::::::::::::::::::::
         :: total energy             -43.384297395453 Eh    ::
         :: total w/o Gsasa/hb       -43.362628833471 Eh    ::
         :: gradient norm              0.000194247878 Eh/a0 ::
         :: HOMO-LUMO gap             10.401387246488 eV    ::
         ::.................................................::
         :: SCC energy               -43.687120938350 Eh    ::
         :: -> isotropic ES            0.173502238611 Eh    ::
         :: -> anisotropic ES         -0.009629797859 Eh    ::
         :: -> anisotropic XC         -0.010052591317 Eh    ::
         :: -> dispersion             -0.019664944137 Eh    ::
         :: -> Gsolv                  -0.039951118039 Eh    ::
         ::    -> Gelec               -0.018282556057 Eh    ::
         ::    -> Gsasa                0.004805252333 Eh    ::
         ::    -> Ghb                 -0.029368363475 Eh    ::
         ::    -> Gshift               0.002894549160 Eh    ::
         :: repulsion energy           0.302823542897 Eh    ::
         :: add. restraining           0.000000000000 Eh    ::
         :: total charge              -0.000000000000 e     ::
         :::::::::::::::::::::::::::::::::::::::::::::::::::::

           -------------------------------------------------
          |                Property Printout                |
           -------------------------------------------------

    * Orbital Energies and Occupations

         #    Occupation            Energy/Eh            Energy/eV
      -------------------------------------------------------------
         1        2.0000           -0.7254635             -19.7409
       ...           ...                  ...                  ...
        24        2.0000           -0.5186249             -14.1125
        25        2.0000           -0.5106114             -13.8944
        26        2.0000           -0.5028516             -13.6833
        27        2.0000           -0.4918001             -13.3826
        28        2.0000           -0.4743077             -12.9066
        29        2.0000           -0.4661469             -12.6845
        30        2.0000           -0.4596965             -12.5090
        31        2.0000           -0.4428459             -12.0505
        32        2.0000           -0.4397977             -11.9675
        33        2.0000           -0.4313852             -11.7386
        34        2.0000           -0.4195244             -11.4158
        35        2.0000           -0.4178960             -11.3715
        36        2.0000           -0.4012598             -10.9188 (HOMO)
        37                         -0.0190158              -0.5174 (LUMO)
        38                         -0.0010666              -0.0290
        39                          0.0052272               0.1422
        40                          0.0369621               1.0058
        41                          0.0464939               1.2652
        42                          0.0613888               1.6705
        43                          0.0799356               2.1752
        44                          0.0883164               2.4032
        45                          0.0984086               2.6778
        46                          0.1095487               2.9810
        47                          0.1244979               3.3878
       ...                                ...                  ...
        60                          0.3120024               8.4900
      -------------------------------------------------------------
                  HL-Gap            0.3822439 Eh           10.4014 eV
             Fermi-level           -0.2101378 Eh           -5.7181 eV

     #   Z          covCN         q      C6AA      α(0)
     1   6 C        3.675     0.060    19.798     6.376
     2   6 C        3.737     0.089    19.183     6.250
     3   1 H        0.923     0.067     2.117     2.275
     4   6 C        3.726     0.095    19.111     6.242
     5   1 H        0.923     0.059     2.208     2.324
     6   6 C        3.727     0.095    19.111     6.242
     7   1 H        0.923     0.047     2.355     2.400
     8   6 C        3.725     0.092    19.152     6.249
     9   1 H        0.923     0.036     2.504     2.475
    10   6 C        3.616     0.242    17.261     5.994
    11   1 H        0.922     0.015     2.811     2.622
    12   8 O        1.700    -0.367    20.213     6.070
    13   8 O        1.657    -0.500    22.882     6.458
    14   8 O        1.656    -0.500    22.900     6.460
    15   8 O        1.656    -0.506    23.015     6.476
    16   8 O        1.656    -0.513    23.175     6.499
    17   8 O        1.655    -0.502    22.932     6.465
    18   1 H        0.924     0.050     2.323     2.383
    19   1 H        0.924     0.063     2.163     2.300
    20   1 H        0.804     0.393     0.497     1.107
    21   1 H        0.804     0.369     0.545     1.160
    22   1 H        0.804     0.373     0.537     1.151
    23   1 H        0.805     0.376     0.531     1.145
    24   1 H        0.804     0.366     0.552     1.167

 Mol. C6AA /au·bohr⁶  :       4729.072675
 Mol. C8AA /au·bohr⁸  :     100839.413736
 Mol. α(0) /au        :         98.287661


Wiberg/Mayer (AO) data.
largest (>0.10) Wiberg bond orders for each atom

 ---------------------------------------------------------------------------
     #   Z sym  total        # sym  WBO       # sym  WBO       # sym  WBO
 ---------------------------------------------------------------------------
     1   6 C    3.955 --    17 O    1.010     2 C    0.969    19 H    0.968
                            18 H    0.968
     2   6 C    3.940 --     4 C    0.981     1 C    0.969    12 O    0.955
                             3 H    0.954
     3   1 H    0.995 --     2 C    0.954
     4   6 C    3.958 --    16 O    0.996     2 C    0.981     6 C    0.964
                             5 H    0.956
     5   1 H    0.996 --     4 C    0.956
     6   6 C    3.959 --    15 O    1.000     8 C    0.968     4 C    0.964
                             7 H    0.956
     7   1 H    0.998 --     6 C    0.956
     8   6 C    3.961 --    14 O    1.001     6 C    0.968    10 C    0.957
                             9 H    0.955
     9   1 H    0.999 --     8 C    0.955
    10   6 C    3.929 --    13 O    1.012    12 O    0.958     8 C    0.957
                            11 H    0.946
    11   1 H    1.000 --    10 C    0.946
    12   8 O    2.054 --    10 C    0.958     2 C    0.955
    13   8 O    1.930 --    10 C    1.012    20 H    0.827
    14   8 O    1.920 --     8 C    1.001    21 H    0.845
    15   8 O    1.920 --     6 C    1.000    22 H    0.846
    16   8 O    1.913 --     4 C    0.996    23 H    0.844
    17   8 O    1.923 --     1 C    1.010    24 H    0.852
    18   1 H    0.997 --     1 C    0.968
    19   1 H    0.996 --     1 C    0.968
    20   1 H    0.845 --    13 O    0.827
    21   1 H    0.864 --    14 O    0.845
    22   1 H    0.861 --    15 O    0.846
    23   1 H    0.858 --    16 O    0.844
    24   1 H    0.866 --    17 O    0.852
 ---------------------------------------------------------------------------

Topologies differ in total number of bonds
Writing topology from bond orders to xtbtopo.mol

molecular dipole:
                 x           y           z       tot (Debye)
 q only:        0.081      -0.193       0.377
   full:        0.174      -0.294       0.546       1.638
molecular quadrupole (traceless):
                xx          xy          yy          xz          yz          zz
 q only:        0.562       1.857       4.459      -4.602       2.297      -5.021
  q+dip:       -2.633       4.220       6.697      -6.332       3.562      -4.064
   full:       -1.541       3.624       6.476      -6.314       3.106      -4.935


           -------------------------------------------------
          | TOTAL ENERGY              -43.384297395453 Eh   |
          | GRADIENT NORM               0.000194247878 Eh/α |
          | HOMO-LUMO GAP              10.401387246488 eV   |
           -------------------------------------------------

------------------------------------------------------------------------
 * finished run on 2025/04/06 at 18:00:44.392     
------------------------------------------------------------------------
 total:
 * wall-time:     0 d,  0 h,  0 min,  0.074 sec
 *  cpu-time:     0 d,  0 h,  0 min,  0.029 sec
 * ratio c/w:     0.397 speedup
 SCF:
 * wall-time:     0 d,  0 h,  0 min,  0.026 sec
 *  cpu-time:     0 d,  0 h,  0 min,  0.021 sec
 * ratio c/w:     0.787 speedup

