
                                 *****************
                                 * O   R   C   A *
                                 *****************

                                            #,                                       
                                            ###                                      
                                            ####                                     
                                            #####                                    
                                            ######                                   
                                           ########,                                 
                                     ,,################,,,,,                         
                               ,,#################################,,                 
                          ,,##########################################,,             
                       ,#########################################, ''#####,          
                    ,#############################################,,   '####,        
                  ,##################################################,,,,####,       
                ,###########''''           ''''###############################       
              ,#####''   ,,,,##########,,,,          '''####'''          '####       
            ,##' ,,,,###########################,,,                        '##       
           ' ,,###''''                  '''############,,,                           
         ,,##''                                '''############,,,,        ,,,,,,###''
      ,#''                                            '''#######################'''  
     '                                                          ''''####''''         
             ,#######,   #######,   ,#######,      ##                                
            ,#'     '#,  ##    ##  ,#'     '#,    #''#        ,####,   ,####,        
            ##       ##  ##   ,#'  ##            #'  '#       #'       #'  '#        
            ##       ##  #######   ##           ,######,      #####,   #    #        
            '#,     ,#'  ##    ##  '#,     ,#' ,#      #,     #,   #   #,  ,#        
             '#######'   ##     ##  '#######'  #'      '#     '####' # '####'        



                #########################################################
                #                        -***-                          #
                #          Department of theory and spectroscopy        #
                #                                                       #
                #                      Frank Neese                      #
                #                                                       #
                #     Directorship, Architecture, Infrastructure        #
                #                    SHARK, DRIVERS                     #
                #        Core code/Algorithms in most modules           #
                #                                                       #
                #        Max Planck Institute fuer Kohlenforschung      #
                #                Kaiser Wilhelm Platz 1                 #
                #                 D-45470 Muelheim/Ruhr                 #
                #                      Germany                          #
                #                                                       #
                #                  All rights reserved                  #
                #                        -***-                          #
                #########################################################


                         Program Version 6.0.0  -   RELEASE  -


 With contributions from (in alphabetic order):
   Daniel Aravena         : Magnetic Suceptibility
   Michael Atanasov       : Ab Initio Ligand Field Theory (pilot matlab implementation)
   Alexander A. Auer      : GIAO ZORA, VPT2 properties, NMR spectrum
   Ute Becker             : All parallelization in ORCA, NUMFREQ, NUMCALC
   Giovanni Bistoni       : ED, misc. LED, open-shell LED, HFLD
   Martin Brehm           : Molecular dynamics
   Dmytro Bykov           : pre 5.0 version of the SCF Hessian
   Marcos Casanova-Páez   : Triplet and SCS-CIS(D). UHF-(DLPNO)-IP/EA/STEOM-CCSD. UHF-CVS-IP/STEOM-CCSD
   Vijay G. Chilkuri      : MRCI spin determinant printing, contributions to CSF-ICE
   Pauline Colinet        : FMM embedding
   Dipayan Datta          : RHF DLPNO-CCSD density
   Achintya Kumar Dutta   : EOM-CC, STEOM-CC
   Nicolas Foglia         : Exact transition moments, OPA infrastructure, MCD improvements
   Dmitry Ganyushin       : Spin-Orbit,Spin-Spin,Magnetic field MRCI
   Miquel Garcia          : C-PCM and meta-GGA Hessian, CCSD/C-PCM, Gaussian charge scheme
   Tiago L. C. Gouveia    : GS-ROHF, GS-ROCIS
   Yang Guo               : DLPNO-NEVPT2, F12-NEVPT2, CIM, IAO-localization
   Andreas Hansen         : Spin unrestricted coupled pair/coupled cluster methods
   Ingolf Harden          : AUTO-CI MPn and infrastructure 
   Benjamin Helmich-Paris : MC-RPA, TRAH-(SCF,CASSCF), AVAS, COSX integrals, SCF dyn. polar.
   Lee Huntington         : MR-EOM, pCC
   Robert Izsak           : Overlap fitted RIJCOSX, COSX-SCS-MP3, EOM
   Riya Kayal             : Wick's Theorem for AUTO-CI, AUTO-CI UHF-CCSDT
   Emily Kempfer          : AUTO-CI, RHF CISDT and CCSDT
   Christian Kollmar      : KDIIS, OOCD, Brueckner-CCSD(T), CCSD density, CASPT2, CASPT2-K, improved NEVPT2
   Axel Koslowski         : Symmetry handling
   Simone Kossmann        : Meta GGA functionals, TD-DFT gradient, OOMP2, (MP2 Hessian; deprecated post 5.0)
   Lucas Lang             : DCDCAS
   Marvin Lechner         : AUTO-CI (C++ implementation), FIC-MRCC
   Spencer Leger          : CASSCF response
   Dagmar Lenk            : GEPOL surface, SMD, ORCA-2-JSON
   Dimitrios Liakos       : Extrapolation schemes; Compound Job, initial MDCI parallelization
   Dimitrios Manganas     : Further ROCIS development; embedding schemes. LFT, Crystal Embedding
   Dimitrios Pantazis     : SARC Basis sets
   Anastasios Papadopoulos: AUTO-CI, single reference methods and gradients
   Taras Petrenko         : pre 6.0 DFT Hessian and TD-DFT gradient, (ASA, deprecated), ECA, 1-Electron XAS/XES, NRVS
   Peter Pinski           : DLPNO-MP2, DLPNO-MP2 Gradient
   Christoph Reimann      : Effective Core Potentials
   Marius Retegan         : Local ZFS, SOC
   Christoph Riplinger    : Optimizer, TS searches, QM/MM, DLPNO-CCSD(T), (RO)-DLPNO pert. Triples
   Michael Roemelt        : Original ROCIS implementation
   Masaaki Saitow         : Open-shell DLPNO-CCSD energy and density
   Barbara Sandhoefer     : DKH picture change effects
   Kantharuban Sivalingam : CASSCF convergence/infrastructure, NEVPT2 and variants, FIC-MRCI
   Bernardo de Souza      : ESD, SOC TD-DFT
   Georgi Stoychev        : AutoAux, RI-MP2 NMR, DLPNO-MP2 response, X2C
   Van Anh Tran           : RI-MP2 g-tensors
   Willem Van den Heuvel  : Paramagnetic NMR
   Zikuan Wang            : NOTCH, Electric field optimization 
   Frank Wennmohs         : Technical directorship and infrastructure
   Hang Xu                : AUTO-CI-Response properties 


 We gratefully acknowledge several colleagues who have allowed us to
 interface, adapt or use parts of their codes:
   Stefan Grimme, W. Hujo, H. Kruse, P. Pracht,  : VdW corrections, initial TS optimization,
                  C. Bannwarth, S. Ehlert,         DFT functionals, gCP, sTDA/sTD-DF
                  L. Wittmann, M. Mueller
   Ed Valeev, F. Pavosevic, A. Kumar             : LibInt (2-el integral package), F12 methods
   Garnet Chan, S. Sharma, J. Yang, R. Olivares  : DMRG
   Ulf Ekstrom                                   : XCFun DFT Library
   Mihaly Kallay                                 : mrcc  (arbitrary order and MRCC methods)
   Frank Weinhold                                : gennbo (NPA and NBO analysis)
   Simon Mueller                                 : openCOSMO-RS
   Christopher J. Cramer and Donald G. Truhlar   : smd solvation model
   Lars Goerigk                                  : TD-DFT with DH, B97 family of functionals
   V. Asgeirsson, H. Jonsson                     : NEB implementation
   FAccTs GmbH                                   : IRC, NEB, NEB-TS, DLPNO-Multilevel, CI-OPT
                                                   MM, QMMM, 2- and 3-layer-ONIOM, Crystal-QMMM,
                                                   LR-CPCM, SF, NACMEs, symmetry and pop. for TD-DFT,
                                                   nearIR, NL-DFT gradient (VV10), updates on ESD,
                                                   ML-optimized integration grids, MBIS, APM,
                                                   GOAT, DOCKER, SOLVATOR, interface openCOSMO-RS
   S Lehtola, MJT Oliveira, MAL Marques          : LibXC Library
   Liviu Ungur et al                             : ANISO software


 Your calculation uses the libint2 library for the computation of 2-el integrals
 For citations please refer to: http://libint.valeyev.net

 Your ORCA version has been built with support for libXC version: 6.2.2
 For citations please refer to: https://libxc.gitlab.io

 This ORCA versions uses:
   CBLAS   interface :  Fast vector & matrix operations
   LAPACKE interface :  Fast linear algebra routines
   SCALAPACK package :  Parallel linear algebra routines
   Shared memory     :  Shared parallel matrices
   BLAS/LAPACK       :  OpenBLAS 0.3.27  USE64BITINT DYNAMIC_ARCH NO_AFFINITY SkylakeX SINGLE_THREADED
        Core in use  :  SkylakeX
   Copyright (c) 2011-2014, The OpenBLAS Project


Your calculation utilizes the geometrical counterpoise correction gCP
Please cite in your paper:
H.Kruse, S. Grimme J.Chem.Phys., 136, (2012), 154101 
   

Your calculation utilizes the atom-pairwise dispersion correction
based on EEQ partial charges (D4)


Your calculation utilizes the SMD solvation module
Please cite in your paper:
A.V. Marenich, C.J. Cramer, D.G. Truhlar J. Phys. Chem. B, 113, (2009), 6378 

================================================================================

----- Orbital basis set information -----
Your calculation utilizes the basis: def2-mTZVPP
   Stefan Grimme, Andreas Hansen, Sebastian Ehlert, and Jan-Michael Mewes 
   J. Chem. Phys. 154, 064103 (2021). DOI: 10.1063/5.0040021

----- AuxJ basis set information -----
Your calculation utilizes the auxiliary basis: def2/J
   F. Weigend, Phys. Chem. Chem. Phys. 8, 1057 (2006).

================================================================================
                                        WARNINGS
                       Please study these warnings very carefully!
================================================================================

Using LibXC functional ID 497 : Re-regularized SCAN exchange by Furness et al
[ 1]  J. W. Furness, A. D. Kaplan, J. Ning, J. P. Perdew, and J. Sun.,  J. Phys. Chem. Lett. 11, 8208-8215 (2020)
[ 2]  J. W. Furness, A. D. Kaplan, J. Ning, J. P. Perdew, and J. Sun.,  J. Phys. Chem. Lett. 11, 9248-9248 (2020)
Using LibXC functional ID 498 : Re-regularized SCAN correlation by Furness et al
[ 1]  J. W. Furness, A. D. Kaplan, J. Ning, J. P. Perdew, and J. Sun.,  J. Phys. Chem. Lett. 11, 8208-8215 (2020)
[ 2]  J. W. Furness, A. D. Kaplan, J. Ning, J. P. Perdew, and J. Sun.,  J. Phys. Chem. Lett. 11, 9248-9248 (2020)
Using LibXC functional ID 497 : Re-regularized SCAN exchange by Furness et al
[ 1]  J. W. Furness, A. D. Kaplan, J. Ning, J. P. Perdew, and J. Sun.,  J. Phys. Chem. Lett. 11, 8208-8215 (2020)
[ 2]  J. W. Furness, A. D. Kaplan, J. Ning, J. P. Perdew, and J. Sun.,  J. Phys. Chem. Lett. 11, 9248-9248 (2020)
Using LibXC functional ID 498 : Re-regularized SCAN correlation by Furness et al
[ 1]  J. W. Furness, A. D. Kaplan, J. Ning, J. P. Perdew, and J. Sun.,  J. Phys. Chem. Lett. 11, 8208-8215 (2020)
[ 2]  J. W. Furness, A. D. Kaplan, J. Ning, J. P. Perdew, and J. Sun.,  J. Phys. Chem. Lett. 11, 9248-9248 (2020)

================================================================================
                                       INPUT FILE
================================================================================
NAME = sp_solv.inp
|  1> ! r2scan-3c def2/J RI DEFGRID2 scfconv6 printgap
|  2> %output
|  3>     printlevel normal
|  4> end
|  5> %cpcm
|  6>     smd true
|  7>     smdsolvent "water"
|  8> end
|  9> * xyz 0 1
| 10> C -3.3521237228 0.2580173647 0.2988224845
| 11> O -2.1715542736 0.3701540894 -0.4999275767
| 12> C -1.0516764147 -0.1715595532 -0.0210708889
| 13> O -1.0156226674 -0.7558659272 1.0400360916
| 14> C 0.1002892254 0.0833808085 -0.9655607747
| 15> C 1.0826356185 -1.0901151682 -1.0462812884
| 16> C 1.8968834223 -1.2589989374 0.2337393528
| 17> C 2.6225324538 0.0351754648 0.5859297946
| 18> C 1.6119850518 1.1649107896 0.7572484262
| 19> C 0.8274318485 1.3699176759 -0.534236015
| 20> H -3.1995701147 0.7478387265 1.2612575753
| 21> H -3.5873450216 -0.7931895231 0.4694999894
| 22> H -4.1372220583 0.7472097673 -0.2685976007
| 23> H -0.3487332251 0.2549805959 -1.9487770821
| 24> H 0.5337833444 -2.0101570179 -1.2574083532
| 25> H 1.7607055548 -0.9005025651 -1.8807967294
| 26> H 1.2283977791 -1.5325553445 1.0512383681
| 27> H 2.6158777464 -2.0690082545 0.0987684487
| 28> H 3.1907121357 -0.0985475277 1.5076849295
| 29> H 3.324232041 0.2915582076 -0.2110596855
| 30> H 0.9263050111 0.9115358941 1.5691267504
| 31> H 2.123133167 2.0918725282 1.0230895718
| 32> H 0.1008637067 2.1764467619 -0.415740198
| 33> H 1.5173879855 1.6490507695 -1.3325451054
| 34> *
| 35> 
| 36>                          ****END OF INPUT****
================================================================================

                       ****************************
                       * Single Point Calculation *
                       ****************************

---------------------------------
CARTESIAN COORDINATES (ANGSTROEM)
---------------------------------
  C     -3.352124    0.258017    0.298822
  O     -2.171554    0.370154   -0.499928
  C     -1.051676   -0.171560   -0.021071
  O     -1.015623   -0.755866    1.040036
  C      0.100289    0.083381   -0.965561
  C      1.082636   -1.090115   -1.046281
  C      1.896883   -1.258999    0.233739
  C      2.622532    0.035175    0.585930
  C      1.611985    1.164911    0.757248
  C      0.827432    1.369918   -0.534236
  H     -3.199570    0.747839    1.261258
  H     -3.587345   -0.793190    0.469500
  H     -4.137222    0.747210   -0.268598
  H     -0.348733    0.254981   -1.948777
  H      0.533783   -2.010157   -1.257408
  H      1.760706   -0.900503   -1.880797
  H      1.228398   -1.532555    1.051238
  H      2.615878   -2.069008    0.098768
  H      3.190712   -0.098548    1.507685
  H      3.324232    0.291558   -0.211060
  H      0.926305    0.911536    1.569127
  H      2.123133    2.091873    1.023090
  H      0.100864    2.176447   -0.415740
  H      1.517388    1.649051   -1.332545

----------------------------
CARTESIAN COORDINATES (A.U.)
----------------------------
  NO LB      ZA    FRAG     MASS         X           Y           Z
   0 C     6.0000    0    12.011   -6.334596    0.487582    0.564693
   1 O     8.0000    0    15.999   -4.103643    0.699490   -0.944726
   2 C     6.0000    0    12.011   -1.987380   -0.324201   -0.039818
   3 O     8.0000    0    15.999   -1.919249   -1.428380    1.965383
   4 C     6.0000    0    12.011    0.189519    0.157567   -1.824645
   5 C     6.0000    0    12.011    2.045885   -2.060019   -1.977185
   6 C     6.0000    0    12.011    3.584590   -2.379163    0.441703
   7 C     6.0000    0    12.011    4.955868    0.066472    1.107247
   8 C     6.0000    0    12.011    3.046210    2.201362    1.430992
   9 C     6.0000    0    12.011    1.563620    2.588769   -1.009560
  10 H     1.0000    0     1.008   -6.046311    1.413210    2.383431
  11 H     1.0000    0     1.008   -6.779100   -1.498911    0.887226
  12 H     1.0000    0     1.008   -7.818217    1.412022   -0.507576
  13 H     1.0000    0     1.008   -0.659010    0.481843   -3.682655
  14 H     1.0000    0     1.008    1.008704   -3.798646   -2.376157
  15 H     1.0000    0     1.008    3.327251   -1.701703   -3.554191
  16 H     1.0000    0     1.008    2.321335   -2.896110    1.986553
  17 H     1.0000    0     1.008    4.943293   -3.909859    0.186645
  18 H     1.0000    0     1.008    6.029572   -0.186228    2.849112
  19 H     1.0000    0     1.008    6.281888    0.550965   -0.398845
  20 H     1.0000    0     1.008    1.750463    1.722553    2.965220
  21 H     1.0000    0     1.008    4.012140    3.953066    1.933359
  22 H     1.0000    0     1.008    0.190605    4.112888   -0.785635
  23 H     1.0000    0     1.008    2.867448    3.116254   -2.518145

--------------------------------
INTERNAL COORDINATES (ANGSTROEM)
--------------------------------
 C      0   0   0     0.000000000000     0.00000000     0.00000000
 O      1   0   0     1.429797373643     0.00000000     0.00000000
 C      2   1   0     1.332998055844   117.45954779     0.00000000
 O      3   2   1     1.211883589895   122.37586957     0.90892328
 C      3   2   1     1.511317494233   110.32274709   182.05915072
 C      5   3   2     1.532518529969   113.09991553   216.37249439
 C      6   5   3     1.526425253784   112.48759639   289.67848005
 C      7   6   5     1.524956395285   110.70814217   304.71859811
 C      8   7   6     1.525404218338   109.82997533    58.39737780
 C      9   8   7     1.524953643263   110.19878787   300.15146628
 H      1   2   3     1.090632327516   110.01476185    60.55735351
 H      1   2   3     1.090640083183   109.94364193   300.55251857
 H      1   2   3     1.085197749839   105.65829827   180.56910020
 H      5   3   2     1.094432252461   105.97165643   336.48701040
 H      6   5   3     1.091920538077   109.46208696    51.89860886
 H      6   5   3     1.091855209740   107.77971999   169.24543081
 H      7   6   5     1.090876163021   109.22523625    65.18146886
 H      7   6   5     1.091460066530   109.25714713   183.20757228
 H      8   7   6     1.091028193202   109.81059192   179.40003120
 H      8   7   6     1.092385761932   109.65443355   298.03712253
 H      9   8   7     1.092475340312   109.11665891    60.70176926
 H      9   8   7     1.091421996844   110.24960443   179.22228705
 H     10   9   8     1.091985205893   110.46933625   179.86980661
 H     10   9   8     1.091444986585   109.18374484   298.64971816

---------------------------
INTERNAL COORDINATES (A.U.)
---------------------------
 C      0   0   0     0.000000000000     0.00000000     0.00000000
 O      1   0   0     2.701925463186     0.00000000     0.00000000
 C      2   1   0     2.519001262595   117.45954779     0.00000000
 O      3   2   1     2.290128091095   122.37586957     0.90892328
 C      3   2   1     2.855976165504   110.32274709   182.05915072
 C      5   3   2     2.896040316802   113.09991553   216.37249439
 C      6   5   3     2.884525693554   112.48759639   289.67848005
 C      7   6   5     2.881749953261   110.70814217   304.71859811
 C      8   7   6     2.882596216187   109.82997533    58.39737780
 C      9   8   7     2.881744752692   110.19878787   300.15146628
 H      1   2   3     2.060996411806   110.01476185    60.55735351
 H      1   2   3     2.061011067894   109.94364193   300.55251857
 H      1   2   3     2.050726548343   105.65829827   180.56910020
 H      5   3   2     2.068177229281   105.97165643   336.48701040
 H      6   5   3     2.063430776970   109.46208696    51.89860886
 H      6   5   3     2.063307324303   107.77971999   169.24543081
 H      7   6   5     2.061457194132   109.22523625    65.18146886
 H      7   6   5     2.062560611854   109.25714713   183.20757228
 H      8   7   6     2.061744489539   109.81059192   179.40003120
 H      8   7   6     2.064309922647   109.65443355   298.03712253
 H      9   8   7     2.064479201252   109.11665891    60.70176926
 H      9   8   7     2.062488670572   110.24960443   179.22228705
 H     10   9   8     2.063552981431   110.46933625   179.86980661
 H     10   9   8     2.062532114887   109.18374484   298.64971816

---------------------
BASIS SET INFORMATION
---------------------
There are 3 groups of distinct atoms

 Group   1 Type C   : 11s6p1d contracted to 5s3p1d pattern {62111/411/1}
 Group   2 Type O   : 11s6p2d contracted to 5s3p2d pattern {62111/411/11}
 Group   3 Type H   : 4s1p contracted to 2s1p pattern {31/1}

Atom   0C    basis set group =>   1
Atom   1O    basis set group =>   2
Atom   2C    basis set group =>   1
Atom   3O    basis set group =>   2
Atom   4C    basis set group =>   1
Atom   5C    basis set group =>   1
Atom   6C    basis set group =>   1
Atom   7C    basis set group =>   1
Atom   8C    basis set group =>   1
Atom   9C    basis set group =>   1
Atom  10H    basis set group =>   3
Atom  11H    basis set group =>   3
Atom  12H    basis set group =>   3
Atom  13H    basis set group =>   3
Atom  14H    basis set group =>   3
Atom  15H    basis set group =>   3
Atom  16H    basis set group =>   3
Atom  17H    basis set group =>   3
Atom  18H    basis set group =>   3
Atom  19H    basis set group =>   3
Atom  20H    basis set group =>   3
Atom  21H    basis set group =>   3
Atom  22H    basis set group =>   3
Atom  23H    basis set group =>   3
---------------------------------
AUXILIARY/J BASIS SET INFORMATION
---------------------------------
There are 3 groups of distinct atoms

 Group   1 Type C   : 12s5p4d2f1g contracted to 6s4p3d1f1g pattern {711111/2111/211/2/1}
 Group   2 Type O   : 12s5p4d2f1g contracted to 6s4p3d1f1g pattern {711111/2111/211/2/1}
 Group   3 Type H   : 5s2p1d contracted to 3s1p1d pattern {311/2/1}

Atom   0C    basis set group =>   1
Atom   1O    basis set group =>   2
Atom   2C    basis set group =>   1
Atom   3O    basis set group =>   2
Atom   4C    basis set group =>   1
Atom   5C    basis set group =>   1
Atom   6C    basis set group =>   1
Atom   7C    basis set group =>   1
Atom   8C    basis set group =>   1
Atom   9C    basis set group =>   1
Atom  10H    basis set group =>   3
Atom  11H    basis set group =>   3
Atom  12H    basis set group =>   3
Atom  13H    basis set group =>   3
Atom  14H    basis set group =>   3
Atom  15H    basis set group =>   3
Atom  16H    basis set group =>   3
Atom  17H    basis set group =>   3
Atom  18H    basis set group =>   3
Atom  19H    basis set group =>   3
Atom  20H    basis set group =>   3
Atom  21H    basis set group =>   3
Atom  22H    basis set group =>   3
Atom  23H    basis set group =>   3

Checking for AutoStart:
The File: sp_solv.gbw exists
Trying to determine its content:
     ... Fine, the file contains calculation information
     ... Fine, the calculation information was read
     ... Fine, the file contains a basis set
     ... Fine, the basis set was read
     ... Fine, the file contains a geometry
     ... Fine, the geometry was read
     ... Fine, the file contains a set of orbitals
     ... Fine, the orbitals can be read
     => possible old guess file was deleted
     => GBW file was renamed to GES file
     => GES file is set as startup file
     => Guess is set to MORead
     ... now leaving AutoStart

------------------------------------------------------------------------------
                             ORCA STARTUP CALCULATIONS
                           -- RI-GTO INTEGRALS CHOSEN --
------------------------------------------------------------------------------
------------------------------------------------------------------------------
                   ___                                                        
                  /   \      - P O W E R E D   B Y -                         
                 /     \                                                     
                 |  |  |   _    _      __       _____    __    __             
                 |  |  |  | |  | |    /  \     |  _  \  |  |  /  |          
                  \  \/   | |  | |   /    \    | | | |  |  | /  /          
                 / \  \   | |__| |  /  /\  \   | |_| |  |  |/  /          
                |  |  |   |  __  | /  /__\  \  |    /   |      \           
                |  |  |   | |  | | |   __   |  |    \   |  |\   \          
                \     /   | |  | | |  |  |  |  | |\  \  |  | \   \       
                 \___/    |_|  |_| |__|  |__|  |_| \__\ |__|  \__/        
                                                                              
                      - O R C A' S   B I G   F R I E N D -                    
                                      &                                       
                       - I N T E G R A L  F E E D E R -                       
                                                                              
 v1 FN, 2020, v2 2021, v3 2022-2024                                           
------------------------------------------------------------------------------


----------------------
SHARK INTEGRAL PACKAGE
----------------------

Number of atoms                             ...     24
Number of basis functions                   ...    270
Number of shells                            ...    134
Maximum angular momentum                    ...      2
Integral batch strategy                     ... SHARK/LIBINT Hybrid
RI-J (if used) integral strategy            ... SPLIT-RIJ (Revised 2003 algorithm where possible)
Printlevel                                  ...      1
Contraction scheme used                     ... SEGMENTED contraction
Prescreening option                         ... SCHWARTZ
   Thresh                                   ... 1.000e-10
   Tcut                                     ... 1.000e-11
   Tpresel                                  ... 1.000e-11 
Coulomb Range Separation                    ... NOT USED
Exchange Range Separation                   ... NOT USED
Multipole approximations                    ... NOT USED
Finite Nucleus Model                        ... NOT USED
CABS basis                                  ... NOT available
Auxiliary Coulomb fitting basis             ... AVAILABLE
   # of basis functions in Aux-J            ...    644
   # of shells in Aux-J                     ...    220
   Maximum angular momentum in Aux-J        ...      4
Auxiliary J/K fitting basis                 ... NOT available
Auxiliary Correlation fitting basis         ... NOT available
Auxiliary 'external' fitting basis          ... NOT available

Checking pre-screening integrals            ... done (  0.0 sec) Dimension = 134
Check shell pair data                       ... done (  0.0 sec)
Shell pair information
Shell pair cut-off parameter TPreSel        ...   1.0e-11
Total number of shell pairs                 ...      9045
Shell pairs after pre-screening             ...      7939
Total number of primitive shell pairs       ...     32140
Primitive shell pairs kept                  ...     19627
          la=0 lb=0:   2646 shell pairs
          la=1 lb=0:   3019 shell pairs
          la=1 lb=1:    884 shell pairs
          la=2 lb=0:    841 shell pairs
          la=2 lb=1:    477 shell pairs
          la=2 lb=2:     72 shell pairs

Calculating one electron integrals          ... done (  0.0 sec)
Calculating RI/J V-Matrix + Cholesky decomp.... done (  0.1 sec)
Calculating Nuclear repulsion               ... done (  0.0 sec) ENN=    578.764741988159 Eh

Diagonalization of the overlap matrix:
Smallest eigenvalue                        ... 7.849e-05
Time for diagonalization                   ...    0.008 sec
Threshold for overlap eigenvalues          ... 1.000e-07
Number of eigenvalues below threshold      ... 0
Time for construction of square roots      ...    0.018 sec
Total time needed                          ...    0.036 sec

-------------------
DFT GRID GENERATION
-------------------

General Integration Accuracy     IntAcc      ... 4.388
Radial Grid Type                 RadialGrid  ... OptM3 with GC (2021)
Angular Grid (max. ang.)         AngularGrid ... 4 (Lebedev-302)
Angular grid pruning method      GridPruning ... 4 (adaptive)
Weight generation scheme         WeightScheme... mBecke (2022)
Basis function cutoff            BFCut       ... 1.0000e-10
Integration weight cutoff        WCut        ... 1.0000e-14
Partially contracted basis set               ... off
Rotationally invariant grid construction     ... off
Angular grids for H and He will be reduced by one unit
Diffuse basis detected: some atoms will have their outermost
                        angular grid increased by 1.

Total number of grid points                  ...   105050
Total number of batches                      ...     1654
Average number of points per batch           ...       63
Average number of grid points per atom       ...     4377
Initializing property integral containers    ... done (  0.0 sec)

SHARK setup successfully completed in   1.5 seconds

Maximum memory used throughout the entire STARTUP-calculation: 49.0 MB
-------------------------------------------------------------------------------
                                 ORCA GUESS
                   Start orbitals & Density for SCF / CASSCF
-------------------------------------------------------------------------------

------------
SCF SETTINGS
------------
Hamiltonian:
 Density Functional     Method          .... DFT(GTOs)
  Functional kind                       .... Exchange
  Functional name                       .... Re-regularized SCAN exchange by Furness et al
  Functional family                     .... MGGA
  Functional refs                              
    [ 0] J. W. Furness, A. D. Kaplan, J. Ning, J. P. Perdew, and J. Sun.,  J. Phys. Chem. Lett. 11, 8208-8215 (2020), doi: 10.1021/acs.jpclett.0c02405
    [ 1] J. W. Furness, A. D. Kaplan, J. Ning, J. P. Perdew, and J. Sun.,  J. Phys. Chem. Lett. 11, 9248-9248 (2020), doi: 10.1021/acs.jpclett.0c03077
  Functional external parameters        .... 6
    Parameter  0 _c1        =  6.670000e-01 : c1 parameter        
    Parameter  1 _c2        =  8.000000e-01 : c2 parameter        
    Parameter  2 _d         =  1.240000e+00 : d parameter         
    Parameter  3 _k1        =  6.500000e-02 : k1 parameter        
    Parameter  4 _eta       =  1.000000e-03 : eta parameter       
    Parameter  5 _dp2       =  3.610000e-01 : dp2 parameter       
  Functional kind                       .... Correlation
  Functional name                       .... Re-regularized SCAN correlation by Furness et al
  Functional family                     .... MGGA
  Functional refs                              
    [ 0] J. W. Furness, A. D. Kaplan, J. Ning, J. P. Perdew, and J. Sun.,  J. Phys. Chem. Lett. 11, 8208-8215 (2020), doi: 10.1021/acs.jpclett.0c02405
    [ 1] J. W. Furness, A. D. Kaplan, J. Ning, J. P. Perdew, and J. Sun.,  J. Phys. Chem. Lett. 11, 9248-9248 (2020), doi: 10.1021/acs.jpclett.0c03077
  Functional external parameters        .... 1
    Parameter  0 _eta       =  1.000000e-03 : Regularization parameter
 Gradients option       PostSCFGGA      .... off
 RI-approximation to the Coulomb term is turned on
   Number of AuxJ basis functions       .... 644


General Settings:
 Integral files         IntName         .... sp_solv
 Hartree-Fock type      HFTyp           .... RHF
 Total Charge           Charge          ....    0
 Multiplicity           Mult            ....    1
 Number of Electrons    NEL             ....   78
 Basis Dimension        Dim             ....  270
 Nuclear Repulsion      ENuc            ....    578.7647419882 Eh

Convergence Acceleration:
 AO-DIIS                CNVDIIS         .... on
   Start iteration      DIISMaxIt       ....    12
   Startup error        DIISStart       ....  0.200000
   # of expansion vecs  DIISMaxEq       ....     5
   Bias factor          DIISBfac        ....   1.050
   Max. coefficient     DIISMaxC        ....  10.000
 MO-DIIS                CNVKDIIS        .... off
 Trust-Rad. Augm. Hess. CNVTRAH         .... auto
   Auto Start mean grad. ratio tolernc. ....  1.125000
   Auto Start start iteration           ....     1
   Auto Start num. interpolation iter.  ....    10
   Max. Number of Micro iterations      ....    24
   Max. Number of Macro iterations      .... Maxiter - #DIIS iter
   Number of Davidson start vectors     ....     2
   Converg. threshold    (grad. norm)   ....   3.330e-04
   Grad. Scal. Fac. for Micro threshold ....   0.100
   Minimum threshold for Micro iter.    ....   1.000e-02
   NR start threshold (gradient norm)   ....   1.000e-04
   Initial trust radius                 ....   0.400
   Minimum AH scaling param. (alpha)    ....   1.000
   Maximum AH scaling param. (alpha)    .... 1000.000
   Quad. conv. algorithm                .... NR
   White noise on init. David. guess    .... on
   Maximum white noise                  ....   0.010
   Pseudo random numbers                .... off
   Inactive MOs                         .... canonical
   Orbital update algorithm             .... Taylor
   Preconditioner                       .... Diag
   Full preconditioner red. dimension   ....   250
   COSX micro iterations for RIJONX calc.... off
 SOSCF                  CNVSOSCF        .... on
   Start iteration      SOSCFMaxIt      ....   150
   Startup grad/error   SOSCFStart      ....  0.003300
   Hessian update       SOSCFHessUp     .... L-BFGS
 Level Shifting         CNVShift        .... on
   Level shift para.    LevelShift      ....    0.2500
   Turn off err/grad.   ShiftErr        ....    0.0010
 Zerner damping         CNVZerner       .... off
 Static damping         CNVDamp         .... on
   Fraction old density DampFac         ....    0.7000
   Max. Damping (<1)    DampMax         ....    0.9800
   Min. Damping (>=0)   DampMin         ....    0.0000
   Turn off err/grad.   DampErr         ....    0.1000

SCF Procedure:
 Maximum # iterations   MaxIter         ....   125
 SCF integral mode      SCFMode         .... Direct
   Integral package                     .... SHARK and LIBINT hybrid scheme
 Reset frequency        DirectResetFreq ....    20
 Integral Threshold     Thresh          ....  1.000e-10 Eh
 Primitive CutOff       TCut            ....  1.000e-11 Eh

Convergence Tolerance:
 Convergence Check Mode ConvCheckMode   .... Total+1el-Energy
 Convergence forced     ConvForced      .... 0
 Energy Change          TolE            ....  1.000e-06 Eh
 1-El. energy change                    ....  1.000e-03 Eh
 Orbital Gradient       TolG            ....  3.330e-04
 Orbital Rotation angle TolX            ....  3.330e-04
 DIIS Error             TolErr          ....  1.000e-06

---------------------
INITIAL GUESS: MOREAD
---------------------
Guess MOs are being read from file: sp_solv.ges
Input Geometry matches current geometry (good)
Atom 0: N(Shells)= 9 and 6 - projection required
Input basis set needs projection
NBasis(read)= 168
NBasis(calc)= 270
Basis set overlap was calculated
Using GuessMode=FMatrix for the initial guess
C*T matrix was formed
Effective Fockian was calculated
Effective Fockian was diagonalized
Initial density was built
                      ------------------
                      INITIAL GUESS DONE (   0.1 sec)
                      ------------------
             **** ENERGY FILE WAS UPDATED (sp_solv.en.tmp) ****
Finished Guess after   0.3 sec
Maximum memory used throughout the entire GUESS-calculation: 20.9 MB

-------------------------------------------------------------------------------------------
                                      ORCA LEAN-SCF
                              memory conserving SCF solver
-------------------------------------------------------------------------------------------

--------------------
CPCM SOLVATION MODEL
--------------------
CPCM parameters:
  Epsilon                                         ...      78.3550
  Refrac                                          ...       1.3328
  Rsolv                                           ...       1.3000
  Surface type                                    ... GAUSSIAN VDW
  Discretization scheme                           ... Constant charge density
    Threshold for H atoms                         ...       5.0000 (charges/Ang^2)
    Threshold for non-H atoms                     ...       5.0000 (charges/Ang^2)
  Epsilon function type                           ...         CPCM
Solvent:                                          ... WATER
SMD-CDS solvent descriptors:
  Soln                                            ...       1.3328
  Soln25                                          ...       1.3323
  Sola                                            ...       0.0000
  Solb                                            ...       0.0000
  Solg                                            ...       0.0000
  Solc                                            ...       0.0000
  Solh                                            ...       0.0000
Radii:
  Scheme                                          ... Element-dependent radii
  Radius for C  used is    3.4960 Bohr (=   1.8500 Ang.)
  Radius for O  used is    2.8724 Bohr (=   1.5200 Ang.)
  Radius for H  used is    2.2677 Bohr (=   1.2000 Ang.)
Calculating surface                               ...        done! (  0.0s)
Cavity surface points                             ...         1717
Cavity Volume                                     ...    1031.3243
Cavity Surface-area                               ...     637.8730
Calculating surface distance matrix               ...        done! (  0.0s)
Performing Cholesky decomposition & store         ...        done! (  0.1s)
Overall time for CPCM initialization              ...                 0.1s

----------------------------------------D-I-I-S--------------------------------------------
Iteration    Energy (Eh)           Delta-E    RMSDP     MaxDP     DIISErr   Damp  Time(sec)
-------------------------------------------------------------------------------------------
               ***  Starting incremental Fock matrix formation  ***
    1    -463.4149663148049285     0.00e+00  6.56e-03  3.76e-01  6.28e-01  0.700   4.8
    2    -463.4852735071609686    -7.03e-02  4.94e-03  2.64e-01  4.42e-01  0.700   4.1
    3    -463.5349349835067869    -4.97e-02  3.53e-03  1.82e-01  3.11e-01  0.700   4.0
    4    -463.5698046336093512    -3.49e-02  2.50e-03  1.26e-01  2.18e-01  0.700   4.0
                               ***Turning on AO-DIIS***
    5    -463.5942708031669781    -2.45e-02  1.78e-03  8.56e-02  1.52e-01  0.700   4.0
    6    -463.6114185422198943    -1.71e-02  1.25e-03  5.92e-02  1.06e-01  0.700   3.9
    7    -463.6234478364873439    -1.20e-02  8.81e-04  4.12e-02  7.44e-02  0.700   3.8
    8    -463.6318765683482752    -8.43e-03  2.06e-03  9.54e-02  5.22e-02  0.000   3.7
                              *** Initializing SOSCF ***
---------------------------------------S-O-S-C-F--------------------------------------
Iteration    Energy (Eh)           Delta-E    RMSDP     MaxDP     MaxGrad    Time(sec)
--------------------------------------------------------------------------------------
    9    -463.6515744128272445    -1.97e-02  1.08e-05  4.61e-04  1.86e-04     3.9
               *** Restarting incremental Fock matrix formation ***
   10    -463.6515746994560914    -2.87e-07  7.38e-06  2.51e-04  4.97e-05     4.7
                  *** Gradient check signals convergence ***

               *****************************************************
               *                     SUCCESS                       *
               *           SCF CONVERGED AFTER  10 CYCLES          *
               *****************************************************


SMD CDS free energy correction energy :                 4.73544     Kcal/mol
Total Energy after SMD CDS correction =              -463.644028298 Eh
             **** ENERGY FILE WAS UPDATED (sp_solv.en.tmp) ****

----------------
TOTAL SCF ENERGY
----------------

Total Energy       :       -463.64402829798962 Eh          -12616.39542 eV

Components:
Nuclear Repulsion  :        578.76474198815947 Eh           15748.98929 eV
Electronic Energy  :      -1042.40237112836462 Eh          -28365.21058 eV
One Electron Energy:      -1777.64883197516497 Eh          -48372.28392 eV
Two Electron Energy:        735.24646084680035 Eh           20007.07334 eV
CPCM Dielectric    :         -0.01394555925087 Eh              -0.37948 eV
SMD CDS (Gcds)     :          0.00754640146649 Eh               0.20535 eV

Virial components:
Potential Energy   :       -925.36037223967833 Eh          -25180.33587 eV
Kinetic Energy     :        461.71634394168871 Eh           12563.94046 eV
Virial Ratio       :          2.00417504032854

DFT components:
N(Alpha)           :       38.999949394405 electrons
N(Beta)            :       38.999949394405 electrons
N(Total)           :       77.999898788810 electrons
E(X)               :      -63.254274894666 Eh       
E(C)               :       -2.506026123332 Eh       
E(XC)              :      -65.760301017998 Eh       

CPCM Solvation Model Properties:
Surface-charge          :         -0.04997247333939
Corrected charge        :         -0.00000000000000
Outlying charge corr.   :          0.00018204702725 Eh               0.00495 eV
Free-energy (cav+disp)  :          0.00754640146649 Eh               0.20535 eV

---------------
SCF CONVERGENCE
---------------

  Last Energy change         ...    2.8663e-07  Tolerance :   1.0000e-06
  Last MAX-Density change    ...    2.5071e-04  Tolerance :   1.0000e-05
  Last RMS-Density change    ...    7.3792e-06  Tolerance :   1.0000e-06
  Last DIIS Error            ...    1.8635e-04  Tolerance :   1.0000e-06
  Last Orbital Gradient      ...    4.9656e-05  Tolerance :   3.3300e-04
  Last Orbital Rotation      ...    1.1531e-04  Tolerance :   3.3300e-04


----------------
ORBITAL ENERGIES
----------------

  NO   OCC          E(Eh)            E(eV) 
   0   2.0000     -19.001964      -517.0697 
   1   2.0000     -18.943499      -515.4788 
   2   2.0000     -10.158988      -276.4401 
   3   2.0000     -10.075479      -274.1677 
   4   2.0000     -10.041730      -273.2494 
   5   2.0000     -10.025852      -272.8173 
   6   2.0000     -10.022029      -272.7133 
   7   2.0000     -10.015495      -272.5355 
   8   2.0000     -10.013314      -272.4761 
   9   2.0000     -10.012108      -272.4433 
  10   2.0000      -1.078152       -29.3380 
  11   2.0000      -0.987895       -26.8820 
  12   2.0000      -0.801736       -21.8163 
  13   2.0000      -0.730461       -19.8769 
  14   2.0000      -0.704291       -19.1647 
  15   2.0000      -0.683944       -18.6111 
  16   2.0000      -0.588678       -16.0187 
  17   2.0000      -0.570137       -15.5142 
  18   2.0000      -0.537528       -14.6269 
  19   2.0000      -0.516526       -14.0554 
  20   2.0000      -0.463439       -12.6108 
  21   2.0000      -0.453669       -12.3450 
  22   2.0000      -0.449279       -12.2255 
  23   2.0000      -0.433213       -11.7883 
  24   2.0000      -0.406223       -11.0539 
  25   2.0000      -0.405616       -11.0374 
  26   2.0000      -0.391787       -10.6611 
  27   2.0000      -0.363975        -9.9043 
  28   2.0000      -0.343104        -9.3363 
  29   2.0000      -0.341885        -9.3032 
  30   2.0000      -0.340003        -9.2520 
  31   2.0000      -0.335584        -9.1317 
  32   2.0000      -0.316890        -8.6230 
  33   2.0000      -0.306239        -8.3332 
  34   2.0000      -0.293845        -7.9959 
  35   2.0000      -0.280403        -7.6302 
  36   2.0000      -0.263651        -7.1743 
  37   2.0000      -0.262234        -7.1357 
  38   2.0000      -0.240412        -6.5419 
  39   0.0000      -0.022972        -0.6251 
  40   0.0000       0.067013         1.8235 
  41   0.0000       0.092840         2.5263 
  42   0.0000       0.107829         2.9342 
  43   0.0000       0.117883         3.2077 
  44   0.0000       0.126402         3.4396 
  45   0.0000       0.128709         3.5023 
  46   0.0000       0.133220         3.6251 
  47   0.0000       0.144087         3.9208 
  48   0.0000       0.160088         4.3562 
  49   0.0000       0.164571         4.4782 
*Only the first 10 virtual orbitals were printed.

                    ********************************
                    * MULLIKEN POPULATION ANALYSIS *
                    ********************************

-----------------------
MULLIKEN ATOMIC CHARGES
-----------------------
   0 C :   -0.335919
   1 O :   -0.197610
   2 C :    0.280345
   3 O :   -0.487831
   4 C :    0.081909
   5 C :   -0.388848
   6 C :   -0.307023
   7 C :   -0.335301
   8 C :   -0.287962
   9 C :   -0.380999
  10 H :    0.177728
  11 H :    0.177383
  12 H :    0.178118
  13 H :    0.183479
  14 H :    0.158812
  15 H :    0.177726
  16 H :    0.174834
  17 H :    0.154636
  18 H :    0.157686
  19 H :    0.156270
  20 H :    0.164854
  21 H :    0.160199
  22 H :    0.160382
  23 H :    0.177131
Sum of atomic charges:    0.0000000

--------------------------------
MULLIKEN REDUCED ORBITAL CHARGES
--------------------------------
  0 C s       :     3.347439  s :     3.347439
      pz      :     1.001436  p :     2.945667
      px      :     0.821588
      py      :     1.122642
      dz2     :     0.007686  d :     0.042812
      dxz     :     0.012271
      dyz     :     0.005839
      dx2y2   :     0.009482
      dxy     :     0.007534

  1 O s       :     3.710200  s :     3.710200
      pz      :     1.644386  p :     4.448602
      px      :     1.113583
      py      :     1.690633
      dz2     :     0.008532  d :     0.038808
      dxz     :     0.013867
      dyz     :     0.006711
      dx2y2   :     0.003161
      dxy     :     0.006537

  2 C s       :     3.222712  s :     3.222712
      pz      :     0.772362  p :     2.373025
      px      :     0.860406
      py      :     0.740258
      dz2     :     0.027716  d :     0.123917
      dxz     :     0.040431
      dyz     :     0.017270
      dx2y2   :     0.016787
      dxy     :     0.021713

  3 O s       :     3.832373  s :     3.832373
      pz      :     1.361150  p :     4.630560
      px      :     1.809553
      py      :     1.459858
      dz2     :     0.008705  d :     0.024898
      dxz     :     0.002928
      dyz     :     0.008041
      dx2y2   :     0.002768
      dxy     :     0.002457

  4 C s       :     2.914839  s :     2.914839
      pz      :     1.065340  p :     2.958753
      px      :     0.954541
      py      :     0.938873
      dz2     :     0.006748  d :     0.044498
      dxz     :     0.012551
      dyz     :     0.005938
      dx2y2   :     0.009335
      dxy     :     0.009927

  5 C s       :     3.287034  s :     3.287034
      pz      :     1.001184  p :     3.065216
      px      :     1.025108
      py      :     1.038923
      dz2     :     0.007812  d :     0.036598
      dxz     :     0.009911
      dyz     :     0.004302
      dx2y2   :     0.004827
      dxy     :     0.009746

  6 C s       :     3.221258  s :     3.221258
      pz      :     0.973441  p :     3.048829
      px      :     1.053267
      py      :     1.022121
      dz2     :     0.007661  d :     0.036937
      dxz     :     0.009717
      dyz     :     0.005119
      dx2y2   :     0.004488
      dxy     :     0.009952

  7 C s       :     3.280904  s :     3.280904
      pz      :     1.126350  p :     3.017260
      px      :     0.971242
      py      :     0.919668
      dz2     :     0.005438  d :     0.037137
      dxz     :     0.010092
      dyz     :     0.004805
      dx2y2   :     0.006895
      dxy     :     0.009907

  8 C s       :     3.198163  s :     3.198163
      pz      :     0.961956  p :     3.052792
      px      :     1.007537
      py      :     1.083299
      dz2     :     0.007205  d :     0.037007
      dxz     :     0.010494
      dyz     :     0.004817
      dx2y2   :     0.005506
      dxy     :     0.008986

  9 C s       :     3.279488  s :     3.279488
      pz      :     0.998013  p :     3.064624
      px      :     1.061960
      py      :     1.004651
      dz2     :     0.007793  d :     0.036887
      dxz     :     0.009660
      dyz     :     0.005252
      dx2y2   :     0.004115
      dxy     :     0.010067

 10 H s       :     0.804430  s :     0.804430
      pz      :     0.010140  p :     0.017842
      px      :     0.002545
      py      :     0.005157

 11 H s       :     0.804754  s :     0.804754
      pz      :     0.003453  p :     0.017863
      px      :     0.003062
      py      :     0.011348

 12 H s       :     0.804018  s :     0.804018
      pz      :     0.005125  p :     0.017864
      px      :     0.007465
      py      :     0.005274

 13 H s       :     0.799020  s :     0.799020
      pz      :     0.009646  p :     0.017501
      px      :     0.004394
      py      :     0.003461

 14 H s       :     0.823314  s :     0.823314
      pz      :     0.003747  p :     0.017874
      px      :     0.005267
      py      :     0.008860

 15 H s       :     0.804524  s :     0.804524
      pz      :     0.007826  p :     0.017750
      px      :     0.006365
      py      :     0.003558

 16 H s       :     0.806896  s :     0.806896
      pz      :     0.007607  p :     0.018270
      px      :     0.006908
      py      :     0.003755

 17 H s       :     0.827473  s :     0.827473
      pz      :     0.003591  p :     0.017891
      px      :     0.006657
      py      :     0.007643

 18 H s       :     0.824406  s :     0.824406
      pz      :     0.008726  p :     0.017908
      px      :     0.005557
      py      :     0.003625

 19 H s       :     0.825962  s :     0.825962
      pz      :     0.007460  p :     0.017768
      px      :     0.006444
      py      :     0.003864

 20 H s       :     0.817226  s :     0.817226
      pz      :     0.007530  p :     0.017920
      px      :     0.006553
      py      :     0.003837

 21 H s       :     0.821921  s :     0.821921
      pz      :     0.003957  p :     0.017880
      px      :     0.005068
      py      :     0.008855

 22 H s       :     0.821777  s :     0.821777
      pz      :     0.003509  p :     0.017842
      px      :     0.006738
      py      :     0.007594

 23 H s       :     0.805061  s :     0.805061
      pz      :     0.007467  p :     0.017808
      px      :     0.006494
      py      :     0.003846


------------------------
MULLIKEN OVERLAP CHARGES
------------------------
B(  0-C ,  1-O ) :   0.3276 B(  0-C ,  2-C ) :  -0.1890 B(  0-C ,  3-O ) :   0.0604 
B(  0-C , 10-H ) :   0.8145 B(  0-C , 11-H ) :   0.8205 B(  0-C , 12-H ) :   0.7922 
B(  1-O ,  2-C ) :   0.4641 B(  1-O ,  3-O ) :  -0.2273 B(  1-O ,  4-C ) :  -0.0506 
B(  1-O , 10-H ) :  -0.0619 B(  1-O , 11-H ) :  -0.0615 B(  1-O , 12-H ) :  -0.0787 
B(  2-C ,  3-O ) :   0.8446 B(  2-C ,  4-C ) :   0.1534 B(  2-C ,  5-C ) :  -0.2142 
B(  2-C ,  9-C ) :  -0.1262 B(  2-C , 13-H ) :  -0.1086 B(  2-C , 16-H ) :   0.0593 
B(  2-C , 20-H ) :   0.0711 B(  3-O ,  4-C ) :  -0.1691 B(  3-O ,  5-C ) :   0.0528 
B(  4-C ,  5-C ) :   0.4353 B(  4-C ,  6-C ) :  -0.2474 B(  4-C ,  7-C ) :   0.1427 
B(  4-C ,  8-C ) :  -0.2170 B(  4-C ,  9-C ) :   0.4086 B(  4-C , 13-H ) :   0.7744 
B(  4-C , 14-H ) :  -0.0536 B(  4-C , 15-H ) :  -0.1470 B(  4-C , 20-H ) :  -0.0530 
B(  4-C , 23-H ) :  -0.1408 B(  5-C ,  6-C ) :   0.2390 B(  5-C ,  7-C ) :  -0.2834 
B(  5-C ,  8-C ) :   0.1698 B(  5-C ,  9-C ) :  -0.2520 B(  5-C , 14-H ) :   0.7306 
B(  5-C , 15-H ) :   0.8624 B(  5-C , 16-H ) :  -0.1178 B(  6-C ,  7-C ) :   0.3147 
B(  6-C ,  8-C ) :  -0.3543 B(  6-C ,  9-C ) :   0.1894 B(  6-C , 15-H ) :  -0.0661 
B(  6-C , 16-H ) :   0.8950 B(  6-C , 17-H ) :   0.7007 B(  6-C , 19-H ) :  -0.1121 
B(  7-C ,  8-C ) :   0.3087 B(  7-C ,  9-C ) :  -0.3275 B(  7-C , 16-H ) :  -0.0658 
B(  7-C , 18-H ) :   0.7134 B(  7-C , 19-H ) :   0.9132 B(  7-C , 20-H ) :  -0.0729 
B(  8-C ,  9-C ) :   0.3042 B(  8-C , 19-H ) :  -0.1207 B(  8-C , 20-H ) :   0.8664 
B(  8-C , 21-H ) :   0.7072 B(  8-C , 23-H ) :  -0.0747 B(  9-C , 20-H ) :  -0.1051 
B(  9-C , 22-H ) :   0.6939 B(  9-C , 23-H ) :   0.8504 B( 10-H , 11-H ) :  -0.0595 



                     *******************************
                     * LOEWDIN POPULATION ANALYSIS *
                     *******************************

----------------------
LOEWDIN ATOMIC CHARGES
----------------------
   0 C :   -0.044041
   1 O :   -0.611720
   2 C :    0.369733
   3 O :   -0.487513
   4 C :   -0.153234
   5 C :   -0.275728
   6 C :   -0.303092
   7 C :   -0.303164
   8 C :   -0.299521
   9 C :   -0.266579
  10 H :    0.181548
  11 H :    0.181941
  12 H :    0.187796
  13 H :    0.192298
  14 H :    0.167008
  15 H :    0.167154
  16 H :    0.169230
  17 H :    0.155923
  18 H :    0.156806
  19 H :    0.156952
  20 H :    0.164088
  21 H :    0.158566
  22 H :    0.167409
  23 H :    0.168139

-------------------------------
LOEWDIN REDUCED ORBITAL CHARGES
-------------------------------
  0 C s       :     2.908629  s :     2.908629
      pz      :     1.024170  p :     3.032695
      px      :     0.892901
      py      :     1.115625
      dz2     :     0.018914  d :     0.102718
      dxz     :     0.029851
      dyz     :     0.014090
      dx2y2   :     0.022476
      dxy     :     0.017387

  1 O s       :     3.469104  s :     3.469104
      pz      :     1.651650  p :     4.664977
      px      :     1.334041
      py      :     1.679287
      dz2     :     0.087041  d :     0.477640
      dxz     :     0.124617
      dyz     :     0.048153
      dx2y2   :     0.113424
      dxy     :     0.104404

  2 C s       :     2.737924  s :     2.737924
      pz      :     0.944682  p :     2.623022
      px      :     0.913573
      py      :     0.764767
      dz2     :     0.058072  d :     0.269320
      dxz     :     0.088434
      dyz     :     0.041411
      dx2y2   :     0.034527
      dxy     :     0.046877

  3 O s       :     3.541691  s :     3.541691
      pz      :     1.494390  p :     4.716691
      px      :     1.742056
      py      :     1.480245
      dz2     :     0.063773  d :     0.229131
      dxz     :     0.055182
      dyz     :     0.057441
      dx2y2   :     0.023050
      dxy     :     0.029686

  4 C s       :     2.885228  s :     2.885228
      pz      :     1.070337  p :     3.178413
      px      :     1.032441
      py      :     1.075635
      dz2     :     0.015470  d :     0.089593
      dxz     :     0.025245
      dyz     :     0.010586
      dx2y2   :     0.016734
      dxy     :     0.021559

  5 C s       :     2.923381  s :     2.923381
      pz      :     1.099534  p :     3.273035
      px      :     1.084151
      py      :     1.089351
      dz2     :     0.016756  d :     0.079311
      dxz     :     0.022260
      dyz     :     0.008096
      dx2y2   :     0.009874
      dxy     :     0.022325

  6 C s       :     2.927955  s :     2.927955
      pz      :     1.096291  p :     3.295053
      px      :     1.107303
      py      :     1.091459
      dz2     :     0.016730  d :     0.080084
      dxz     :     0.022193
      dyz     :     0.009897
      dx2y2   :     0.008730
      dxy     :     0.022533

  7 C s       :     2.931070  s :     2.931070
      pz      :     1.137130  p :     3.291486
      px      :     1.088919
      py      :     1.065438
      dz2     :     0.012332  d :     0.080608
      dxz     :     0.023282
      dyz     :     0.009215
      dx2y2   :     0.013634
      dxy     :     0.022145

  8 C s       :     2.928099  s :     2.928099
      pz      :     1.091139  p :     3.291232
      px      :     1.095137
      py      :     1.104957
      dz2     :     0.015848  d :     0.080190
      dxz     :     0.023647
      dyz     :     0.009444
      dx2y2   :     0.010779
      dxy     :     0.020472

  9 C s       :     2.923899  s :     2.923899
      pz      :     1.100335  p :     3.262839
      px      :     1.099585
      py      :     1.062919
      dz2     :     0.016477  d :     0.079841
      dxz     :     0.021794
      dyz     :     0.010443
      dx2y2   :     0.008241
      dxy     :     0.022886

 10 H s       :     0.776786  s :     0.776786
      pz      :     0.023481  p :     0.041665
      px      :     0.006137
      py      :     0.012048

 11 H s       :     0.776342  s :     0.776342
      pz      :     0.007540  p :     0.041716
      px      :     0.006520
      py      :     0.027657

 12 H s       :     0.771278  s :     0.771278
      pz      :     0.012986  p :     0.040925
      px      :     0.015715
      py      :     0.012224

 13 H s       :     0.763271  s :     0.763271
      pz      :     0.024130  p :     0.044430
      px      :     0.011171
      py      :     0.009129

 14 H s       :     0.789258  s :     0.789258
      pz      :     0.008907  p :     0.043734
      px      :     0.012910
      py      :     0.021918

 15 H s       :     0.789087  s :     0.789087
      pz      :     0.019621  p :     0.043760
      px      :     0.015669
      py      :     0.008470

 16 H s       :     0.785092  s :     0.785092
      pz      :     0.019266  p :     0.045678
      px      :     0.017256
      py      :     0.009155

 17 H s       :     0.800304  s :     0.800304
      pz      :     0.008585  p :     0.043773
      px      :     0.016490
      py      :     0.018698

 18 H s       :     0.799556  s :     0.799556
      pz      :     0.021685  p :     0.043638
      px      :     0.013206
      py      :     0.008746

 19 H s       :     0.799529  s :     0.799529
      pz      :     0.018336  p :     0.043519
      px      :     0.015895
      py      :     0.009289

 20 H s       :     0.791582  s :     0.791582
      pz      :     0.018809  p :     0.044330
      px      :     0.016237
      py      :     0.009285

 21 H s       :     0.797675  s :     0.797675
      pz      :     0.009285  p :     0.043759
      px      :     0.012456
      py      :     0.022019

 22 H s       :     0.788598  s :     0.788598
      pz      :     0.008501  p :     0.043993
      px      :     0.016724
      py      :     0.018768

 23 H s       :     0.787875  s :     0.787875
      pz      :     0.018768  p :     0.043986
      px      :     0.016106
      py      :     0.009111


---------------------------------
LOEWDIN BOND ORDERS (THRESH 0.050000)
---------------------------------
B(  0-C ,  1-O ) :   1.3563 B(  0-C ,  2-C ) :   0.0905 B(  0-C ,  3-O ) :   0.0715 
B(  0-C , 10-H ) :   0.8553 B(  0-C , 11-H ) :   0.8543 B(  0-C , 12-H ) :   0.8597 
B(  1-O ,  2-C ) :   1.4562 B(  1-O ,  3-O ) :   0.4598 B(  1-O ,  4-C ) :   0.1898 
B(  1-O , 10-H ) :   0.0986 B(  1-O , 11-H ) :   0.0988 B(  1-O , 12-H ) :   0.1005 
B(  2-C ,  3-O ) :   2.1294 B(  2-C ,  4-C ) :   0.8855 B(  2-C ,  5-C ) :   0.0663 
B(  2-C ,  9-C ) :   0.0758 B(  3-O ,  4-C ) :   0.1678 B(  4-C ,  5-C ) :   1.0558 
B(  4-C ,  6-C ) :   0.0558 B(  4-C ,  8-C ) :   0.0568 B(  4-C ,  9-C ) :   1.0397 
B(  4-C , 13-H ) :   0.8213 B(  5-C ,  6-C ) :   1.0975 B(  5-C ,  7-C ) :   0.0618 
B(  5-C ,  9-C ) :   0.0583 B(  5-C , 14-H ) :   0.8816 B(  5-C , 15-H ) :   0.8788 
B(  6-C ,  7-C ) :   1.1040 B(  6-C ,  8-C ) :   0.0621 B(  6-C , 16-H ) :   0.8726 
B(  6-C , 17-H ) :   0.8885 B(  7-C ,  8-C ) :   1.1029 B(  7-C ,  9-C ) :   0.0632 
B(  7-C , 18-H ) :   0.8917 B(  7-C , 19-H ) :   0.8880 B(  8-C ,  9-C ) :   1.0995 
B(  8-C , 20-H ) :   0.8775 B(  8-C , 21-H ) :   0.8882 B(  9-C , 22-H ) :   0.8796 
B(  9-C , 23-H ) :   0.8769 

------------------------------------------
LOEWDIN REDUCED ORBITAL POPULATIONS PER MO
-------------------------------------------
THRESHOLD FOR PRINTING IS 0.1%%
                      0         1         2         3         4         5   
                 -19.00196 -18.94350 -10.15899 -10.07548 -10.04173 -10.02585
                   2.00000   2.00000   2.00000   2.00000   2.00000   2.00000
                  --------  --------  --------  --------  --------  --------
 0 C  s               0.0       0.0       0.0      99.4       0.0       0.0
 1 O  s              99.9       0.0       0.0       0.0       0.0       0.0
 1 O  dxz             0.0       0.0       0.1       0.2       0.0       0.0
 1 O  dxy             0.0       0.0       0.1       0.0       0.0       0.0
 2 C  s               0.0       0.0      98.9       0.0       0.0       0.0
 3 O  s               0.0      99.9       0.0       0.0       0.0       0.0
 3 O  pz              0.0       0.0       0.2       0.0       0.0       0.0
 3 O  dz2             0.0       0.0       0.1       0.0       0.0       0.0
 3 O  dyz             0.0       0.0       0.2       0.0       0.0       0.0
 4 C  s               0.0       0.0       0.0       0.0      99.6       0.0
 9 C  s               0.0       0.0       0.0       0.0       0.0      99.7

                      6         7         8         9        10        11   
                 -10.02203 -10.01549 -10.01331 -10.01211  -1.07815  -0.98790
                   2.00000   2.00000   2.00000   2.00000   2.00000   2.00000
                  --------  --------  --------  --------  --------  --------
 0 C  s               0.0       0.0       0.0       0.0       4.2       2.1
 0 C  pz              0.0       0.0       0.0       0.0       1.0       0.9
 0 C  px              0.0       0.0       0.0       0.0       4.2       1.2
 0 C  dxz             0.0       0.0       0.0       0.0       0.3       0.2
 0 C  dx2y2           0.0       0.0       0.0       0.0       0.2       0.1
 1 O  s               0.0       0.0       0.0       0.0      38.6      20.1
 1 O  pz              0.0       0.0       0.0       0.0       1.6       0.3
 1 O  px              0.0       0.0       0.0       0.0       0.5       0.6
 1 O  py              0.0       0.0       0.0       0.0       0.7       0.1
 1 O  dxz             0.0       0.0       0.0       0.0       0.1       0.8
 1 O  dyz             0.0       0.0       0.0       0.0       0.2       0.3
 1 O  dx2y2           0.0       0.0       0.0       0.0       0.2       0.0
 1 O  dxy             0.0       0.0       0.0       0.0       0.3       0.3
 2 C  s               0.0       0.0       0.0       0.0      16.9       2.9
 2 C  pz              0.0       0.0       0.0       0.0       0.6      13.5
 2 C  px              0.0       0.0       0.0       0.0       4.4       3.9
 2 C  py              0.0       0.0       0.0       0.0       0.0       6.2
 2 C  dz2             0.0       0.0       0.0       0.0       0.0       1.0
 2 C  dxz             0.0       0.0       0.0       0.0       0.2       0.1
 2 C  dyz             0.0       0.0       0.0       0.0       0.5       0.5
 2 C  dx2y2           0.0       0.0       0.0       0.0       0.1       0.3
 2 C  dxy             0.0       0.0       0.0       0.0       0.3       0.1
 3 O  s               0.0       0.0       0.0       0.0      15.3      39.7
 3 O  pz              0.0       0.0       0.0       0.0       2.5       2.4
 3 O  py              0.0       0.0       0.0       0.0       0.9       0.7
 3 O  dz2             0.0       0.0       0.0       0.0       0.3       0.1
 3 O  dxz             0.0       0.0       0.0       0.0       0.3       0.2
 3 O  dyz             0.0       0.0       0.0       0.0       0.8       0.1
 3 O  dxy             0.0       0.0       0.0       0.0       0.1       0.1
 4 C  s               0.0       0.0       0.0       0.0       1.0       0.1
 4 C  pz              0.0       0.0       0.0       0.0       0.6       0.3
 4 C  px              0.0       0.0       0.0       0.0       1.4       0.0
 4 C  py              0.1       0.0       0.0       0.0       0.0       0.1
 5 C  s              99.7       0.0       0.0       0.0       0.1       0.0
 5 C  px              0.0       0.0       0.0       0.0       0.1       0.1
 6 C  s               0.0       0.0       0.3      99.4       0.0       0.0
 7 C  s               0.0       0.1      99.3       0.3       0.0       0.0
 8 C  s               0.0      99.6       0.1       0.0       0.0       0.0
 9 C  px              0.0       0.0       0.0       0.0       0.1       0.0
 9 C  py              0.0       0.0       0.0       0.0       0.1       0.0
10 H  s               0.0       0.0       0.0       0.0       0.3       0.1
11 H  s               0.0       0.0       0.0       0.0       0.3       0.1
12 H  s               0.0       0.0       0.0       0.0       0.2       0.2

                     12        13        14        15        16        17   
                  -0.80174  -0.73046  -0.70429  -0.68394  -0.58868  -0.57014
                   2.00000   2.00000   2.00000   2.00000   2.00000   2.00000
                  --------  --------  --------  --------  --------  --------
 0 C  s               0.4       7.3       0.0      19.9       6.0       0.0
 0 C  pz              0.0       0.2       0.0       0.0       0.9       0.0
 0 C  px              0.0       0.1       0.0       0.3       2.1       0.0
 0 C  dxz             0.0       0.0       0.0       0.0       0.1       0.0
 1 O  s               0.1       0.1       0.0       0.7       2.2       0.0
 1 O  pz              0.1       0.7       0.0       0.8       0.1       0.0
 1 O  px              1.0      10.6       0.0      16.7       0.1       0.0
 1 O  py              0.0       0.2       0.0       0.4       0.1       0.1
 1 O  dz2             0.1       0.2       0.0       0.0       0.3       0.0
 1 O  dxz             0.0       0.3       0.0       1.5       0.6       0.0
 1 O  dx2y2           0.1       0.0       0.0       0.6       1.3       0.0
 1 O  dxy             0.0       0.1       0.0       0.1       0.1       0.0
 2 C  s               1.1       3.8       0.0       1.4       2.7       0.0
 2 C  pz              2.5       4.7       0.1       0.7       2.3       0.1
 2 C  px              3.1       1.3       0.0       2.5       4.1       0.0
 2 C  py              0.4       0.9       0.3       0.6       0.0       0.6
 2 C  dxz             0.0       0.0       0.0       0.2       0.2       0.0
 3 O  s               0.9       1.0       0.0       0.2       0.8       0.0
 3 O  pz              0.1       0.5       0.0       0.1       0.9       0.1
 3 O  px              0.1       0.0       0.0       0.0       0.3       0.0
 3 O  py              0.0       0.1       0.0       0.0       0.1       0.0
 3 O  dz2             0.1       0.4       0.0       0.1       0.2       0.0
 3 O  dxz             0.1       0.1       0.0       0.1       0.1       0.0
 3 O  dyz             0.1       0.2       0.0       0.1       0.1       0.0
 4 C  s              15.5       9.6       0.2       4.3       5.1       0.0
 4 C  pz              0.4       0.1       0.4       0.1       0.1       0.4
 4 C  px              1.3       1.6       0.1       2.0       6.2       0.1
 4 C  py              0.0       0.0       7.8       0.1       0.1       9.2
 4 C  dxy             0.0       0.0       0.2       0.0       0.0       0.2
 5 C  s              11.0       0.0      16.1       1.9       5.0       7.0
 5 C  pz              0.8       1.0       0.5       0.5       0.0       3.5
 5 C  px              0.1       2.5       0.3       0.9       1.8       1.7
 5 C  py              1.3       0.7       0.5       0.5       1.3       0.0
 6 C  s               8.2       7.1      11.5       2.1       0.6       9.1
 6 C  pz              0.5       0.3       1.7       0.9       2.4       2.1
 6 C  px              0.2       0.7       0.6       1.0       1.5       1.3
 6 C  py              1.4       1.0       0.4       0.4       1.7       0.6
 7 C  s               7.7      13.6       0.1       7.1       7.8       0.0
 7 C  pz              0.2       0.0       0.3       0.1       0.5       0.4
 7 C  px              1.7       0.5       0.1       0.0       1.2       0.1
 7 C  py              0.0       0.0       6.2       0.1       0.0       8.4
 7 C  dxy             0.0       0.0       0.2       0.0       0.0       0.2
 8 C  s               9.0       5.6      14.0       0.6       0.6       9.1
 8 C  pz              1.4       0.1       0.7       0.6       0.9       3.1
 8 C  px              0.0       1.4       0.4       1.6       2.3       1.0
 8 C  py              0.7       1.1       0.6       0.8       2.3       0.1
 9 C  s              12.1       0.4      12.6       4.0       5.1       7.3
 9 C  pz              0.2       1.4       1.5       0.6       0.1       3.0
 9 C  px              0.0       2.3       0.4       0.3       1.1       1.7
 9 C  py              2.1       0.4       0.5       0.2       1.8       0.5
10 H  s               0.1       1.2       0.0       4.1       2.3       0.0
10 H  pz              0.0       0.1       0.0       0.3       0.1       0.0
11 H  s               0.1       1.2       0.0       4.1       2.4       0.0
11 H  py              0.0       0.1       0.0       0.3       0.2       0.0
12 H  s               0.1       1.5       0.0       5.0       2.3       0.0
12 H  pz              0.0       0.0       0.0       0.1       0.1       0.0
12 H  px              0.0       0.1       0.0       0.2       0.0       0.0
13 H  s               1.9       2.0       0.0       0.6       1.9       0.0
13 H  pz              0.1       0.2       0.0       0.0       0.2       0.0
14 H  s               1.2       0.0       3.0       0.4       1.5       3.2
14 H  py              0.1       0.0       0.2       0.0       0.1       0.2
15 H  s               1.2       0.0       2.7       0.4       2.0       2.6
15 H  pz              0.1       0.0       0.2       0.0       0.1       0.1
15 H  px              0.0       0.0       0.1       0.0       0.0       0.1
16 H  s               0.9       1.0       1.9       0.4       0.1       3.1
16 H  pz              0.0       0.1       0.1       0.0       0.0       0.1
16 H  px              0.0       0.0       0.1       0.0       0.0       0.1
17 H  s               0.9       1.1       2.1       0.4       0.3       3.9
17 H  px              0.0       0.0       0.1       0.0       0.0       0.1
17 H  py              0.0       0.1       0.1       0.0       0.0       0.2
18 H  s               0.8       2.1       0.0       1.5       3.1       0.0
18 H  pz              0.0       0.1       0.0       0.1       0.2       0.0
19 H  s               0.8       2.0       0.0       1.2       2.1       0.0
19 H  pz              0.0       0.1       0.0       0.1       0.1       0.0
20 H  s               1.0       0.8       2.3       0.1       0.1       3.1
20 H  pz              0.1       0.0       0.1       0.0       0.0       0.1
20 H  px              0.0       0.0       0.1       0.0       0.0       0.1
21 H  s               1.0       0.9       2.6       0.1       0.2       3.9
21 H  py              0.1       0.1       0.2       0.0       0.0       0.2
22 H  s               1.3       0.1       2.4       0.7       1.6       3.5
22 H  px              0.0       0.0       0.1       0.0       0.1       0.1
22 H  py              0.1       0.0       0.1       0.0       0.0       0.2
23 H  s               1.3       0.0       2.1       0.8       2.0       2.7
23 H  pz              0.1       0.0       0.1       0.0       0.1       0.1
23 H  px              0.1       0.0       0.1       0.0       0.1       0.1

                     18        19        20        21        22        23   
                  -0.53753  -0.51653  -0.46344  -0.45367  -0.44928  -0.43321
                   2.00000   2.00000   2.00000   2.00000   2.00000   2.00000
                  --------  --------  --------  --------  --------  --------
 0 C  s               3.0       1.5       0.3       0.0       0.2       0.4
 0 C  pz              3.6       8.4       0.1       6.6       0.2       0.4
 0 C  px              2.5       1.1       2.7       0.6       2.0       8.0
 0 C  py              0.3       1.7       1.4       6.3       7.8       0.0
 0 C  dxz             0.2       0.2       0.0       0.0       0.0       0.1
 1 O  s               2.2       3.1       0.1       0.0       0.4       0.8
 1 O  pz              0.9       5.1       7.2       4.5       2.2      10.5
 1 O  px              5.9      12.1       1.7       3.9       0.4       3.3
 1 O  py              0.9       4.7       1.2      13.3      11.4       0.1
 1 O  dz2             0.0       0.2       0.0       0.8       0.1       0.3
 1 O  dxz             0.1       0.1       0.7       0.0       0.0       0.0
 1 O  dyz             0.0       0.1       0.0       0.2       0.3       0.0
 1 O  dx2y2           0.3       0.0       0.0       0.0       0.5       0.1
 1 O  dxy             0.0       0.1       0.1       0.1       0.1       0.0
 2 C  s               2.7       0.6       1.9       1.0       0.5       0.0
 2 C  pz              0.7       0.1       4.4       2.5       0.0       2.4
 2 C  px              0.0       9.4       1.9       0.3       3.5       0.1
 2 C  py              0.4       0.2       0.8      12.2       1.8       0.3
 2 C  dxz             0.0       0.0       0.0       0.0       0.0       0.2
 3 O  s               2.1       0.6       9.3       2.6       0.0       2.2
 3 O  pz              1.5       0.4      15.4      16.1       0.0       4.2
 3 O  px              0.0       5.3       0.5       0.1       2.8       1.1
 3 O  py              0.7       0.5      11.1       1.2       0.6       3.0
 3 O  dz2             0.0       0.0       0.1       0.8       0.0       0.1
 3 O  dxz             0.0       0.5       0.1       0.0       0.3       0.1
 3 O  dyz             0.1       0.0       0.4       0.1       0.0       0.0
 3 O  dx2y2           0.0       0.0       0.1       0.1       0.3       0.0
 3 O  dxy             0.0       0.2       0.0       0.0       0.0       0.1
 4 C  s               1.2       1.1       0.4       0.3       1.6       1.1
 4 C  pz              3.6       1.2      10.4       0.3       1.0       6.0
 4 C  px              2.5       1.1       2.1       0.8       4.7       0.3
 4 C  py              0.2       0.1       0.1       1.8       0.0       0.1
 4 C  dxz             0.0       0.0       0.0       0.0       0.1       0.0
 5 C  s               0.1       1.7       0.1       0.0       1.0       0.1
 5 C  pz              2.7       2.7       0.8       0.3       1.3       1.9
 5 C  px              0.2       1.0       0.2       0.6       0.3       1.5
 5 C  py              2.4       0.1       0.6       1.0       8.3       0.9
 6 C  s               3.6       1.0       0.4       0.0       0.3       0.3
 6 C  pz              0.1       2.2       0.9       0.0       1.9       2.4
 6 C  px              1.4       1.0       0.1       0.0       1.2       1.1
 6 C  py              3.2       0.3       2.2       0.5       1.6       4.3
 7 C  s               6.1       1.1       0.1       0.0       0.6       0.1
 7 C  pz              0.2       0.9       1.2       0.2       0.0       7.8
 7 C  px              3.7       1.8       0.1       0.9       7.0       1.5
 7 C  py              0.1       0.2       0.0       0.0       0.2       0.4
 8 C  s               3.7       0.8       0.5       0.0       0.1       0.2
 8 C  pz              1.2       1.8       1.4       1.4       0.0       6.0
 8 C  px              2.6       1.0       0.3       0.6       0.5       0.0
 8 C  py              1.3       0.1       1.5       1.5       3.3       2.0
 9 C  s               0.2       1.1       0.0       0.6       0.3       0.1
 9 C  pz              5.3       1.5       0.7       0.1       0.2       0.7
 9 C  px              0.1       0.7       0.0       1.4       0.8       2.7
 9 C  py              0.4       0.8       1.4       3.0       7.5       1.6
10 H  s               2.4       2.7       0.0       4.2       0.4       0.0
10 H  pz              0.1       0.1       0.0       0.1       0.0       0.0
11 H  s               2.3       2.9       1.3       1.4       1.4       0.5
11 H  py              0.1       0.2       0.0       0.0       0.0       0.0
12 H  s               0.9       0.0       0.4       0.1       2.7       3.0
13 H  s               1.1       0.1       5.6       0.3       0.6       3.8
13 H  pz              0.0       0.0       0.2       0.0       0.0       0.1
14 H  s               0.0       0.6       0.1       0.3       3.6       0.7
15 H  s               0.5       2.4       0.0       0.4       1.0       0.0
16 H  s               2.4       2.1       0.9       0.0       0.8       0.6
16 H  pz              0.1       0.1       0.0       0.0       0.0       0.0
17 H  s               1.6       0.2       1.0       0.1       0.4       2.0
18 H  s               2.7       0.3       0.1       0.0       1.2       2.9
18 H  pz              0.2       0.0       0.0       0.0       0.1       0.1
19 H  s               4.0       1.7       0.2       0.4       2.2       0.5
19 H  pz              0.2       0.1       0.0       0.0       0.1       0.0
20 H  s               2.9       1.6       0.3       1.1       0.3       1.0
20 H  pz              0.1       0.0       0.0       0.0       0.0       0.0
21 H  s               1.6       0.2       1.5       0.2       0.6       1.6
22 H  s               0.0       0.4       0.2       0.4       3.5       1.0
23 H  s               0.8       1.8       0.2       1.3       0.1       0.0

                     24        25        26        27        28        29   
                  -0.40622  -0.40562  -0.39179  -0.36398  -0.34310  -0.34189
                   2.00000   2.00000   2.00000   2.00000   2.00000   2.00000
                  --------  --------  --------  --------  --------  --------
 0 C  s               0.0       0.0       0.1       0.0       0.0       0.0
 0 C  pz              1.3       3.0       2.5       3.6       0.8       1.3
 0 C  px              1.1       0.7      10.7       1.2       0.0       0.9
 0 C  py              1.2       8.0       4.6      10.0       0.1       1.5
 0 C  dz2             0.0       0.0       0.0       0.1       0.0       0.0
 0 C  dxz             0.0       0.0       0.2       0.0       0.0       0.0
 1 O  s               0.0       0.0       0.2       0.0       0.4       0.1
 1 O  pz              0.8       1.1       3.6       0.0       0.4       0.8
 1 O  px              0.0       0.3       2.4       0.1       0.5       0.3
 1 O  py              0.3       2.7       0.6       0.1       0.0       0.7
 1 O  dz2             0.0       0.2       0.1       0.1       0.0       0.0
 1 O  dxz             0.0       0.1       0.3       0.5       0.0       0.1
 1 O  dyz             0.0       0.2       0.0       0.1       0.0       0.0
 1 O  dx2y2           0.1       0.0       0.0       0.4       0.1       0.0
 1 O  dxy             0.2       0.7       0.3       1.4       0.0       0.2
 2 C  s               0.2       0.0       0.2       0.0       0.1       0.0
 2 C  pz              1.2       0.2       1.9       2.6       0.5       0.1
 2 C  px              0.2       0.0       2.2       0.4       0.5       0.8
 2 C  py              0.3       0.7       0.4       8.2       0.0       0.2
 2 C  dz2             0.1       0.0       0.0       0.1       0.1       0.0
 2 C  dxz             0.0       0.0       0.2       0.0       0.1       0.0
 3 O  s               0.4       0.0       1.1       0.0       0.1       0.1
 3 O  pz              3.1       0.4       6.1       3.4       0.1       0.7
 3 O  px              0.4       0.0       0.1       1.1       2.2       1.2
 3 O  py              2.1       0.8       1.8      13.8       0.6       0.1
 3 O  dz2             0.0       0.0       0.0       0.3       0.0       0.0
 3 O  dyz             0.0       0.0       0.1       0.2       0.0       0.0
 3 O  dxy             0.0       0.3       0.0       0.0       0.0       0.0
 4 C  s               0.5       0.1       0.8       0.1       0.1       0.3
 4 C  pz              5.4       0.9       2.4       0.4       5.0       1.0
 4 C  px              0.1       0.0       1.8       0.4       6.3       2.6
 4 C  py              1.1       2.8       0.1       2.3       3.4       0.4
[...]
21 H  pz              0.0       0.1       0.3       0.6       0.2       0.0
21 H  px              0.1       0.2       1.4       1.2       1.0       0.0
21 H  py              0.0       0.1       5.6       4.5       2.7       0.0
22 H  s               0.6       3.0       0.5       0.3       0.1       0.0
22 H  px              0.4       2.8       0.4       0.7       0.1       0.0
22 H  py              1.1       4.3       1.0       0.1       0.1       0.0
23 H  s               0.6       4.5       0.0       0.1       0.0       0.0
23 H  pz              0.9       6.1       0.0       0.1       0.0       0.0
23 H  px              0.4       3.2       0.0       0.2       0.1       0.0
23 H  py              0.2       1.9       0.0       0.0       0.0       0.0

                    258       259       260       261       262       263   
                   4.30487   4.44007  21.95234  22.01134  22.06480  22.14796
                   0.00000   0.00000   0.00000   0.00000   0.00000   0.00000
                  --------  --------  --------  --------  --------  --------
 0 C  s               0.6       0.2       5.3      92.8       0.5       0.2
 0 C  pz              0.5       0.1       0.0       0.0       0.0       0.0
 0 C  px              1.4       0.4       0.0       0.0       0.0       0.0
 0 C  dxz             1.7       0.6       0.0       0.0       0.0       0.0
 0 C  dx2y2           0.8       0.1       0.0       0.0       0.0       0.0
 1 O  s               6.8       0.7       0.0       0.1       0.0       0.0
 1 O  pz              0.1       0.2       0.0       0.0       0.0       0.0
 1 O  px             27.7       0.9       0.0       0.1       0.0       0.0
 1 O  py              2.3       0.0       0.0       0.0       0.0       0.0
 1 O  dz2             2.3       0.0       0.0       0.0       0.0       0.0
 1 O  dxz            14.0       1.6       0.0       0.0       0.0       0.0
 1 O  dyz             1.1       0.0       0.0       0.0       0.0       0.0
 1 O  dx2y2           2.1       0.7       0.0       0.0       0.0       0.0
 1 O  dxy             9.3       0.1       0.0       0.0       0.0       0.0
 2 C  s               2.9       4.8       6.2       0.1       1.4       0.8
 2 C  pz              0.5       6.1       0.0       0.0       0.0       0.0
 2 C  px              5.9       0.2       0.0       0.0       0.0       0.0
 2 C  py              0.9       2.0       0.0       0.0       0.0       0.0
 2 C  dz2             1.0       2.9       0.0       0.0       0.0       0.0
 2 C  dxz             5.0       0.0       0.0       0.0       0.0       0.0
 2 C  dyz             0.5       3.3       0.0       0.0       0.0       0.0
 2 C  dx2y2           1.4       0.4       0.0       0.0       0.0       0.0
 2 C  dxy             4.3       0.0       0.0       0.0       0.0       0.0
 3 O  s               1.1      19.6       0.0       0.0       0.0       0.0
 3 O  pz              0.6      16.5       0.0       0.0       0.0       0.0
 3 O  px              0.3       0.0       0.0       0.0       0.0       0.0
 3 O  py              0.2       4.8       0.0       0.0       0.0       0.0
 3 O  dz2             0.2      13.8       0.0       0.0       0.0       0.0
 3 O  dxz             1.3       0.1       0.0       0.0       0.0       0.0
 3 O  dyz             0.4      17.0       0.0       0.0       0.0       0.0
 3 O  dx2y2           0.3       1.5       0.0       0.0       0.0       0.0
 4 C  s               0.0       0.1       6.8       0.1       0.7       0.1
 4 C  pz              0.3       0.0       0.0       0.0       0.0       0.0
 4 C  dxz             0.4       0.0       0.0       0.0       0.0       0.0
 4 C  dxy             0.1       0.0       0.0       0.0       0.0       0.0
 5 C  s               0.0       0.1      19.7       1.3       3.5      31.0
 6 C  s               0.0       0.0       1.5       1.1      30.6      21.4
 7 C  s               0.0       0.0      36.2       1.5      34.4       0.2
 8 C  s               0.0       0.0       3.0       0.3      24.1      23.1
 9 C  s               0.0       0.1      21.1       2.5       4.2      22.7
12 H  pz              0.1       0.1       0.0       0.0       0.0       0.0
13 H  s               0.1       0.0       0.0       0.0       0.0       0.0
13 H  px              0.1       0.0       0.0       0.0       0.0       0.0

                    264       265       266       267       268       269   
                  22.21004  22.24029  22.34319  22.38278  43.75341  43.76226
                   0.00000   0.00000   0.00000   0.00000   0.00000   0.00000
                  --------  --------  --------  --------  --------  --------
 0 C  s               0.0       0.1       0.6       0.1       0.0       0.0
 1 O  s               0.0       0.0       0.0       0.2      55.4      44.5
 2 C  s               1.7       2.5       0.6      85.7       0.0       0.0
 3 O  s               0.0       0.0       0.0       0.2      44.4      55.4
 3 O  pz              0.0       0.0       0.0       0.1       0.0       0.0
 4 C  s               0.3      14.6      74.0       3.1       0.0       0.0
 5 C  s              22.5      11.1      10.1       0.4       0.0       0.0
 6 C  s              29.6      13.1       2.3       0.1       0.0       0.0
 7 C  s               0.3      27.0       0.0       0.0       0.0       0.0
 8 C  s              24.7      19.9       4.0       0.5       0.0       0.0
 9 C  s              20.6      11.4       7.9       9.2       0.0       0.0



                      *****************************
                      * MAYER POPULATION ANALYSIS *
                      *****************************

  NA   - Mulliken gross atomic population
  ZA   - Total nuclear charge
  QA   - Mulliken gross atomic charge
  VA   - Mayer's total valence
  BVA  - Mayer's bonded valence
  FA   - Mayer's free valence

  ATOM       NA         ZA         QA         VA         BVA        FA
  0 C      6.3359     6.0000    -0.3359     3.7586     3.7586     0.0000
  1 O      8.1976     8.0000    -0.1976     1.9851     1.9851     0.0000
  2 C      5.7197     6.0000     0.2803     3.8639     3.8639     0.0000
  3 O      8.4878     8.0000    -0.4878     1.8791     1.8791     0.0000
  4 C      5.9181     6.0000     0.0819     3.4632     3.4632     0.0000
  5 C      6.3888     6.0000    -0.3888     3.6838     3.6838     0.0000
  6 C      6.3070     6.0000    -0.3070     3.6391     3.6391     0.0000
  7 C      6.3353     6.0000    -0.3353     3.6657     3.6657     0.0000
  8 C      6.2880     6.0000    -0.2880     3.6462     3.6462     0.0000
  9 C      6.3810     6.0000    -0.3810     3.7017     3.7017     0.0000
 10 H      0.8223     1.0000     0.1777     0.9494     0.9494     0.0000
 11 H      0.8226     1.0000     0.1774     0.9496     0.9496    -0.0000
 12 H      0.8219     1.0000     0.1781     0.9502     0.9502     0.0000
 13 H      0.8165     1.0000     0.1835     0.9483     0.9483     0.0000
 14 H      0.8412     1.0000     0.1588     0.9600     0.9600    -0.0000
 15 H      0.8223     1.0000     0.1777     0.9559     0.9559     0.0000
 16 H      0.8252     1.0000     0.1748     0.9595     0.9595     0.0000
 17 H      0.8454     1.0000     0.1546     0.9569     0.9569     0.0000
 18 H      0.8423     1.0000     0.1577     0.9545     0.9545     0.0000
 19 H      0.8437     1.0000     0.1563     0.9622     0.9622     0.0000
 20 H      0.8351     1.0000     0.1649     0.9608     0.9608     0.0000
 21 H      0.8398     1.0000     0.1602     0.9553     0.9553     0.0000
 22 H      0.8396     1.0000     0.1604     0.9590     0.9590    -0.0000
 23 H      0.8229     1.0000     0.1771     0.9559     0.9559    -0.0000

  Mayer bond orders larger than 0.100000
B(  0-C ,  1-O ) :   0.8313 B(  0-C , 10-H ) :   0.9569 B(  0-C , 11-H ) :   0.9582 
B(  0-C , 12-H ) :   0.9595 B(  1-O ,  2-C ) :   1.0897 B(  2-C ,  3-O ) :   1.7686 
B(  2-C ,  4-C ) :   0.9147 B(  4-C ,  5-C ) :   0.8974 B(  4-C ,  9-C ) :   0.9018 
B(  4-C , 13-H ) :   0.9202 B(  5-C ,  6-C ) :   0.8952 B(  5-C , 14-H ) :   0.9533 
B(  5-C , 15-H ) :   0.9823 B(  6-C ,  7-C ) :   0.9016 B(  6-C , 16-H ) :   0.9908 
B(  6-C , 17-H ) :   0.9380 B(  7-C ,  8-C ) :   0.9021 B(  7-C , 18-H ) :   0.9474 
B(  7-C , 19-H ) :   1.0026 B(  8-C ,  9-C ) :   0.9115 B(  8-C , 20-H ) :   0.9845 
B(  8-C , 21-H ) :   0.9360 B(  9-C , 22-H ) :   0.9369 B(  9-C , 23-H ) :   0.9769 


-------
TIMINGS
-------

Total SCF time: 0 days 0 hours 0 min 41 sec 

Total time                  ....      41.536 sec
Sum of individual times     ....      41.029 sec  ( 98.8%)

SCF preparation             ....       0.357 sec  (  0.9%)
Fock matrix formation       ....      39.620 sec  ( 95.4%)
  Startup                   ....       0.061 sec  (  0.2% of F)
  Split-RI-J                ....       6.815 sec  ( 17.2% of F)
  XC integration            ....      24.500 sec  ( 61.8% of F)
    XC Preparation          ....       0.000 sec  (  0.0% of XC)
    Basis function eval.    ....       3.894 sec  ( 15.9% of XC)
    Density eval.           ....       8.910 sec  ( 36.4% of XC)
    XC-Functional eval.     ....       2.297 sec  (  9.4% of XC)
    XC-Potential eval.      ....       8.484 sec  ( 34.6% of XC)
  CPCM terms                ....       7.703 sec  ( 19.4% of F)
Diagonalization             ....       0.000 sec  (  0.0%)
Density matrix formation    ....       0.257 sec  (  0.6%)
Total Energy calculation    ....       0.046 sec  (  0.1%)
Population analysis         ....       0.153 sec  (  0.4%)
Orbital Transformation      ....       0.064 sec  (  0.2%)
Orbital Orthonormalization  ....       0.000 sec  (  0.0%)
DIIS solution               ....       0.473 sec  (  1.1%)
  MO trafo                  ....       0.000 sec  (  0.0 % of DIIS)
  Orb grad                  ....       0.000 sec  (  0.0 % of DIIS)
  Energy W gradient         ....       0.000 sec  (  0.0 % of DIIS)
  DIIS error                ....       0.020 sec  (  4.3 % of DIIS)
  DIIS work                 ....       0.399 sec  ( 84.4 % of DIIS)
  Form Q                    ....       0.000 sec  (  0.0 % of DIIS)
  Form QpQm                 ....       0.000 sec  (  0.0 % of DIIS)
  Exp/Cayley                ....       0.000 sec  (  0.0 % of DIIS)
  Orb update                ....       0.000 sec  (  0.0 % of DIIS)
  Wake-sleep                ....       0.021 sec  (  4.5 % of DIIS)
SOSCF solution              ....       0.058 sec  (  0.1%)
  MO trafo                  ....       0.043 sec  ( 75.2 % of SOSCF)
  Orb grad                  ....       0.001 sec  (  0.9 % of SOSCF)
  Rot update                ....       0.000 sec  (  0.1 % of SOSCF)
  Step                      ....       0.014 sec  ( 23.6 % of SOSCF)
Finished LeanSCF after  41.7 sec

Maximum memory used throughout the entire LEANSCF-calculation: 40.6 MB


-------------------------------------------------------------------------------
                          DFT DISPERSION CORRECTION                            
                                                                               
                                DFTD4 V3.4.0                                   
-------------------------------------------------------------------------------
The R2SCAN3C composite method is recognized
Using three-body term ABC
Active option DFTDOPT                   ...         5   

-------------------------   ----------------
Dispersion correction           -0.007846603
-------------------------   ----------------

------------------   -----------------
gCP correction             0.013319763
------------------   -----------------

-------------------------   --------------------
FINAL SINGLE POINT ENERGY      -463.638555137797
-------------------------   --------------------


------------------------------------------------------------------------------
                              ORCA PROPERTY CALCULATIONS
------------------------------------------------------------------------------

GBWName                                 ... sp_solv.gbw
Number of atoms                         ...     24
Number of basis functions               ...    270
Max core memory                         ...   1024 MB

Electric properties:
Dipole moment                           ... YES
Quadrupole moment                       ...  NO
Static polarizability (Dipole/Dipole)   ...  NO
Static polarizability (Dipole/Quad.)    ...  NO
Static polarizability (Quad./Quad.)     ...  NO
Static polarizability (Velocity)        ...  NO

Atomic electric properties:
Dipole moment                           ...  NO
Quadrupole moment                       ...  NO
Static polarizability                   ...  NO

Choice of electric origin               ... Center of mass
Position of electric origin             ...     0.000025     0.000004    -0.000003

General magnetic properties:
Magnetizability                         ...  NO

EPR properties:
g-Tensor (aka g-matrix)                 ...  NO
Zero-Field splitting spin-orbit         ...  NO
Zero-field splitting spin-spin          ...  NO
Hyperfine couplings                     ...  NO (   0 nuclei)
Quadrupole couplings                    ...  NO (   0 nuclei)
Contact density                         ...  NO (   0 nuclei)

NMR properties:
Chemical shifts                         ...  NO (   0 nuclei)
Spin-rotation constants                 ...  NO (   0 nuclei)
Spin-spin couplings                     ...  NO (   0 nuclei,    0 pairs)

Choice of magnetic origin               ... GIAO
Position of magnetic origin             ...     0.000000     0.000000     0.000000

Properties with geometric perturbations:
SCF Hessian                             ...  NO
IR spectrum                             ...  NO
VCD spectrum                            ...  NO
X-ray spectroscopy properties:
SCF XES/XAS/RIXS spectra                ...  NO


-------------
DIPOLE MOMENT
-------------

Method             : SCF
Type of density    : Electron Density
Multiplicity       :   1
Irrep              :   0
Energy             :  -463.6440282979896210 Eh
Relativity type    : 
Basis              : AO
                                X                 Y                 Z
Electronic contribution:     -5.889096967      -0.760793324      -0.492070388
Nuclear contribution   :      5.627276247       1.370134425      -0.305583104
                        -----------------------------------------
Total Dipole Moment    :     -0.261820721       0.609341101      -0.797653492
                        -----------------------------------------
Magnitude (a.u.)       :      1.037351320
Magnitude (Debye)      :      2.636737509



--------------------
Rotational spectrum 
--------------------
 
Rotational constants in cm-1:             0.087933             0.028875             0.027527 
Rotational constants in MHz :          2636.177982           865.647648           825.252159 

Dipole components along the rotational axes: 
x,y,z [a.u.] :     0.302177     0.609143    -0.783410 
x,y,z [Debye]:     0.768073     1.548319    -1.991270 

 

Dipole moment calculation done in   0.0 sec 

Maximum memory used throughout the entire PROP-calculation: 19.0 MB

--------------------------------
SUGGESTED CITATIONS FOR THIS RUN
--------------------------------

Below you find a list of papers that are relevant to this ORCA run
We neither can nor want to force you to cite these papers, but we appreciate if you do
You receive ORCA, which is the product of decades of hard work by many enthusiastic individuals, for free
The only thing we kindly ask in return is that you cite our papers,
We deeply appreciate it, if you show your appreciation for ORCA by not just citing the generic ORCA reference.

Please note that relegating all ORCA citations to the supporting information does *not* help us.
SI sections are not indexed - citations you put there will not count into any citation statistics
But we need these citations in order to attract the funding resources that allow us to do what we are doing

Therefore, if you are a happy ORCA user, please consider citing a few of the papers listed below in the main body of your paper

In addition to the list printed below, the program has created the file sp_solv.bibtex that contains the list in bibtex format
You can import this file easily into all common literature databanks and citation aid programs


List of essential papers. We consider these as the minimum necessary citations

  1. Neese,F.
     Software update: the ORCA program system, version 5.0
     WIRES Comput. Molec. Sci., 2022 12(1)e1606
     doi.org/10.1002/wcms.1606
  2. Grimme,S.; Hansen,A.; Ehlert,S.; Mewes,J.
     r2SCAN-3c: A 'Swiss army knife' composite electronic-structure method
     J. Chem. Phys., 2021 154 064103
     doi.org/10.1063/5.0040021

List of papers to cite with high priority. The work reported in these papers was absolutely
necessary for this run to complete.
Our perspective: the developers of density functionals and basis sets usually get cited in chemistry papers
Good! But without the algorithms to do something with them, the functionals or basis sets would not do anything.
Hence, in our opinion, the algorithm design and method developments papers are equally worthy of getting cited

  1. Neese,F.
     An improvement of the resolution of the identity approximation for the formation of the Coulomb matrix
     J. Comp. Chem., 2003 24(14)1740-1747
     doi.org/10.1002/jcc.10318
  2. Garcia-Rates,M.; Neese,F.
     Effect of the Solute Cavity on the Solvation Energy and its Derivatives within the Framework of the Gaussian Charge Scheme
     J. Comput. Chem., 2020 41 922-939
     doi.org/10.1002/jcc.26139
  3. Neese,F.
     The SHARK Integral Generation and Digestion System
     J. Comp. Chem., 2022  1-16
     doi.org/10.1002/jcc.26942
  4. Lehtola,S.; Steigemann,C.; Oliveira,M.; Marques,M.
     Recent developments in Libxc - A comprehensive library of functionals for density functional theory
     Software X, 2018 7 
     doi.org/10.1016/j.softx.2017.11.002
  5. Caldeweyher,E.; Bannwarth,C.; Grimme,S.
     Extension of the D3 dispersion coefficient model
     J. Chem. Phys., 2017 147 034112-XXXX
     doi.org/10.1063/1.4993215
  6. Caldeweyher,E.; Ehlert,S.; Hansen,A.; Neugebauer,H.; Spicher,S.; Bannwarth,C.; Grimme,S.
     A generally applicable atomic-charge dependent London dispersion correction
     J. Chem. Phys., 2019 150 154122-XXXX
     doi.org/10.1063/1.5090222
  7. Caldeweyher,E.; Mewes,J.; Ehlert,S.; Grimme,S.
     Extension and evaluation of the D4 London-dispersion model for periodic systems
     Phys. Chem. Chem. Phys., 2020 22(16)8499-8512
     doi.org/10.1039/D0CP00502A

List of suggested additional citations. These are papers that are important in the 'surrounding' of 
of this run, or papers that preceded the highly important papers. If you like your results we are grateful for a citation.

  1. Neese,F.
     The ORCA program system
     WIRES Comput. Molec. Sci., 2012 2(1)73-78
     doi.org/10.1002/wcms.81
  2. Neese,F.
     Software update: the ORCA program system, version 4.0
     WIRES Comput. Molec. Sci., 2018 8(1)1-6
     doi.org/10.1002/wcms.1327
  3. Neese,F.; Wennmohs,F.; Becker,U.; Riplinger,C.
     The ORCA quantum chemistry program package
     J. Chem. Phys., 2020 152 Art. No. L224108
     doi.org/10.1063/5.0004608

List of optional additional citations

  1. Neese,F.
     Approximate second-order SCF convergence for spin unrestricted wavefunctions
     Chem. Phys. Lett., 2000 325(1-3)93-98
     doi.org/10.1016/s0009-2614(00)00662-x

Timings for individual modules:

Sum of individual times          ...       43.675 sec (=   0.728 min)
Startup calculation              ...        1.541 sec (=   0.026 min)   3.5 %
SCF iterations                   ...       42.030 sec (=   0.700 min)  96.2 %
Property calculations            ...        0.105 sec (=   0.002 min)   0.2 %
                             ****ORCA TERMINATED NORMALLY****
TOTAL RUN TIME: 0 days 0 hours 0 minutes 44 seconds 359 msec
