24
 energy: -687.117426969685 gnorm: 0.001823271798 xtb: 6.7.1 (edcfbbe)
C           -2.54773584266598       -0.95174177432397        0.35772992758774
C           -1.12944786867473       -0.47948565809917        0.61453573624139
H           -0.97297859576122       -0.43270991944042        1.70496822575688
C           -0.81820087659688        0.89108498730143        0.00347248226532
H           -1.01210820811891        0.86133629084704       -1.07691138947835
C            0.64429317188735        1.24871929892092        0.23442880814230
H            0.81282037017976        1.35839152386752        1.31855444237514
C            1.53853194774880        0.14146057274615       -0.28991082153191
H            1.42121292584977        0.06398919631747       -1.38352895363609
C            1.12578233542188       -1.19687699292849        0.33055737692565
H            1.27925753538581       -1.17936889631716        1.41997869023989
O           -0.24794118109795       -1.46459006983334        0.03845319908928
O            1.89138736869417       -2.26296783979878       -0.16509808417468
O            2.88707059175534        0.45820484280896        0.05345524219924
O            0.99356124440646        2.46187282952889       -0.43823535864666
O           -1.59842653171059        1.91924630363225        0.62581533569787
O           -2.88502421589037       -0.98798878091478       -1.03411056477835
H           -3.24747301830395       -0.25910428012526        0.83362211065881
H           -2.68043801032530       -1.94113504226827        0.81543274861170
H            1.85225640036375       -2.23656237040748       -1.13445799206834
H            3.45024822631322       -0.22720080861312       -0.33089999184413
H            0.41801417385932        3.15242666213893       -0.08229502964960
H           -2.46734102054851        1.93106664005273        0.20522419425138
H           -2.29332648328278       -1.62354453651508       -1.45808736875219
24
 energy: -687.117442387083 gnorm: 0.000597189695 xtb: 6.7.1 (edcfbbe)
C           -2.54822116269444       -0.95195434604830        0.35788877329676
C           -1.12995389512513       -0.47949956895049        0.61402414011105
H           -0.97345061699303       -0.43363604734270        1.70458565125784
C           -0.81867838390621        0.89156144035787        0.00429141046963
H           -1.01395618277516        0.86335421668278       -1.07597273271990
C            0.64418166990115        1.24838391782110        0.23405692147888
H            0.81331628577860        1.36030624548428        1.31796151969762
C            1.53903390057169        0.14081034617503       -0.28891545087094
H            1.42465538322088        0.06393191142435       -1.38303334521328
C            1.12440551134109       -1.19782411609229        0.32945878231752
H            1.27790657530114       -1.18276628947230        1.41882493935135
O           -0.24914914629091       -1.46353980986431        0.03618106408778
O            1.88874649285833       -2.26474805039732       -0.16780351287356
O            2.88720868162625        0.45767492736659        0.05876220777307
O            0.99388496216366        2.46059351246316       -0.44174920829631
O           -1.59743638441913        1.91954985387827        0.62910282187157
O           -2.88584217803313       -0.98976712479950       -1.03380810315316
H           -3.24845924966352       -0.25934606694082        0.83375526206942
H           -2.67977348646906       -1.94117523464419        0.81669882029741
H            1.85683966934539       -2.23234900827601       -1.13642605572397
H            3.45249085695415       -0.22527344042347       -0.32714620435912
H            0.41770896243021        3.15256429705102       -0.08893725008740
H           -2.46628919723279        1.93454879776370        0.20801242001471
H           -2.29517471350512       -1.62687820288494       -1.45711949751533
24
 energy: -687.117457900313 gnorm: 0.000715234478 xtb: 6.7.1 (edcfbbe)
C           -2.54932509231563       -0.95229015604588        0.35829472045117
C           -1.13077991818901       -0.47961154773056        0.61280366440109
H           -0.97294486383968       -0.43629707134668        1.70337109535302
C           -0.81988620767699        0.89277653401429        0.00608402416752
H           -1.01866896246134        0.86796180173314       -1.07365064014387
C            0.64384444485216        1.24790345529122        0.23213746801508
H            0.81415064893114        1.36484612985263        1.31524053226435
C            1.54019661562989        0.13924604171478       -0.28615527773789
H            1.43338511026940        0.06450392001737       -1.38114274049062
C            1.12231426740893       -1.20044113878422        0.32722795165164
H            1.27440985344329       -1.18991896339970        1.41675627994422
O           -0.25123493014059       -1.46187425728397        0.03148089870317
O            1.88462321954616       -2.26777917638676       -0.17298366891050
O            2.88680570610893        0.45573427147853        0.07090805975583
O            0.99431820565874        2.45779116963172       -0.44942699446513
O           -1.59528709238456        1.92032807406177        0.63633991088917
O           -2.88775728451758       -0.99285114641937       -1.03299176390755
H           -3.24951161449696       -0.25901436546357        0.83329929664582
H           -2.68025735429012       -1.94074071268465        0.81914119184970
H            1.86786093435629       -2.22288639670149       -1.14166294237763
H            3.45593780098758       -0.22154255054257       -0.31934246698191
H            0.41596826855613        3.15124847321310       -0.10298539391204
H           -2.46361791173742        1.94184247010878        0.21445991246540
H           -2.30054961028192       -1.63441272016171       -1.45450881843503
24
 energy: -687.117460628465 gnorm: 0.000484026681 xtb: 6.7.1 (edcfbbe)
C           -2.54994369910135       -0.95174580457342        0.35853114182761
C           -1.13084342915076       -0.48013082548584        0.61235371608162
H           -0.97191309518467       -0.43785629110371        1.70279922458695
C           -0.81999910645699        0.89263560222912        0.00646263904197
H           -1.02074481049135        0.86941165424336       -1.07290608118862
C            0.64390959592324        1.24762962477059        0.23156916236729
H            0.81425384544221        1.36644717404554        1.31446103100668
C            1.54109875696152        0.13895768834106       -0.28512000913606
H            1.43761757049101        0.06489190605350       -1.38041985595568
C            1.12146103443800       -1.20115863504107        0.32584282314266
H            1.27244917280137       -1.19209703307159        1.41559595480066
O           -0.25213785127113       -1.46185952715432        0.02884475199603
O            1.88382366501007       -2.26794808847472       -0.17488763577710
O            2.88659737183596        0.45506358963804        0.07622855696685
O            0.99403675334018        2.45617191828932       -0.45222568360574
O           -1.59398120746897        1.91984459065239        0.63919967314861
O           -2.88847508123590       -0.99333225759753       -1.03270716647081
H           -3.24923644248026       -0.25727839070848        0.83300010785362
H           -2.68170623859264       -1.93962255489556        0.82020470274791
H            1.87249396470079       -2.21952452027932       -1.14333854262222
H            3.45719878621962       -0.21944525987957       -0.31646511325721
H            0.41395540360085        3.14936483788060       -0.10832950039490
H           -2.46204172788233        1.94406934379887        0.21704338909734
H           -2.30387897281181       -1.63796664637669       -1.45304257285271
24
 energy: -687.117460628465 gnorm: 0.000484026681 xtb: 6.7.1 (edcfbbe)
C           -2.54994369910135       -0.95174580457342        0.35853114182761
C           -1.13084342915076       -0.48013082548584        0.61235371608162
H           -0.97191309518467       -0.43785629110371        1.70279922458695
C           -0.81999910645699        0.89263560222912        0.00646263904197
H           -1.02074481049135        0.86941165424336       -1.07290608118862
C            0.64390959592324        1.24762962477059        0.23156916236729
H            0.81425384544221        1.36644717404554        1.31446103100668
C            1.54109875696152        0.13895768834106       -0.28512000913606
H            1.43761757049101        0.06489190605350       -1.38041985595568
C            1.12146103443800       -1.20115863504107        0.32584282314266
H            1.27244917280137       -1.19209703307159        1.41559595480066
O           -0.25213785127113       -1.46185952715432        0.02884475199603
O            1.88382366501007       -2.26794808847472       -0.17488763577710
O            2.88659737183596        0.45506358963804        0.07622855696685
O            0.99403675334018        2.45617191828932       -0.45222568360574
O           -1.59398120746897        1.91984459065239        0.63919967314861
O           -2.88847508123590       -0.99333225759753       -1.03270716647081
H           -3.24923644248026       -0.25727839070848        0.83300010785362
H           -2.68170623859264       -1.93962255489556        0.82020470274791
H            1.87249396470079       -2.21952452027932       -1.14333854262222
H            3.45719878621962       -0.21944525987957       -0.31646511325721
H            0.41395540360085        3.14936483788060       -0.10832950039490
H           -2.46204172788233        1.94406934379887        0.21704338909734
H           -2.30387897281181       -1.63796664637669       -1.45304257285271
