      -----------------------------------------------------------      
     |                   =====================                   |     
     |                           x T B                           |     
     |                   =====================                   |     
     |                         S. Grimme                         |     
     |          Mulliken Center for Theoretical Chemistry        |     
     |                    University of Bonn                     |     
      -----------------------------------------------------------      

   * xtb version 6.7.1 (edcfbbe) compiled by 'albert@albert-system' on 2024-07-22

   xtb is free software: you can redistribute it and/or modify it under
   the terms of the GNU Lesser General Public License as published by
   the Free Software Foundation, either version 3 of the License, or
   (at your option) any later version.
   
   xtb is distributed in the hope that it will be useful,
   but WITHOUT ANY WARRANTY; without even the implied warranty of
   MERCHANTABILITY or FITNESS FOR A PARTICULAR PURPOSE.  See the
   GNU Lesser General Public License for more details.
   
   Cite this work as:
   * C. Bannwarth, E. Caldeweyher, S. Ehlert, A. Hansen, P. Pracht,
     J. Seibert, S. Spicher, S. Grimme, WIREs Comput. Mol. Sci., 2020, 11,
     e01493. DOI: 10.1002/wcms.1493
   
   for GFN2-xTB:
   * C. Bannwarth, S. Ehlert and S. Grimme., J. Chem. Theory Comput., 2019,
     15, 1652-1671. DOI: 10.1021/acs.jctc.8b01176
   for GFN1-xTB:
   * S. Grimme, C. Bannwarth, P. Shushkov, J. Chem. Theory Comput., 2017,
     13, 1989-2009. DOI: 10.1021/acs.jctc.7b00118
   for GFN0-xTB:
   * P. Pracht, E. Caldeweyher, S. Ehlert, S. Grimme, ChemRxiv, 2019, preprint.
     DOI: 10.26434/chemrxiv.8326202.v1
   for GFN-FF:
   * S. Spicher and S. Grimme, Angew. Chem. Int. Ed., 2020, 59, 15665-15673.
     DOI: 10.1002/anie.202004239
   
   for ALPB and GBSA implicit solvation:
   * S. Ehlert, M. Stahn, S. Spicher, S. Grimme, J. Chem. Theory Comput.,
     2021, 17, 4250-4261. DOI: 10.1021/acs.jctc.1c00471
   
   for ddCOSMO and CPCM-X implicit solvation:
   * M. Stahn, S. Ehlert, S. Grimme, J. Phys. Chem. A,
     2023, XX, XXXX-XXXX. DOI: 10.1021/acs.jpca.3c04382
   
   for DFT-D4:
   * E. Caldeweyher, C. Bannwarth and S. Grimme, J. Chem. Phys., 2017,
     147, 034112. DOI: 10.1063/1.4993215
   * E. Caldeweyher, S. Ehlert, A. Hansen, H. Neugebauer, S. Spicher,
     C. Bannwarth and S. Grimme, J. Chem. Phys., 2019, 150, 154122.
     DOI: 10.1063/1.5090222
   * E. Caldeweyher, J.-M. Mewes, S. Ehlert and S. Grimme, Phys. Chem. Chem. Phys.
     2020, 22, 8499-8512. DOI: 10.1039/D0CP00502A
   
   for sTDA-xTB:
   * S. Grimme and C. Bannwarth, J. Chem. Phys., 2016, 145, 054103.
     DOI: 10.1063/1.4959605
   
   in the mass-spec context:
   * V. Asgeirsson, C. Bauer and S. Grimme, Chem. Sci., 2017, 8, 4879.
     DOI: 10.1039/c7sc00601b
   * J. Koopman and S. Grimme, ACS Omega 2019, 4, 12, 15120-15133.
     DOI: 10.1021/acsomega.9b02011
   
   for metadynamics refer to:
   * S. Grimme, J. Chem. Theory Comput., 2019, 155, 2847-2862
     DOI: 10.1021/acs.jctc.9b00143
   
   for SPH calculations refer to:
   * S. Spicher and S. Grimme, J. Chem. Theory Comput., 2021, 17, 1701-1714
     DOI: 10.1021/acs.jctc.0c01306
   
   for ONIOM refer to:
   * C. Plett, A. Katbashev, S. Ehlert, S. Grimme, M. Bursch,
     Phys. Chem. Chem. Phys., 2023, 25, 17860-17868. DOI: 10.1039/D3CP02178E
   
   for DIPRO refer to:
   * J. Kohn, N. Gildemeister, S. Grimme, D. Fazzi, A. Hansen,
     J. Chem. Phys., 2023, just accepted.
   
   for PTB refer to:
   * S. Grimme, M. Mueller, A. Hansen, J. Chem. Phys., 2023, 158, 124111.
     DOI: 10.1063/5.0137838
   
   with help from (in alphabetical order)
   P. Atkinson, C. Bannwarth, F. Bohle, G. Brandenburg, E. Caldeweyher
   M. Checinski, S. Dohm, S. Ehlert, S. Ehrlich, I. Gerasimov, C. Hölzer
   A. Katbashev, J. Kohn, J. Koopman, C. Lavigne, S. Lehtola, F. März, M. Müller,
   F. Musil, H. Neugebauer, J. Pisarek, C. Plett, P. Pracht, F. Pultar,
   J. Seibert, P. Shushkov, S. Spicher, M. Stahn, M. Steiner, T. Strunk,
   J. Stückrath, T. Rose, and J. Unsleber
   
 * started run on 2025/04/06 at 18:00:39.185     
   ID    Z sym.   atoms
    1    6 C      1, 2, 4, 6, 8, 10
    2    1 H      3, 5, 7, 9, 11, 18-24
    3    8 O      12-17

           -------------------------------------------------
          |                Calculation Setup                |
           -------------------------------------------------

          program call               : /srv/scratch/z5358697/.xtb/bin/xtb solv.coord --gfn2 --sp --chrg 0 --norestart --parallel 1 --alpb water reference -I xtb_sp-xcontrol-inp
          hostname                   : k155
          coordinate file            : solv.coord
          omp threads                :                     1


           -------------------------------------------------
          |                 G F N 2 - x T B                 |
           -------------------------------------------------

        Reference                      10.1021/acs.jctc.8b01176
      * Hamiltonian:
        H0-scaling (s, p, d)           1.850000    2.230000    2.230000
        zeta-weighting                 0.500000
      * Dispersion:
        s8                             2.700000
        a1                             0.520000
        a2                             5.000000
        s9                             5.000000
      * Repulsion:
        kExp                           1.500000    1.000000
        rExp                           1.000000
      * Coulomb:
        alpha                          2.000000
        third order                    shell-resolved
        anisotropic                    true
        a3                             3.000000
        a5                             4.000000
        cn-shift                       1.200000
        cn-exp                         4.000000
        max-rad                        5.000000

      * Solvation model:               ALPB
        Solvent                        water
        Parameter file                 internal GFN2-xTB/ALPB
        Dielectric constant                8.0200E+01
        Reference state                gsolv=reference [X=1]
        Free energy shift                  2.8945E-03 Eh       1.8164E+00 kcal/mol
        Temperature                        2.9815E+02 K
        Density                            1.0000E+00 kg/L
        Solvent mass                       1.8000E+01 g/mol
        Interaction kernel             P16
        Born radius scaling (c1)           1.4744E+00
        Born radii integrator          GBOBC
        Born offset                        0.0000E+00 a0       0.0000E+00 AA
        H-bond correction              true
        Ion screening                  false
        Surface tension                    1.0000E-05 Eh       1.5569E+01 dyn/cm
        Grid points                               974 per atom

          ...................................................
          :                      SETUP                      :
          :.................................................:
          :  # basis functions                  60          :
          :  # atomic orbitals                  60          :
          :  # shells                           36          :
          :  # electrons                        72          :
          :  max. iterations                   250          :
          :  Hamiltonian                  GFN2-xTB          :
          :  restarted?                      false          :
          :  GBSA solvation                   true          :
          :  PC potential                    false          :
          :  electronic temp.          300.0000000     K    :
          :  accuracy                    1.0000000          :
          :  -> integral cutoff          0.2500000E+02      :
          :  -> integral neglect         0.1000000E-07      :
          :  -> SCF convergence          0.1000000E-05 Eh   :
          :  -> wf. convergence          0.1000000E-03 e    :
          :  Broyden damping             0.4000000          :
          :  net charge                          0          :
          :  unpaired electrons                  0          :
          ...................................................

 iter      E             dE          RMSdq      gap      omega  full diag
   1    -43.6574197 -0.436574E+02  0.483E+00   10.03       0.0  T
   2    -43.6872084 -0.297887E-01  0.260E+00    9.97       1.0  T
   3    -43.6894066 -0.219822E-02  0.560E-01    9.96       1.0  T
   4    -43.6896705 -0.263836E-03  0.179E-01    9.97       1.0  T
   5    -43.6897231 -0.526629E-04  0.668E-02    9.99       1.0  T
   6    -43.6897395 -0.164251E-04  0.229E-02    9.99       1.0  T
   7    -43.6897407 -0.110847E-05  0.650E-03    9.99       3.1  T
   8    -43.6897409 -0.252623E-06  0.268E-03    9.99       7.6  T
   9    -43.6897409 -0.243110E-07  0.113E-03    9.99      18.1  T
  10    -43.6897409 -0.575686E-08  0.381E-04    9.99      53.6  T
  11    -43.6897409 -0.748187E-09  0.124E-04    9.99     164.3  T

   *** convergence criteria satisfied after 11 iterations ***

         #    Occupation            Energy/Eh            Energy/eV
      -------------------------------------------------------------
         1        2.0000           -0.7237575             -19.6944
       ...           ...                  ...                  ...
        30        2.0000           -0.4594830             -12.5032
        31        2.0000           -0.4525199             -12.3137
        32        2.0000           -0.4450480             -12.1104
        33        2.0000           -0.4303008             -11.7091
        34        2.0000           -0.4244680             -11.5504
        35        2.0000           -0.4167394             -11.3401
        36        2.0000           -0.3950010             -10.7485 (HOMO)
        37                         -0.0278380              -0.7575 (LUMO)
        38                         -0.0018304              -0.0498
        39                          0.0287163               0.7814
        40                          0.0379423               1.0325
        41                          0.0612055               1.6655
       ...                                ...                  ...
        60                          0.2886837               7.8555
      -------------------------------------------------------------
                  HL-Gap            0.3671630 Eh            9.9910 eV
             Fermi-level           -0.2114195 Eh           -5.7530 eV

 SCC (total)                   0 d,  0 h,  0 min,  0.028 sec
 SCC setup                      ...        0 min,  0.001 sec (  5.408%)
 Dispersion                     ...        0 min,  0.000 sec (  0.487%)
 classical contributions        ...        0 min,  0.000 sec (  0.101%)
 integral evaluation            ...        0 min,  0.003 sec (  9.733%)
 iterations                     ...        0 min,  0.016 sec ( 57.114%)
 molecular gradient             ...        0 min,  0.007 sec ( 26.627%)
 printout                       ...        0 min,  0.000 sec (  0.480%)

         :::::::::::::::::::::::::::::::::::::::::::::::::::::
         ::                     SUMMARY                     ::
         :::::::::::::::::::::::::::::::::::::::::::::::::::::
         :: total energy             -43.387119794573 Eh    ::
         :: total w/o Gsasa/hb       -43.370450977076 Eh    ::
         :: gradient norm              0.000098776043 Eh/a0 ::
         :: HOMO-LUMO gap              9.991015117606 eV    ::
         ::.................................................::
         :: SCC energy               -43.689536481601 Eh    ::
         :: -> isotropic ES            0.167516190774 Eh    ::
         :: -> anisotropic ES         -0.008535499959 Eh    ::
         :: -> anisotropic XC         -0.009673903281 Eh    ::
         :: -> dispersion             -0.019902981989 Eh    ::
         :: -> Gsolv                  -0.033526379775 Eh    ::
         ::    -> Gelec               -0.016857562278 Eh    ::
         ::    -> Gsasa                0.004514776481 Eh    ::
         ::    -> Ghb                 -0.024078143138 Eh    ::
         ::    -> Gshift               0.002894549160 Eh    ::
         :: repulsion energy           0.302416687028 Eh    ::
         :: add. restraining           0.000000000000 Eh    ::
         :: total charge               0.000000000000 e     ::
         :::::::::::::::::::::::::::::::::::::::::::::::::::::

           -------------------------------------------------
          |                Property Printout                |
           -------------------------------------------------

    * Orbital Energies and Occupations

         #    Occupation            Energy/Eh            Energy/eV
      -------------------------------------------------------------
         1        2.0000           -0.7237575             -19.6944
       ...           ...                  ...                  ...
        24        2.0000           -0.5151888             -14.0190
        25        2.0000           -0.5075632             -13.8115
        26        2.0000           -0.5011532             -13.6371
        27        2.0000           -0.4894070             -13.3174
        28        2.0000           -0.4803900             -13.0721
        29        2.0000           -0.4676274             -12.7248
        30        2.0000           -0.4594830             -12.5032
        31        2.0000           -0.4525199             -12.3137
        32        2.0000           -0.4450480             -12.1104
        33        2.0000           -0.4303008             -11.7091
        34        2.0000           -0.4244680             -11.5504
        35        2.0000           -0.4167394             -11.3401
        36        2.0000           -0.3950010             -10.7485 (HOMO)
        37                         -0.0278380              -0.7575 (LUMO)
        38                         -0.0018304              -0.0498
        39                          0.0287163               0.7814
        40                          0.0379423               1.0325
        41                          0.0612055               1.6655
        42                          0.0637053               1.7335
        43                          0.0704423               1.9168
        44                          0.0774141               2.1065
        45                          0.1050943               2.8598
        46                          0.1105862               3.0092
        47                          0.1167058               3.1757
       ...                                ...                  ...
        60                          0.2886837               7.8555
      -------------------------------------------------------------
                  HL-Gap            0.3671630 Eh            9.9910 eV
             Fermi-level           -0.2114195 Eh           -5.7530 eV

     #   Z          covCN         q      C6AA      α(0)
     1   6 C        3.676     0.067    19.675     6.355
     2   6 C        3.745     0.092    19.122     6.238
     3   1 H        0.923     0.038     2.480     2.463
     4   6 C        3.726     0.090    19.182     6.253
     5   1 H        0.924     0.064     2.150     2.293
     6   6 C        3.728     0.105    18.953     6.215
     7   1 H        0.923     0.040     2.454     2.450
     8   6 C        3.726     0.089    19.204     6.257
     9   1 H        0.924     0.045     2.385     2.415
    10   6 C        3.624     0.240    17.262     5.988
    11   1 H        0.923     0.030     2.588     2.516
    12   8 O        1.700    -0.361    20.098     6.053
    13   8 O        1.656    -0.487    22.610     6.419
    14   8 O        1.656    -0.510    23.103     6.489
    15   8 O        1.656    -0.505    23.003     6.475
    16   8 O        1.655    -0.494    22.756     6.440
    17   8 O        1.655    -0.494    22.763     6.441
    18   1 H        0.924     0.067     2.115     2.274
    19   1 H        0.924     0.044     2.397     2.421
    20   1 H        0.804     0.376     0.531     1.145
    21   1 H        0.805     0.378     0.527     1.140
    22   1 H        0.805     0.374     0.536     1.150
    23   1 H        0.804     0.352     0.583     1.199
    24   1 H        0.805     0.360     0.565     1.181

 Mol. C6AA /au·bohr⁶  :       4726.330504
 Mol. C8AA /au·bohr⁸  :     100711.960854
 Mol. α(0) /au        :         98.268366


Wiberg/Mayer (AO) data.
largest (>0.10) Wiberg bond orders for each atom

 ---------------------------------------------------------------------------
     #   Z sym  total        # sym  WBO       # sym  WBO       # sym  WBO
 ---------------------------------------------------------------------------
     1   6 C    3.959 --    17 O    1.011     2 C    0.978    18 H    0.969
                            19 H    0.968
     2   6 C    3.941 --     1 C    0.978     4 C    0.961    12 O    0.959
                             3 H    0.957
     3   1 H    0.999 --     2 C    0.957
     4   6 C    3.956 --    16 O    1.004     2 C    0.961     6 C    0.957
                             5 H    0.956
     5   1 H    0.996 --     4 C    0.956
     6   6 C    3.958 --    15 O    1.000     8 C    0.975     7 H    0.958
                             4 C    0.957
     7   1 H    0.998 --     6 C    0.958
     8   6 C    3.957 --    14 O    0.999     6 C    0.975     9 H    0.960
                            10 C    0.944
     9   1 H    0.998 --     8 C    0.960
    10   6 C    3.931 --    13 O    1.023    12 O    0.955    11 H    0.949
                             8 C    0.944
    11   1 H    0.999 --    10 C    0.949
    12   8 O    2.059 --     2 C    0.959    10 C    0.955
    13   8 O    1.951 --    10 C    1.023    20 H    0.834
    14   8 O    1.921 --     8 C    0.999    21 H    0.842
    15   8 O    1.924 --     6 C    1.000    22 H    0.844
    16   8 O    1.936 --     4 C    1.004    23 H    0.853
    17   8 O    1.929 --     1 C    1.011    24 H    0.856
    18   1 H    0.995 --     1 C    0.969
    19   1 H    0.998 --     1 C    0.968
    20   1 H    0.859 --    13 O    0.834
    21   1 H    0.857 --    14 O    0.842
    22   1 H    0.860 --    15 O    0.844
    23   1 H    0.876 --    16 O    0.853
    24   1 H    0.870 --    17 O    0.856
 ---------------------------------------------------------------------------

Topologies differ in total number of bonds
Writing topology from bond orders to xtbtopo.mol

molecular dipole:
                 x           y           z       tot (Debye)
 q only:        0.845       0.399       0.216
   full:        1.183       0.415       0.369       3.322
molecular quadrupole (traceless):
                xx          xy          yy          xz          yz          zz
 q only:       -4.503       5.926      -5.335       4.570      -4.771       9.837
  q+dip:       -5.609       8.393      -3.776       6.720      -8.955       9.385
   full:       -5.956       7.718      -4.905       6.599      -7.893      10.861


           -------------------------------------------------
          | TOTAL ENERGY              -43.387119794573 Eh   |
          | GRADIENT NORM               0.000098776043 Eh/α |
          | HOMO-LUMO GAP               9.991015117606 eV   |
           -------------------------------------------------

------------------------------------------------------------------------
 * finished run on 2025/04/06 at 18:00:39.252     
------------------------------------------------------------------------
 total:
 * wall-time:     0 d,  0 h,  0 min,  0.067 sec
 *  cpu-time:     0 d,  0 h,  0 min,  0.029 sec
 * ratio c/w:     0.438 speedup
 SCF:
 * wall-time:     0 d,  0 h,  0 min,  0.028 sec
 *  cpu-time:     0 d,  0 h,  0 min,  0.021 sec
 * ratio c/w:     0.739 speedup

