
                                 *****************
                                 * O   R   C   A *
                                 *****************

                                            #,                                       
                                            ###                                      
                                            ####                                     
                                            #####                                    
                                            ######                                   
                                           ########,                                 
                                     ,,################,,,,,                         
                               ,,#################################,,                 
                          ,,##########################################,,             
                       ,#########################################, ''#####,          
                    ,#############################################,,   '####,        
                  ,##################################################,,,,####,       
                ,###########''''           ''''###############################       
              ,#####''   ,,,,##########,,,,          '''####'''          '####       
            ,##' ,,,,###########################,,,                        '##       
           ' ,,###''''                  '''############,,,                           
         ,,##''                                '''############,,,,        ,,,,,,###''
      ,#''                                            '''#######################'''  
     '                                                          ''''####''''         
             ,#######,   #######,   ,#######,      ##                                
            ,#'     '#,  ##    ##  ,#'     '#,    #''#        ,####,   ,####,        
            ##       ##  ##   ,#'  ##            #'  '#       #'       #'  '#        
            ##       ##  #######   ##           ,######,      #####,   #    #        
            '#,     ,#'  ##    ##  '#,     ,#' ,#      #,     #,   #   #,  ,#        
             '#######'   ##     ##  '#######'  #'      '#     '####' # '####'        



                #########################################################
                #                        -***-                          #
                #          Department of theory and spectroscopy        #
                #                                                       #
                #                      Frank Neese                      #
                #                                                       #
                #     Directorship, Architecture, Infrastructure        #
                #                    SHARK, DRIVERS                     #
                #        Core code/Algorithms in most modules           #
                #                                                       #
                #        Max Planck Institute fuer Kohlenforschung      #
                #                Kaiser Wilhelm Platz 1                 #
                #                 D-45470 Muelheim/Ruhr                 #
                #                      Germany                          #
                #                                                       #
                #                  All rights reserved                  #
                #                        -***-                          #
                #########################################################


                         Program Version 6.0.0  -   RELEASE  -


 With contributions from (in alphabetic order):
   Daniel Aravena         : Magnetic Suceptibility
   Michael Atanasov       : Ab Initio Ligand Field Theory (pilot matlab implementation)
   Alexander A. Auer      : GIAO ZORA, VPT2 properties, NMR spectrum
   Ute Becker             : All parallelization in ORCA, NUMFREQ, NUMCALC
   Giovanni Bistoni       : ED, misc. LED, open-shell LED, HFLD
   Martin Brehm           : Molecular dynamics
   Dmytro Bykov           : pre 5.0 version of the SCF Hessian
   Marcos Casanova-Páez   : Triplet and SCS-CIS(D). UHF-(DLPNO)-IP/EA/STEOM-CCSD. UHF-CVS-IP/STEOM-CCSD
   Vijay G. Chilkuri      : MRCI spin determinant printing, contributions to CSF-ICE
   Pauline Colinet        : FMM embedding
   Dipayan Datta          : RHF DLPNO-CCSD density
   Achintya Kumar Dutta   : EOM-CC, STEOM-CC
   Nicolas Foglia         : Exact transition moments, OPA infrastructure, MCD improvements
   Dmitry Ganyushin       : Spin-Orbit,Spin-Spin,Magnetic field MRCI
   Miquel Garcia          : C-PCM and meta-GGA Hessian, CCSD/C-PCM, Gaussian charge scheme
   Tiago L. C. Gouveia    : GS-ROHF, GS-ROCIS
   Yang Guo               : DLPNO-NEVPT2, F12-NEVPT2, CIM, IAO-localization
   Andreas Hansen         : Spin unrestricted coupled pair/coupled cluster methods
   Ingolf Harden          : AUTO-CI MPn and infrastructure 
   Benjamin Helmich-Paris : MC-RPA, TRAH-(SCF,CASSCF), AVAS, COSX integrals, SCF dyn. polar.
   Lee Huntington         : MR-EOM, pCC
   Robert Izsak           : Overlap fitted RIJCOSX, COSX-SCS-MP3, EOM
   Riya Kayal             : Wick's Theorem for AUTO-CI, AUTO-CI UHF-CCSDT
   Emily Kempfer          : AUTO-CI, RHF CISDT and CCSDT
   Christian Kollmar      : KDIIS, OOCD, Brueckner-CCSD(T), CCSD density, CASPT2, CASPT2-K, improved NEVPT2
   Axel Koslowski         : Symmetry handling
   Simone Kossmann        : Meta GGA functionals, TD-DFT gradient, OOMP2, (MP2 Hessian; deprecated post 5.0)
   Lucas Lang             : DCDCAS
   Marvin Lechner         : AUTO-CI (C++ implementation), FIC-MRCC
   Spencer Leger          : CASSCF response
   Dagmar Lenk            : GEPOL surface, SMD, ORCA-2-JSON
   Dimitrios Liakos       : Extrapolation schemes; Compound Job, initial MDCI parallelization
   Dimitrios Manganas     : Further ROCIS development; embedding schemes. LFT, Crystal Embedding
   Dimitrios Pantazis     : SARC Basis sets
   Anastasios Papadopoulos: AUTO-CI, single reference methods and gradients
   Taras Petrenko         : pre 6.0 DFT Hessian and TD-DFT gradient, (ASA, deprecated), ECA, 1-Electron XAS/XES, NRVS
   Peter Pinski           : DLPNO-MP2, DLPNO-MP2 Gradient
   Christoph Reimann      : Effective Core Potentials
   Marius Retegan         : Local ZFS, SOC
   Christoph Riplinger    : Optimizer, TS searches, QM/MM, DLPNO-CCSD(T), (RO)-DLPNO pert. Triples
   Michael Roemelt        : Original ROCIS implementation
   Masaaki Saitow         : Open-shell DLPNO-CCSD energy and density
   Barbara Sandhoefer     : DKH picture change effects
   Kantharuban Sivalingam : CASSCF convergence/infrastructure, NEVPT2 and variants, FIC-MRCI
   Bernardo de Souza      : ESD, SOC TD-DFT
   Georgi Stoychev        : AutoAux, RI-MP2 NMR, DLPNO-MP2 response, X2C
   Van Anh Tran           : RI-MP2 g-tensors
   Willem Van den Heuvel  : Paramagnetic NMR
   Zikuan Wang            : NOTCH, Electric field optimization 
   Frank Wennmohs         : Technical directorship and infrastructure
   Hang Xu                : AUTO-CI-Response properties 


 We gratefully acknowledge several colleagues who have allowed us to
 interface, adapt or use parts of their codes:
   Stefan Grimme, W. Hujo, H. Kruse, P. Pracht,  : VdW corrections, initial TS optimization,
                  C. Bannwarth, S. Ehlert,         DFT functionals, gCP, sTDA/sTD-DF
                  L. Wittmann, M. Mueller
   Ed Valeev, F. Pavosevic, A. Kumar             : LibInt (2-el integral package), F12 methods
   Garnet Chan, S. Sharma, J. Yang, R. Olivares  : DMRG
   Ulf Ekstrom                                   : XCFun DFT Library
   Mihaly Kallay                                 : mrcc  (arbitrary order and MRCC methods)
   Frank Weinhold                                : gennbo (NPA and NBO analysis)
   Simon Mueller                                 : openCOSMO-RS
   Christopher J. Cramer and Donald G. Truhlar   : smd solvation model
   Lars Goerigk                                  : TD-DFT with DH, B97 family of functionals
   V. Asgeirsson, H. Jonsson                     : NEB implementation
   FAccTs GmbH                                   : IRC, NEB, NEB-TS, DLPNO-Multilevel, CI-OPT
                                                   MM, QMMM, 2- and 3-layer-ONIOM, Crystal-QMMM,
                                                   LR-CPCM, SF, NACMEs, symmetry and pop. for TD-DFT,
                                                   nearIR, NL-DFT gradient (VV10), updates on ESD,
                                                   ML-optimized integration grids, MBIS, APM,
                                                   GOAT, DOCKER, SOLVATOR, interface openCOSMO-RS
   S Lehtola, MJT Oliveira, MAL Marques          : LibXC Library
   Liviu Ungur et al                             : ANISO software


 Your calculation uses the libint2 library for the computation of 2-el integrals
 For citations please refer to: http://libint.valeyev.net

 Your ORCA version has been built with support for libXC version: 6.2.2
 For citations please refer to: https://libxc.gitlab.io

 This ORCA versions uses:
   CBLAS   interface :  Fast vector & matrix operations
   LAPACKE interface :  Fast linear algebra routines
   SCALAPACK package :  Parallel linear algebra routines
   Shared memory     :  Shared parallel matrices
   BLAS/LAPACK       :  OpenBLAS 0.3.27  USE64BITINT DYNAMIC_ARCH NO_AFFINITY SkylakeX SINGLE_THREADED
        Core in use  :  SkylakeX
   Copyright (c) 2011-2014, The OpenBLAS Project


Your calculation utilizes the geometrical counterpoise correction gCP
Please cite in your paper:
H.Kruse, S. Grimme J.Chem.Phys., 136, (2012), 154101 
   

Your calculation utilizes the atom-pairwise dispersion correction
based on EEQ partial charges (D4)


Your calculation utilizes the SMD solvation module
Please cite in your paper:
A.V. Marenich, C.J. Cramer, D.G. Truhlar J. Phys. Chem. B, 113, (2009), 6378 

================================================================================

----- Orbital basis set information -----
Your calculation utilizes the basis: def2-mTZVPP
   Stefan Grimme, Andreas Hansen, Sebastian Ehlert, and Jan-Michael Mewes 
   J. Chem. Phys. 154, 064103 (2021). DOI: 10.1063/5.0040021

----- AuxJ basis set information -----
Your calculation utilizes the auxiliary basis: def2/J
   F. Weigend, Phys. Chem. Chem. Phys. 8, 1057 (2006).

================================================================================
                                        WARNINGS
                       Please study these warnings very carefully!
================================================================================

Using LibXC functional ID 497 : Re-regularized SCAN exchange by Furness et al
[ 1]  J. W. Furness, A. D. Kaplan, J. Ning, J. P. Perdew, and J. Sun.,  J. Phys. Chem. Lett. 11, 8208-8215 (2020)
[ 2]  J. W. Furness, A. D. Kaplan, J. Ning, J. P. Perdew, and J. Sun.,  J. Phys. Chem. Lett. 11, 9248-9248 (2020)
Using LibXC functional ID 498 : Re-regularized SCAN correlation by Furness et al
[ 1]  J. W. Furness, A. D. Kaplan, J. Ning, J. P. Perdew, and J. Sun.,  J. Phys. Chem. Lett. 11, 8208-8215 (2020)
[ 2]  J. W. Furness, A. D. Kaplan, J. Ning, J. P. Perdew, and J. Sun.,  J. Phys. Chem. Lett. 11, 9248-9248 (2020)
Using LibXC functional ID 497 : Re-regularized SCAN exchange by Furness et al
[ 1]  J. W. Furness, A. D. Kaplan, J. Ning, J. P. Perdew, and J. Sun.,  J. Phys. Chem. Lett. 11, 8208-8215 (2020)
[ 2]  J. W. Furness, A. D. Kaplan, J. Ning, J. P. Perdew, and J. Sun.,  J. Phys. Chem. Lett. 11, 9248-9248 (2020)
Using LibXC functional ID 498 : Re-regularized SCAN correlation by Furness et al
[ 1]  J. W. Furness, A. D. Kaplan, J. Ning, J. P. Perdew, and J. Sun.,  J. Phys. Chem. Lett. 11, 8208-8215 (2020)
[ 2]  J. W. Furness, A. D. Kaplan, J. Ning, J. P. Perdew, and J. Sun.,  J. Phys. Chem. Lett. 11, 9248-9248 (2020)

================================================================================
                                       INPUT FILE
================================================================================
NAME = sp_solv.inp
|  1> ! r2scan-3c def2/J RI DEFGRID2 scfconv6 printgap
|  2> %output
|  3>     printlevel normal
|  4> end
|  5> %cpcm
|  6>     smd true
|  7>     smdsolvent "water"
|  8> end
|  9> * xyz 0 1
| 10> C -2.5359213278 0.631332651 0.0662829881
| 11> C -1.3925620224 -0.3374420983 -0.1726219848
| 12> O -0.1723873972 0.4135112942 -0.2866053397
| 13> C 0.9708068719 -0.1670359091 0.0543720453
| 14> O 1.046793258 -1.3111226309 0.4552693816
| 15> C 2.132435365 0.7641133252 -0.121812741
| 16> H -3.4685065427 0.0794348849 0.1239603119
| 17> H -2.3823582637 1.1716310403 0.9959834503
| 18> H -2.5904587928 1.3460888293 -0.7494198526
| 19> H -1.5320504086 -0.8926445795 -1.1055016461
| 20> H -1.2847248843 -1.0546378287 0.647564717
| 21> H 3.0364304297 0.2945108842 0.2510694773
| 22> H 1.9342803806 1.6913138511 0.4081659231
| 23> H 2.2412967163 0.9955344855 -1.1783087355
| 24> *
| 25> 
| 26>                          ****END OF INPUT****
================================================================================

                       ****************************
                       * Single Point Calculation *
                       ****************************

---------------------------------
CARTESIAN COORDINATES (ANGSTROEM)
---------------------------------
  C     -2.535921    0.631333    0.066283
  C     -1.392562   -0.337442   -0.172622
  O     -0.172387    0.413511   -0.286605
  C      0.970807   -0.167036    0.054372
  O      1.046793   -1.311123    0.455269
  C      2.132435    0.764113   -0.121813
  H     -3.468507    0.079435    0.123960
  H     -2.382358    1.171631    0.995983
  H     -2.590459    1.346089   -0.749420
  H     -1.532050   -0.892645   -1.105502
  H     -1.284725   -1.054638    0.647565
  H      3.036430    0.294511    0.251069
  H      1.934280    1.691314    0.408166
  H      2.241297    0.995534   -1.178309

----------------------------
CARTESIAN COORDINATES (A.U.)
----------------------------
  NO LB      ZA    FRAG     MASS         X           Y           Z
   0 C     6.0000    0    12.011   -4.792197    1.193046    0.125257
   1 C     6.0000    0    12.011   -2.631561   -0.637673   -0.326208
   2 O     8.0000    0    15.999   -0.325765    0.781423   -0.541606
   3 C     6.0000    0    12.011    1.834559   -0.315652    0.102748
   4 O     8.0000    0    15.999    1.978153   -2.477663    0.860334
   5 C     6.0000    0    12.011    4.029719    1.443965   -0.230193
   6 H     1.0000    0     1.008   -6.554527    0.150110    0.234251
   7 H     1.0000    0     1.008   -4.502005    2.214062    1.882136
   8 H     1.0000    0     1.008   -4.895258    2.543739   -1.416198
   9 H     1.0000    0     1.008   -2.895156   -1.686854   -2.089095
  10 H     1.0000    0     1.008   -2.427778   -1.992977    1.223720
  11 H     1.0000    0     1.008    5.738022    0.556545    0.474453
  12 H     1.0000    0     1.008    3.655260    3.196120    0.771322
  13 H     1.0000    0     1.008    4.235437    1.881288   -2.226681

--------------------------------
INTERNAL COORDINATES (ANGSTROEM)
--------------------------------
 C      0   0   0     0.000000000000     0.00000000     0.00000000
 C      1   0   0     1.517521203213     0.00000000     0.00000000
 O      2   1   0     1.437271484057   108.57631946     0.00000000
 C      3   2   1     1.326722943664   118.84903307   152.19385988
 O      4   3   2     1.214671573770   123.42737874     0.38444383
 C      4   3   2     1.499153338202   111.44920860   180.29767426
 H      1   2   3     1.085188002586   109.34074157   178.27746143
 H      1   2   3     1.086207583085   110.22925733   298.33809635
 H      1   2   3     1.085919819247   109.86319640    58.25340097
 H      2   1   3     1.094518737840   111.22250162   241.54961224
 H      2   1   3     1.094853775564   111.99091492   119.84026110
 H      6   4   3     1.084792458639   109.66005032   174.74367454
 H      6   4   3     1.086206056636   109.35963242    53.15698402
 H      6   4   3     1.087009813036   108.90849561   295.21817139

---------------------------
INTERNAL COORDINATES (A.U.)
---------------------------
 C      0   0   0     0.000000000000     0.00000000     0.00000000
 C      1   0   0     2.867699476492     0.00000000     0.00000000
 O      2   1   0     2.716049484962   108.57631946     0.00000000
 C      3   2   1     2.507143019114   118.84903307   152.19385988
 O      4   3   2     2.295396617084   123.42737874     0.38444383
 C      4   3   2     2.832989241956   111.44920860   180.29767426
 H      1   2   3     2.050708128705   109.34074157   178.27746143
 H      1   2   3     2.052634856619   110.22925733   298.33809635
 H      1   2   3     2.052091061773   109.86319640    58.25340097
 H      2   1   3     2.068340662962   111.22250162   241.54961224
 H      2   1   3     2.068973792506   111.99091492   119.84026110
 H      6   4   3     2.049960658970   109.66005032   174.74367454
 H      6   4   3     2.052631972049   109.35963242    53.15698402
 H      6   4   3     2.054150851522   108.90849561   295.21817139

---------------------
BASIS SET INFORMATION
---------------------
There are 3 groups of distinct atoms

 Group   1 Type C   : 11s6p1d contracted to 5s3p1d pattern {62111/411/1}
 Group   2 Type O   : 11s6p2d contracted to 5s3p2d pattern {62111/411/11}
 Group   3 Type H   : 4s1p contracted to 2s1p pattern {31/1}

Atom   0C    basis set group =>   1
Atom   1C    basis set group =>   1
Atom   2O    basis set group =>   2
Atom   3C    basis set group =>   1
Atom   4O    basis set group =>   2
Atom   5C    basis set group =>   1
Atom   6H    basis set group =>   3
Atom   7H    basis set group =>   3
Atom   8H    basis set group =>   3
Atom   9H    basis set group =>   3
Atom  10H    basis set group =>   3
Atom  11H    basis set group =>   3
Atom  12H    basis set group =>   3
Atom  13H    basis set group =>   3
---------------------------------
AUXILIARY/J BASIS SET INFORMATION
---------------------------------
There are 3 groups of distinct atoms

 Group   1 Type C   : 12s5p4d2f1g contracted to 6s4p3d1f1g pattern {711111/2111/211/2/1}
 Group   2 Type O   : 12s5p4d2f1g contracted to 6s4p3d1f1g pattern {711111/2111/211/2/1}
 Group   3 Type H   : 5s2p1d contracted to 3s1p1d pattern {311/2/1}

Atom   0C    basis set group =>   1
Atom   1C    basis set group =>   1
Atom   2O    basis set group =>   2
Atom   3C    basis set group =>   1
Atom   4O    basis set group =>   2
Atom   5C    basis set group =>   1
Atom   6H    basis set group =>   3
Atom   7H    basis set group =>   3
Atom   8H    basis set group =>   3
Atom   9H    basis set group =>   3
Atom  10H    basis set group =>   3
Atom  11H    basis set group =>   3
Atom  12H    basis set group =>   3
Atom  13H    basis set group =>   3

Checking for AutoStart:
The File: sp_solv.gbw exists
Trying to determine its content:
     ... Fine, the file contains calculation information
     ... Fine, the calculation information was read
     ... Fine, the file contains a basis set
     ... Fine, the basis set was read
     ... Fine, the file contains a geometry
     ... Fine, the geometry was read
     ... Fine, the file contains a set of orbitals
     ... Fine, the orbitals can be read
     => possible old guess file was deleted
     => GBW file was renamed to GES file
     => GES file is set as startup file
     => Guess is set to MORead
     ... now leaving AutoStart

------------------------------------------------------------------------------
                             ORCA STARTUP CALCULATIONS
                           -- RI-GTO INTEGRALS CHOSEN --
------------------------------------------------------------------------------
------------------------------------------------------------------------------
                   ___                                                        
                  /   \      - P O W E R E D   B Y -                         
                 /     \                                                     
                 |  |  |   _    _      __       _____    __    __             
                 |  |  |  | |  | |    /  \     |  _  \  |  |  /  |          
                  \  \/   | |  | |   /    \    | | | |  |  | /  /          
                 / \  \   | |__| |  /  /\  \   | |_| |  |  |/  /          
                |  |  |   |  __  | /  /__\  \  |    /   |      \           
                |  |  |   | |  | | |   __   |  |    \   |  |\   \          
                \     /   | |  | | |  |  |  |  | |\  \  |  | \   \       
                 \___/    |_|  |_| |__|  |__|  |_| \__\ |__|  \__/        
                                                                              
                      - O R C A' S   B I G   F R I E N D -                    
                                      &                                       
                       - I N T E G R A L  F E E D E R -                       
                                                                              
 v1 FN, 2020, v2 2021, v3 2022-2024                                           
------------------------------------------------------------------------------


----------------------
SHARK INTEGRAL PACKAGE
----------------------

Number of atoms                             ...     14
Number of basis functions                   ...    164
Number of shells                            ...     80
Maximum angular momentum                    ...      2
Integral batch strategy                     ... SHARK/LIBINT Hybrid
RI-J (if used) integral strategy            ... SPLIT-RIJ (Revised 2003 algorithm where possible)
Printlevel                                  ...      1
Contraction scheme used                     ... SEGMENTED contraction
Prescreening option                         ... SCHWARTZ
   Thresh                                   ... 1.000e-10
   Tcut                                     ... 1.000e-11
   Tpresel                                  ... 1.000e-11 
Coulomb Range Separation                    ... NOT USED
Exchange Range Separation                   ... NOT USED
Multipole approximations                    ... NOT USED
Finite Nucleus Model                        ... NOT USED
CABS basis                                  ... NOT available
Auxiliary Coulomb fitting basis             ... AVAILABLE
   # of basis functions in Aux-J            ...    382
   # of shells in Aux-J                     ...    130
   Maximum angular momentum in Aux-J        ...      4
Auxiliary J/K fitting basis                 ... NOT available
Auxiliary Correlation fitting basis         ... NOT available
Auxiliary 'external' fitting basis          ... NOT available

Checking pre-screening integrals            ... done (  0.0 sec) Dimension = 80
Check shell pair data                       ... done (  0.0 sec)
Shell pair information
Shell pair cut-off parameter TPreSel        ...   1.0e-11
Total number of shell pairs                 ...      3240
Shell pairs after pre-screening             ...      2955
Total number of primitive shell pairs       ...     11481
Primitive shell pairs kept                  ...      7706
          la=0 lb=0:    971 shell pairs
          la=1 lb=0:   1086 shell pairs
          la=1 lb=1:    323 shell pairs
          la=2 lb=0:    345 shell pairs
          la=2 lb=1:    194 shell pairs
          la=2 lb=2:     36 shell pairs

Calculating one electron integrals          ... done (  0.0 sec)
Calculating RI/J V-Matrix + Cholesky decomp.... done (  0.1 sec)
Calculating Nuclear repulsion               ... done (  0.0 sec) ENN=    244.261091665743 Eh

Diagonalization of the overlap matrix:
Smallest eigenvalue                        ... 3.621e-04
Time for diagonalization                   ...    0.002 sec
Threshold for overlap eigenvalues          ... 1.000e-07
Number of eigenvalues below threshold      ... 0
Time for construction of square roots      ...    0.015 sec
Total time needed                          ...    0.024 sec

-------------------
DFT GRID GENERATION
-------------------

General Integration Accuracy     IntAcc      ... 4.388
Radial Grid Type                 RadialGrid  ... OptM3 with GC (2021)
Angular Grid (max. ang.)         AngularGrid ... 4 (Lebedev-302)
Angular grid pruning method      GridPruning ... 4 (adaptive)
Weight generation scheme         WeightScheme... mBecke (2022)
Basis function cutoff            BFCut       ... 1.0000e-10
Integration weight cutoff        WCut        ... 1.0000e-14
Partially contracted basis set               ... off
Rotationally invariant grid construction     ... off
Angular grids for H and He will be reduced by one unit
Diffuse basis detected: some atoms will have their outermost
                        angular grid increased by 1.

Total number of grid points                  ...    62833
Total number of batches                      ...      990
Average number of points per batch           ...       63
Average number of grid points per atom       ...     4488
Initializing property integral containers    ... done (  0.0 sec)

SHARK setup successfully completed in   0.7 seconds

Maximum memory used throughout the entire STARTUP-calculation: 28.0 MB
-------------------------------------------------------------------------------
                                 ORCA GUESS
                   Start orbitals & Density for SCF / CASSCF
-------------------------------------------------------------------------------

------------
SCF SETTINGS
------------
Hamiltonian:
 Density Functional     Method          .... DFT(GTOs)
  Functional kind                       .... Exchange
  Functional name                       .... Re-regularized SCAN exchange by Furness et al
  Functional family                     .... MGGA
  Functional refs                              
    [ 0] J. W. Furness, A. D. Kaplan, J. Ning, J. P. Perdew, and J. Sun.,  J. Phys. Chem. Lett. 11, 8208-8215 (2020), doi: 10.1021/acs.jpclett.0c02405
    [ 1] J. W. Furness, A. D. Kaplan, J. Ning, J. P. Perdew, and J. Sun.,  J. Phys. Chem. Lett. 11, 9248-9248 (2020), doi: 10.1021/acs.jpclett.0c03077
  Functional external parameters        .... 6
    Parameter  0 _c1        =  6.670000e-01 : c1 parameter        
    Parameter  1 _c2        =  8.000000e-01 : c2 parameter        
    Parameter  2 _d         =  1.240000e+00 : d parameter         
    Parameter  3 _k1        =  6.500000e-02 : k1 parameter        
    Parameter  4 _eta       =  1.000000e-03 : eta parameter       
    Parameter  5 _dp2       =  3.610000e-01 : dp2 parameter       
  Functional kind                       .... Correlation
  Functional name                       .... Re-regularized SCAN correlation by Furness et al
  Functional family                     .... MGGA
  Functional refs                              
    [ 0] J. W. Furness, A. D. Kaplan, J. Ning, J. P. Perdew, and J. Sun.,  J. Phys. Chem. Lett. 11, 8208-8215 (2020), doi: 10.1021/acs.jpclett.0c02405
    [ 1] J. W. Furness, A. D. Kaplan, J. Ning, J. P. Perdew, and J. Sun.,  J. Phys. Chem. Lett. 11, 9248-9248 (2020), doi: 10.1021/acs.jpclett.0c03077
  Functional external parameters        .... 1
    Parameter  0 _eta       =  1.000000e-03 : Regularization parameter
 Gradients option       PostSCFGGA      .... off
 RI-approximation to the Coulomb term is turned on
   Number of AuxJ basis functions       .... 382


General Settings:
 Integral files         IntName         .... sp_solv
 Hartree-Fock type      HFTyp           .... RHF
 Total Charge           Charge          ....    0
 Multiplicity           Mult            ....    1
 Number of Electrons    NEL             ....   48
 Basis Dimension        Dim             ....  164
 Nuclear Repulsion      ENuc            ....    244.2610916657 Eh

Convergence Acceleration:
 AO-DIIS                CNVDIIS         .... on
   Start iteration      DIISMaxIt       ....    12
   Startup error        DIISStart       ....  0.200000
   # of expansion vecs  DIISMaxEq       ....     5
   Bias factor          DIISBfac        ....   1.050
   Max. coefficient     DIISMaxC        ....  10.000
 MO-DIIS                CNVKDIIS        .... off
 Trust-Rad. Augm. Hess. CNVTRAH         .... auto
   Auto Start mean grad. ratio tolernc. ....  1.125000
   Auto Start start iteration           ....     1
   Auto Start num. interpolation iter.  ....    10
   Max. Number of Micro iterations      ....    24
   Max. Number of Macro iterations      .... Maxiter - #DIIS iter
   Number of Davidson start vectors     ....     2
   Converg. threshold    (grad. norm)   ....   3.330e-04
   Grad. Scal. Fac. for Micro threshold ....   0.100
   Minimum threshold for Micro iter.    ....   1.000e-02
   NR start threshold (gradient norm)   ....   1.000e-04
   Initial trust radius                 ....   0.400
   Minimum AH scaling param. (alpha)    ....   1.000
   Maximum AH scaling param. (alpha)    .... 1000.000
   Quad. conv. algorithm                .... NR
   White noise on init. David. guess    .... on
   Maximum white noise                  ....   0.010
   Pseudo random numbers                .... off
   Inactive MOs                         .... canonical
   Orbital update algorithm             .... Taylor
   Preconditioner                       .... Diag
   Full preconditioner red. dimension   ....   250
   COSX micro iterations for RIJONX calc.... off
 SOSCF                  CNVSOSCF        .... on
   Start iteration      SOSCFMaxIt      ....   150
   Startup grad/error   SOSCFStart      ....  0.003300
   Hessian update       SOSCFHessUp     .... L-BFGS
 Level Shifting         CNVShift        .... on
   Level shift para.    LevelShift      ....    0.2500
   Turn off err/grad.   ShiftErr        ....    0.0010
 Zerner damping         CNVZerner       .... off
 Static damping         CNVDamp         .... on
   Fraction old density DampFac         ....    0.7000
   Max. Damping (<1)    DampMax         ....    0.9800
   Min. Damping (>=0)   DampMin         ....    0.0000
   Turn off err/grad.   DampErr         ....    0.1000

SCF Procedure:
 Maximum # iterations   MaxIter         ....   125
 SCF integral mode      SCFMode         .... Direct
   Integral package                     .... SHARK and LIBINT hybrid scheme
 Reset frequency        DirectResetFreq ....    20
 Integral Threshold     Thresh          ....  1.000e-10 Eh
 Primitive CutOff       TCut            ....  1.000e-11 Eh

Convergence Tolerance:
 Convergence Check Mode ConvCheckMode   .... Total+1el-Energy
 Convergence forced     ConvForced      .... 0
 Energy Change          TolE            ....  1.000e-06 Eh
 1-El. energy change                    ....  1.000e-03 Eh
 Orbital Gradient       TolG            ....  3.330e-04
 Orbital Rotation angle TolX            ....  3.330e-04
 DIIS Error             TolErr          ....  1.000e-06

---------------------
INITIAL GUESS: MOREAD
---------------------
Guess MOs are being read from file: sp_solv.ges
Input Geometry matches current geometry (good)
Atom 0: N(Shells)= 9 and 6 - projection required
Input basis set needs projection
NBasis(read)= 100
NBasis(calc)= 164
Basis set overlap was calculated
Using GuessMode=FMatrix for the initial guess
C*T matrix was formed
Effective Fockian was calculated
Effective Fockian was diagonalized
Initial density was built
                      ------------------
                      INITIAL GUESS DONE (   0.0 sec)
                      ------------------
             **** ENERGY FILE WAS UPDATED (sp_solv.en.tmp) ****
Finished Guess after   0.2 sec
Maximum memory used throughout the entire GUESS-calculation: 11.0 MB

-------------------------------------------------------------------------------------------
                                      ORCA LEAN-SCF
                              memory conserving SCF solver
-------------------------------------------------------------------------------------------

--------------------
CPCM SOLVATION MODEL
--------------------
CPCM parameters:
  Epsilon                                         ...      78.3550
  Refrac                                          ...       1.3328
  Rsolv                                           ...       1.3000
  Surface type                                    ... GAUSSIAN VDW
  Discretization scheme                           ... Constant charge density
    Threshold for H atoms                         ...       5.0000 (charges/Ang^2)
    Threshold for non-H atoms                     ...       5.0000 (charges/Ang^2)
  Epsilon function type                           ...         CPCM
Solvent:                                          ... WATER
SMD-CDS solvent descriptors:
  Soln                                            ...       1.3328
  Soln25                                          ...       1.3323
  Sola                                            ...       0.0000
  Solb                                            ...       0.0000
  Solg                                            ...       0.0000
  Solc                                            ...       0.0000
  Solh                                            ...       0.0000
Radii:
  Scheme                                          ... Element-dependent radii
  Radius for C  used is    3.4960 Bohr (=   1.8500 Ang.)
  Radius for O  used is    2.8724 Bohr (=   1.5200 Ang.)
  Radius for H  used is    2.2677 Bohr (=   1.2000 Ang.)
Calculating surface                               ...        done! (  0.0s)
Cavity surface points                             ...         1100
Cavity Volume                                     ...     645.5243
Cavity Surface-area                               ...     449.7976
Calculating surface distance matrix               ...        done! (  0.0s)
Performing Cholesky decomposition & store         ...        done! (  0.1s)
Overall time for CPCM initialization              ...                 0.1s

----------------------------------------D-I-I-S--------------------------------------------
Iteration    Energy (Eh)           Delta-E    RMSDP     MaxDP     DIISErr   Damp  Time(sec)
-------------------------------------------------------------------------------------------
               ***  Starting incremental Fock matrix formation  ***
    1    -307.4974898361310807     0.00e+00  3.68e-03  1.19e-01  6.26e-01  0.700   1.6
    2    -307.5446274681021350    -4.71e-02  3.07e-03  8.77e-02  4.41e-01  0.700   1.5
    3    -307.5780022203326780    -3.34e-02  2.28e-03  6.19e-02  3.10e-01  0.700   1.5
    4    -307.6014757426173674    -2.35e-02  1.65e-03  4.37e-02  2.17e-01  0.700   1.5
                               ***Turning on AO-DIIS***
    5    -307.6179667434680596    -1.65e-02  1.21e-03  3.15e-02  1.52e-01  0.700   1.4
    6    -307.6295301482679179    -1.16e-02  8.65e-04  2.24e-02  1.06e-01  0.700   1.4
    7    -307.6376525753632905    -8.12e-03  6.12e-04  1.59e-02  7.41e-02  0.700   1.4
    8    -307.6433462013758344    -5.69e-03  1.44e-03  3.70e-02  5.20e-02  0.000   1.4
                              *** Initializing SOSCF ***
---------------------------------------S-O-S-C-F--------------------------------------
Iteration    Energy (Eh)           Delta-E    RMSDP     MaxDP     MaxGrad    Time(sec)
--------------------------------------------------------------------------------------
    9    -307.6566620416459727    -1.33e-02  1.51e-05  3.88e-04  1.91e-04     1.5
               *** Restarting incremental Fock matrix formation ***
   10    -307.6566621635845422    -1.22e-07  8.62e-06  1.81e-04  4.88e-05     1.8
                  *** Gradient check signals convergence ***

               *****************************************************
               *                     SUCCESS                       *
               *           SCF CONVERGED AFTER  10 CYCLES          *
               *****************************************************


SMD CDS free energy correction energy :                 4.69251     Kcal/mol
Total Energy after SMD CDS correction =              -307.649184179 Eh
             **** ENERGY FILE WAS UPDATED (sp_solv.en.tmp) ****

----------------
TOTAL SCF ENERGY
----------------

Total Energy       :       -307.64918417878533 Eh           -8371.55990 eV

Components:
Nuclear Repulsion  :        244.26109166574273 Eh            6646.68222 eV
Electronic Energy  :       -551.90163329202937 Eh          -15018.00694 eV
One Electron Energy:       -902.12907478222655 Eh          -24548.18013 eV
Two Electron Energy:        350.22744149019724 Eh            9530.17319 eV
CPCM Dielectric    :         -0.01612053729783 Eh              -0.43866 eV
SMD CDS (Gcds)     :          0.00747798479922 Eh               0.20349 eV

Virial components:
Potential Energy   :       -614.06555821474808 Eh          -16709.57334 eV
Kinetic Energy     :        306.41637403596280 Eh            8338.01343 eV
Virial Ratio       :          2.00402331679141

DFT components:
N(Alpha)           :       24.000003603031 electrons
N(Beta)            :       24.000003603031 electrons
N(Total)           :       48.000007206061 electrons
E(X)               :      -40.239872769792 Eh       
E(C)               :       -1.538332427482 Eh       
E(XC)              :      -41.778205197274 Eh       

CPCM Solvation Model Properties:
Surface-charge          :         -0.04033992552011
Corrected charge        :         -0.00000000000000
Outlying charge corr.   :          0.00013800127189 Eh               0.00376 eV
Free-energy (cav+disp)  :          0.00747798479922 Eh               0.20349 eV

---------------
SCF CONVERGENCE
---------------

  Last Energy change         ...    1.2194e-07  Tolerance :   1.0000e-06
  Last MAX-Density change    ...    1.8106e-04  Tolerance :   1.0000e-05
  Last RMS-Density change    ...    8.6225e-06  Tolerance :   1.0000e-06
  Last DIIS Error            ...    1.9096e-04  Tolerance :   1.0000e-06
  Last Orbital Gradient      ...    4.8769e-05  Tolerance :   3.3300e-04
  Last Orbital Rotation      ...    1.1061e-04  Tolerance :   3.3300e-04


----------------
ORBITAL ENERGIES
----------------

  NO   OCC          E(Eh)            E(eV) 
   0   2.0000     -19.001581      -517.0593 
   1   2.0000     -18.943325      -515.4741 
   2   2.0000     -10.165437      -276.6156 
   3   2.0000     -10.083225      -274.3785 
   4   2.0000     -10.030305      -272.9385 
   5   2.0000     -10.018616      -272.6204 
   6   2.0000      -1.078480       -29.3469 
   7   2.0000      -0.988303       -26.8931 
   8   2.0000      -0.751557       -20.4509 
   9   2.0000      -0.700074       -19.0500 
  10   2.0000      -0.606959       -16.5162 
  11   2.0000      -0.532755       -14.4970 
  12   2.0000      -0.466657       -12.6984 
  13   2.0000      -0.461605       -12.5609 
  14   2.0000      -0.443302       -12.0629 
  15   2.0000      -0.409457       -11.1419 
  16   2.0000      -0.379733       -10.3330 
  17   2.0000      -0.364811        -9.9270 
  18   2.0000      -0.359960        -9.7950 
  19   2.0000      -0.347859        -9.4657 
  20   2.0000      -0.328437        -8.9372 
  21   2.0000      -0.311050        -8.4641 
  22   2.0000      -0.277027        -7.5383 
  23   2.0000      -0.252054        -6.8587 
  24   0.0000      -0.020624        -0.5612 
  25   0.0000       0.082078         2.2334 
  26   0.0000       0.104482         2.8431 
  27   0.0000       0.127920         3.4809 
  28   0.0000       0.140743         3.8298 
  29   0.0000       0.152106         4.1390 
  30   0.0000       0.163751         4.4559 
  31   0.0000       0.174663         4.7528 
  32   0.0000       0.180875         4.9219 
  33   0.0000       0.188914         5.1406 
  34   0.0000       0.199851         5.4382 
*Only the first 10 virtual orbitals were printed.

                    ********************************
                    * MULLIKEN POPULATION ANALYSIS *
                    ********************************

-----------------------
MULLIKEN ATOMIC CHARGES
-----------------------
   0 C :   -0.486335
   1 C :   -0.142817
   2 O :   -0.184837
   3 C :    0.470534
   4 O :   -0.522352
   5 C :   -0.554128
   6 H :    0.168212
   7 H :    0.164943
   8 H :    0.164248
   9 H :    0.170320
  10 H :    0.173908
  11 H :    0.185465
  12 H :    0.194281
  13 H :    0.198560
Sum of atomic charges:   -0.0000000

--------------------------------
MULLIKEN REDUCED ORBITAL CHARGES
--------------------------------
  0 C s       :     3.333659  s :     3.333659
      pz      :     1.095639  p :     3.127056
      px      :     1.004870
      py      :     1.026547
      dz2     :     0.005010  d :     0.025620
      dxz     :     0.001831
      dyz     :     0.008046
      dx2y2   :     0.003109
      dxy     :     0.007625

  1 C s       :     3.283738  s :     3.283738
      pz      :     1.117141  p :     2.805827
      px      :     0.744304
      py      :     0.944381
      dz2     :     0.007668  d :     0.053252
      dxz     :     0.007523
      dyz     :     0.011745
      dx2y2   :     0.010985
      dxy     :     0.015332

  2 O s       :     3.699814  s :     3.699814
      pz      :     1.715679  p :     4.447123
      px      :     1.090421
      py      :     1.641023
      dz2     :     0.001908  d :     0.037901
      dxz     :     0.004851
      dyz     :     0.010496
      dx2y2   :     0.002186
      dxy     :     0.018460

  3 C s       :     3.104119  s :     3.104119
      pz      :     0.737320  p :     2.300083
      px      :     0.798120
      py      :     0.764642
      dz2     :     0.011854  d :     0.125264
      dxz     :     0.016639
      dyz     :     0.020289
      dx2y2   :     0.029324
      dxy     :     0.047158

  4 O s       :     3.833282  s :     3.833282
      pz      :     1.484951  p :     4.666604
      px      :     1.832824
      py      :     1.348829
      dz2     :     0.004362  d :     0.022466
      dxz     :     0.001137
      dyz     :     0.006456
      dx2y2   :     0.007591
      dxy     :     0.002920

  5 C s       :     3.368557  s :     3.368557
      pz      :     1.113063  p :     3.161347
      px      :     0.993970
      py      :     1.054314
      dz2     :     0.006059  d :     0.024225
      dxz     :     0.002509
      dyz     :     0.003524
      dx2y2   :     0.003967
      dxy     :     0.008165

  6 H s       :     0.813298  s :     0.813298
      pz      :     0.003727  p :     0.018490
      px      :     0.009403
      py      :     0.005361

  7 H s       :     0.816766  s :     0.816766
      pz      :     0.009153  p :     0.018291
      px      :     0.003598
      py      :     0.005540

  8 H s       :     0.817420  s :     0.817420
      pz      :     0.007792  p :     0.018333
      px      :     0.003562
      py      :     0.006979

  9 H s       :     0.812229  s :     0.812229
      pz      :     0.009347  p :     0.017451
      px      :     0.002629
      py      :     0.005475

 10 H s       :     0.808110  s :     0.808110
      pz      :     0.008154  p :     0.017982
      px      :     0.002725
      py      :     0.007102

 11 H s       :     0.796392  s :     0.796392
      pz      :     0.004412  p :     0.018143
      px      :     0.009116
      py      :     0.004615

 12 H s       :     0.787124  s :     0.787124
      pz      :     0.005539  p :     0.018595
      px      :     0.003572
      py      :     0.009484

 13 H s       :     0.782770  s :     0.782770
      pz      :     0.010956  p :     0.018670
      px      :     0.003586
      py      :     0.004128


------------------------
MULLIKEN OVERLAP CHARGES
------------------------
B(  0-C ,  1-C ) :   0.4602 B(  0-C ,  2-O ) :  -0.0758 B(  0-C ,  6-H ) :   0.8152 
B(  0-C ,  7-H ) :   0.8439 B(  0-C ,  8-H ) :   0.8111 B(  0-C , 10-H ) :  -0.0626 
B(  1-C ,  2-O ) :   0.2610 B(  1-C ,  3-C ) :  -0.1902 B(  1-C ,  6-H ) :  -0.0696 
B(  1-C ,  7-H ) :  -0.0858 B(  1-C ,  9-H ) :   0.7635 B(  1-C , 10-H ) :   0.8595 
B(  2-O ,  3-C ) :   0.4115 B(  2-O ,  4-O ) :  -0.2171 B(  2-O ,  5-C ) :  -0.0515 
B(  2-O ,  9-H ) :  -0.0724 B(  2-O , 10-H ) :  -0.0702 B(  3-C ,  4-O ) :   0.9716 
B(  3-C ,  5-C ) :   0.5439 B(  3-C , 11-H ) :  -0.1142 B(  4-O ,  5-C ) :  -0.1110 
B(  5-C , 11-H ) :   0.8684 B(  5-C , 12-H ) :   0.7902 B(  5-C , 13-H ) :   0.7785 
B(  9-H , 10-H ) :  -0.0587 


                     *******************************
                     * LOEWDIN POPULATION ANALYSIS *
                     *******************************

----------------------
LOEWDIN ATOMIC CHARGES
----------------------
   0 C :   -0.390383
   1 C :    0.036090
   2 O :   -0.600746
   3 C :    0.364167
   4 O :   -0.498201
   5 C :   -0.334871
   6 H :    0.168062
   7 H :    0.161671
   8 H :    0.162147
   9 H :    0.183612
  10 H :    0.189893
  11 H :    0.178255
  12 H :    0.188959
  13 H :    0.191345

-------------------------------
LOEWDIN REDUCED ORBITAL CHARGES
-------------------------------
  0 C s       :     2.972815  s :     2.972815
      pz      :     1.156603  p :     3.357508
      px      :     1.082122
      py      :     1.118783
      dz2     :     0.011995  d :     0.060060
      dxz     :     0.003209
      dyz     :     0.019824
      dx2y2   :     0.006840
      dxy     :     0.018193

  1 C s       :     2.869580  s :     2.869580
      pz      :     1.107107  p :     2.975071
      px      :     0.862427
      py      :     1.005537
      dz2     :     0.017338  d :     0.119259
      dxz     :     0.014340
      dyz     :     0.028458
      dx2y2   :     0.022802
      dxy     :     0.036321

  2 O s       :     3.462973  s :     3.462973
      pz      :     1.697484  p :     4.664317
      px      :     1.319549
      py      :     1.647284
      dz2     :     0.054756  d :     0.473455
      dxz     :     0.091792
      dyz     :     0.056044
      dx2y2   :     0.140153
      dxy     :     0.130710

  3 C s       :     2.740036  s :     2.740036
      pz      :     0.724224  p :     2.623840
      px      :     0.926527
      py      :     0.973089
      dz2     :     0.025328  d :     0.271957
      dxz     :     0.033535
      dyz     :     0.041966
      dx2y2   :     0.066112
      dxy     :     0.105016

  4 O s       :     3.548220  s :     3.548220
      pz      :     1.478470  p :     4.734804
      px      :     1.762134
      py      :     1.494201
      dz2     :     0.028229  d :     0.215177
      dxz     :     0.013301
      dyz     :     0.047214
      dx2y2   :     0.061538
      dxy     :     0.064895

  5 C s       :     2.957952  s :     2.957952
      pz      :     1.153475  p :     3.321248
      px      :     1.065405
      py      :     1.102368
      dz2     :     0.014127  d :     0.055671
      dxz     :     0.005492
      dyz     :     0.008595
      dx2y2   :     0.009746
      dxy     :     0.017712

  6 H s       :     0.787558  s :     0.787558
      pz      :     0.008263  p :     0.044380
      px      :     0.023065
      py      :     0.013052

  7 H s       :     0.794519  s :     0.794519
      pz      :     0.022753  p :     0.043810
      px      :     0.008032
      py      :     0.013025

  8 H s       :     0.794016  s :     0.794016
      pz      :     0.019378  p :     0.043837
      px      :     0.007707
      py      :     0.016752

  9 H s       :     0.775407  s :     0.775407
      pz      :     0.022891  p :     0.040981
      px      :     0.005810
      py      :     0.012280

 10 H s       :     0.767027  s :     0.767027
      pz      :     0.019879  p :     0.043080
      px      :     0.006745
      py      :     0.016456

 11 H s       :     0.777699  s :     0.777699
      pz      :     0.010509  p :     0.044046
      px      :     0.022277
      py      :     0.011260

 12 H s       :     0.765847  s :     0.765847
      pz      :     0.013323  p :     0.045194
      px      :     0.008169
      py      :     0.023702

 13 H s       :     0.763307  s :     0.763307
      pz      :     0.027993  p :     0.045348
      px      :     0.007860
      py      :     0.009494


---------------------------------
LOEWDIN BOND ORDERS (THRESH 0.050000)
---------------------------------
B(  0-C ,  1-C ) :   1.0905 B(  0-C ,  2-O ) :   0.1698 B(  0-C ,  6-H ) :   0.9155 
B(  0-C ,  7-H ) :   0.9232 B(  0-C ,  8-H ) :   0.9206 B(  1-C ,  2-O ) :   1.2908 
B(  1-C ,  3-C ) :   0.0874 B(  1-C ,  4-O ) :   0.0722 B(  1-C ,  9-H ) :   0.8279 
B(  1-C , 10-H ) :   0.8138 B(  2-O ,  3-C ) :   1.4693 B(  2-O ,  4-O ) :   0.4556 
B(  2-O ,  5-C ) :   0.1871 B(  2-O ,  9-H ) :   0.0949 B(  2-O , 10-H ) :   0.0913 
B(  3-C ,  4-O ) :   2.1434 B(  3-C ,  5-C ) :   0.9832 B(  4-O ,  5-C ) :   0.1853 
B(  5-C , 11-H ) :   0.9060 B(  5-C , 12-H ) :   0.8925 B(  5-C , 13-H ) :   0.8903 


------------------------------------------
LOEWDIN REDUCED ORBITAL POPULATIONS PER MO
-------------------------------------------
THRESHOLD FOR PRINTING IS 0.1%%
                      0         1         2         3         4         5   
                 -19.00158 -18.94332 -10.16544 -10.08322 -10.03030 -10.01862
                   2.00000   2.00000   2.00000   2.00000   2.00000   2.00000
                  --------  --------  --------  --------  --------  --------
 0 C  s               0.0       0.0       0.0       0.0       0.0      99.7
 1 C  s               0.0       0.0       0.0      99.4       0.0       0.0
 2 O  s              99.9       0.0       0.0       0.0       0.0       0.0
 2 O  px              0.0       0.0       0.1       0.1       0.0       0.0
 2 O  dxy             0.0       0.0       0.1       0.2       0.0       0.0
 3 C  s               0.0       0.0      98.9       0.0       0.0       0.0
 4 O  s               0.0      99.9       0.0       0.0       0.0       0.0
 4 O  py              0.0       0.0       0.2       0.0       0.0       0.0
 4 O  dx2y2           0.0       0.0       0.2       0.0       0.0       0.0
 5 C  s               0.0       0.0       0.0       0.0      99.7       0.0

                      6         7         8         9        10        11   
                  -1.07848  -0.98830  -0.75156  -0.70007  -0.60696  -0.53276
                   2.00000   2.00000   2.00000   2.00000   2.00000   2.00000
                  --------  --------  --------  --------  --------  --------
 0 C  s               0.3       0.2      13.6      14.4      17.8       0.9
 0 C  pz              0.0       0.0       0.1       0.0       0.2       0.0
 0 C  px              0.5       0.3       1.3       0.1       3.0       0.0
 0 C  py              0.1       0.0       0.7       0.2       1.1       5.5
 1 C  s               4.0       2.0      17.7       4.8       5.5       7.6
 1 C  pz              0.0       0.0       0.0       0.1       0.6       0.3
 1 C  px              4.4       1.1       1.2       3.9       5.9       2.2
 1 C  py              0.8       0.9       0.9       0.3       1.4      18.3
 1 C  dz2             0.1       0.1       0.0       0.0       0.0       0.2
 1 C  dxy             0.2       0.1       0.0       0.2       0.4       0.3
 2 O  s              39.4      18.8       0.1       1.8       0.0       6.0
 2 O  pz              0.3       0.1       0.0       0.0       0.4       1.0
 2 O  px              0.6       0.7      17.3       0.0      18.9      11.9
 2 O  py              1.9       0.3       0.5       0.2       0.6       8.2
 2 O  dz2             0.4       0.0       0.1       0.7       0.0       0.2
 2 O  dxz             0.1       0.1       0.1       0.0       0.0       0.0
 2 O  dyz             0.1       0.2       0.0       0.0       0.0       0.0
 2 O  dx2y2           0.1       0.1       0.0       2.0       0.1       0.0
 2 O  dxy             0.2       0.9       0.6       0.2       1.4       0.7
 3 C  s              17.1       3.1       4.6       2.4       1.6       3.2
 3 C  pz              0.0       2.7       0.7       0.1       0.2       0.2
 3 C  px              4.4       4.3       1.5       8.0       3.3       1.6
 3 C  py              0.4      16.6       6.8       3.3       0.7       0.5
 3 C  dz2             0.4       0.0       0.0       0.0       0.0       0.0
 3 C  dxz             0.1       0.0       0.0       0.0       0.0       0.0
 3 C  dyz             0.3       0.3       0.0       0.0       0.0       0.0
 3 C  dx2y2           0.0       1.5       0.1       0.0       0.0       0.0
 3 C  dxy             0.3       0.1       0.0       0.3       0.2       0.0
 4 O  s              14.6      40.8       1.7       0.6       0.1       2.7
 4 O  pz              0.4       0.3       0.1       0.0       0.0       0.5
 4 O  px              0.1       0.0       0.1       0.4       0.2       1.6
 4 O  py              2.8       2.8       0.6       0.4       0.2       2.5
 4 O  dz2             0.2       0.0       0.0       0.1       0.0       0.1
 4 O  dyz             0.4       0.0       0.2       0.0       0.0       0.1
 4 O  dx2y2           0.4       0.1       0.6       0.1       0.2       0.0
 4 O  dxy             0.4       0.2       0.0       0.5       0.1       0.2
 5 C  s               1.1       0.1       9.9      26.8       5.9       0.8
 5 C  px              1.4       0.0       0.9       0.1       1.8       1.5
 5 C  py              0.6       0.4       0.1       0.1       0.1       0.3
 6 H  s               0.0       0.0       2.0       2.8       6.0       0.0
 6 H  px              0.0       0.0       0.1       0.2       0.3       0.0
 6 H  py              0.0       0.0       0.0       0.1       0.2       0.0
 7 H  s               0.0       0.0       2.0       2.6       5.4       1.0
 7 H  pz              0.0       0.0       0.1       0.2       0.3       0.1
 8 H  s               0.0       0.0       2.0       2.6       5.1       1.4
 8 H  pz              0.0       0.0       0.1       0.1       0.3       0.1
 8 H  py              0.0       0.0       0.1       0.1       0.2       0.0
 9 H  s               0.2       0.1       2.7       0.9       2.1       6.1
 9 H  pz              0.0       0.0       0.2       0.1       0.1       0.4
10 H  s               0.3       0.1       2.5       0.8       1.5       9.0
10 H  pz              0.0       0.0       0.1       0.0       0.1       0.4
10 H  py              0.0       0.0       0.1       0.0       0.1       0.1
11 H  s               0.1       0.0       1.3       5.3       2.4       0.8
11 H  px              0.0       0.0       0.1       0.3       0.1       0.0
12 H  s               0.1       0.0       1.7       5.2       1.5       0.4
12 H  pz              0.0       0.0       0.0       0.1       0.0       0.0
12 H  py              0.0       0.0       0.1       0.4       0.1       0.0
13 H  s               0.1       0.0       1.7       5.3       1.7       0.4
13 H  pz              0.0       0.0       0.1       0.4       0.1       0.0

                     12        13        14        15        16        17   
                  -0.46666  -0.46160  -0.44330  -0.40946  -0.37973  -0.36481
                   2.00000   2.00000   2.00000   2.00000   2.00000   2.00000
                  --------  --------  --------  --------  --------  --------
 0 C  s               0.0       0.1       0.5       0.0       0.1       0.1
 0 C  pz              3.4       2.0       0.1      13.9       1.0       0.0
 0 C  px              0.0       1.5       2.7       1.4      10.2       1.7
 0 C  py              0.0       0.2       2.8       0.1       0.4      30.7
 0 C  dz2             0.0       0.0       0.0       0.0       0.0       0.3
 0 C  dxy             0.0       0.0       0.1       0.0       0.1       0.0
 1 C  s               0.1       0.1       0.9       0.0       0.1       0.0
 1 C  pz             12.5       8.1       0.1      14.2       0.0       0.3
 1 C  px              0.2       0.9       4.5       0.2       1.5       7.8
 1 C  py              0.6       2.3       0.0       0.0       2.9       1.3
 1 C  dx2y2           0.0       0.0       0.1       0.0       0.1       0.0
 2 O  s               0.1       0.2       1.0       0.0       0.6       2.2
 2 O  pz             12.9      13.8       0.4       0.1       0.3       0.0
 2 O  px              0.7       4.5       0.5       0.1       0.1       0.1
 2 O  py              0.2       0.0      21.3       0.1       1.6       9.9
 2 O  dz2             0.2       0.1       0.0       0.0       0.2       0.2
 2 O  dxz             0.2       0.0       0.1       2.8       0.0       0.0
 2 O  dyz             0.4       0.2       0.0       0.0       0.0       0.1
 2 O  dx2y2           0.6       0.2       0.8       0.1       0.5       0.1
 2 O  dxy             0.3       0.2       0.6       0.1       0.0       0.1
 3 C  s               2.5       2.0       0.3       0.1       0.1       0.4
 3 C  pz              3.9       9.9       2.2       8.7       0.3       0.4
 3 C  px              8.6       1.8       3.7       2.1       0.8       0.9
 3 C  py              0.5       0.9       8.9       0.4       1.9       3.3
 3 C  dxz             0.0       0.1       0.0       0.0       0.1       0.0
 3 C  dx2y2           0.0       0.0       0.1       0.0       0.6       0.1
 3 C  dxy             0.0       0.0       0.1       0.0       0.1       0.3
 4 O  s               3.3       7.3       4.5       0.2       0.5       0.6
 4 O  pz              5.4       0.2       7.8       4.4       1.5       0.4
 4 O  px              5.0       0.3       4.7       1.6       2.5       0.1
 4 O  py              7.8      24.0       7.6       3.3       4.0       5.7
 4 O  dz2             0.1       0.4       0.1       0.1       0.1       0.0
 4 O  dyz             0.4       0.1       0.2       0.4       0.0       0.0
 4 O  dx2y2           0.2       0.3       0.2       0.1       0.1       0.0
 4 O  dxy             0.5       0.0       0.2       0.1       0.2       0.0
 5 C  s               1.5       0.3       0.8       0.1       0.0       0.1
 5 C  pz              0.3       5.5       2.3      13.4       9.8       2.0
 5 C  px              2.6       0.3      10.1       0.2       9.2       6.5
 5 C  py             10.7       2.8       0.5       6.1      17.7       0.2
 5 C  dz2             0.0       0.1       0.1       0.0       0.2       0.0
 5 C  dx2y2           0.0       0.0       0.0       0.0       0.1       0.0
 5 C  dxy             0.2       0.0       0.1       0.1       0.0       0.1
 6 H  s               0.1       0.6       0.5       0.2       5.0       7.3
 6 H  px              0.0       0.0       0.0       0.0       0.0       0.3
 7 H  s               0.8       0.5       0.9       3.4       0.0       5.2
 7 H  pz              0.0       0.0       0.0       0.0       0.0       0.2
 8 H  s               0.4       0.3       0.9       3.5       0.3       6.3
 8 H  pz              0.0       0.0       0.0       0.0       0.0       0.2
 8 H  py              0.0       0.0       0.0       0.1       0.0       0.0
 9 H  s               2.4       3.4       0.4       4.0       0.1       0.4
 9 H  px              0.0       0.0       0.0       0.0       0.0       0.1
 9 H  py              0.1       0.0       0.0       0.1       0.0       0.0
10 H  s               3.1       0.3       0.4       3.0       0.2       0.4
10 H  py              0.1       0.1       0.0       0.1       0.0       0.0
11 H  s               0.6       0.0       2.3       0.3      14.3       1.2
11 H  px              0.0       0.0       0.0       0.0       0.3       0.0
11 H  py              0.1       0.0       0.1       0.1       0.0       0.0
12 H  s               4.9       0.2       0.0       6.4       3.1       0.3
12 H  pz              0.1       0.0       0.0       0.0       0.2       0.0
12 H  py              0.1       0.0       0.0       0.2       0.0       0.0
13 H  s               0.9       3.3       2.8       3.0       6.1       1.5
13 H  pz              0.1       0.1       0.1       0.0       0.1       0.0
13 H  py              0.0       0.0       0.0       0.1       0.0       0.0

                     18        19        20        21        22        23   
                  -0.35996  -0.34786  -0.32844  -0.31105  -0.27703  -0.25205
                   2.00000   2.00000   2.00000   2.00000   2.00000   2.00000
                  --------  --------  --------  --------  --------  --------
 0 C  s               0.0       0.1       0.1       0.5       0.1       0.0
 0 C  pz             15.1       2.3      13.3       4.2       2.0       0.2
 0 C  px              7.6      18.8       0.4       3.3       0.8       0.3
 0 C  py              1.4       0.1       4.0       8.0       0.5       0.1
 0 C  dz2             0.0       0.0       0.1       0.0       0.0       0.0
 0 C  dyz             0.1       0.1       0.3       0.3       0.2       0.0
 0 C  dxy             0.2       0.2       0.0       0.0       0.0       0.0
 1 C  s               0.1       0.1       0.2       0.5       0.0       0.2
 1 C  pz              0.0       0.0       5.3       4.7       8.6       0.6
 1 C  px              1.9       6.2       0.1       0.7       0.1       0.5
 1 C  py              1.1       1.1       3.9      13.4       0.7       0.2
 1 C  dz2             0.0       0.0       0.2       0.1       0.0       0.0
 1 C  dxz             0.2       0.0       0.0       0.1       0.3       0.0
 1 C  dyz             0.0       0.0       0.1       0.4       0.8       0.0
 1 C  dx2y2           0.0       0.1       0.2       0.5       0.0       0.0
 1 C  dxy             0.1       0.2       0.0       0.1       0.1       0.0
 2 O  s               0.2       0.0       0.5       2.1       0.0       0.3
 2 O  pz              8.4       3.1       3.6       0.3      40.0       0.0
 2 O  px              1.8       4.6       0.9       0.1       0.3       2.9
 2 O  py              0.0       1.3       4.7      23.6       2.7       5.2
 2 O  dz2             0.0       0.1       0.2       0.0       0.0       0.1
 2 O  dxz             0.0       0.1       0.2       0.2       0.3       0.2
 2 O  dyz             0.1       0.1       0.0       0.3       1.1       0.0
 2 O  dx2y2           0.2       0.0       0.3       1.8       0.1       0.1
 2 O  dxy             0.2       0.3       0.1       0.0       0.1       0.2
 3 C  s               0.0       0.1       0.1       0.3       0.0       0.3
 3 C  pz              0.3       2.1       4.2       0.2       0.0       0.0
 3 C  px              1.4       1.5       0.3       0.6       0.0       1.2
 3 C  py              0.5       1.2       0.4       1.8       0.0       0.6
 3 C  dz2             0.0       0.0       0.2       0.0       0.5       0.0
 3 C  dxz             0.1       0.2       0.0       0.0       0.3       0.6
 3 C  dyz             0.0       0.1       0.6       0.0       0.6       0.0
 3 C  dx2y2           0.2       0.1       0.0       0.4       0.0       0.2
 3 C  dxy             0.1       0.1       0.0       0.2       0.4       3.1
 4 O  s               0.1       0.0       0.1       0.3       0.0       0.0
 4 O  pz              2.1       9.4      16.6       5.6      17.9       1.3
 4 O  px              0.5       0.2       0.3       0.1       2.8      67.6
 4 O  py              0.4       0.2       7.0       1.5       2.0       1.6
 4 O  dyz             0.0       0.0       0.1       0.0       0.1       0.0
 4 O  dx2y2           0.0       0.0       0.0       0.4       0.0       0.1
 4 O  dxy             0.0       0.0       0.0       0.1       0.1       0.7
 5 C  s               0.0       0.0       0.1       0.1       0.0       0.6
 5 C  pz              6.2      13.4       4.0       0.1       0.4       0.4
 5 C  px              8.0       5.9       2.0       0.7       0.1       1.9
 5 C  py              9.3       0.3       0.1       0.3       0.0       5.5
 5 C  dz2             0.0       0.1       0.1       0.0       0.0       0.0
 5 C  dyz             0.2       0.1       0.1       0.0       0.0       0.0
 5 C  dx2y2           0.2       0.0       0.0       0.0       0.0       0.1
 5 C  dxy             0.0       0.1       0.0       0.0       0.0       0.0
 6 H  s               5.4       7.8       1.1       0.0       0.1       0.4
 6 H  pz              0.1       0.0       0.1       0.0       0.0       0.0
 6 H  py              0.0       0.1       0.0       0.1       0.0       0.0
 7 H  s               2.7       2.3      10.5       0.6       1.8       0.0
 7 H  px              0.1       0.1       0.0       0.0       0.0       0.0
 7 H  py              0.1       0.0       0.0       0.1       0.0       0.0
 8 H  s               6.0       0.7       1.4       7.6       0.8       0.3
 8 H  px              0.1       0.1       0.0       0.0       0.0       0.0
 8 H  py              0.1       0.0       0.1       0.0       0.0       0.0
 9 H  s               0.0       0.0       6.5       0.0       9.2       0.1
 9 H  py              0.0       0.0       0.0       0.2       0.0       0.0
10 H  s               0.0       0.1       0.1      12.6       3.7       0.2
10 H  pz              0.0       0.0       0.0       0.2       0.0       0.0
11 H  s               4.3       5.4       0.2       0.2       0.0       0.2
11 H  pz              0.2       0.0       0.0       0.0       0.0       0.0
12 H  s               9.6       1.9       1.8       0.1       0.0       0.9
12 H  py              0.2       0.0       0.1       0.0       0.0       0.0
13 H  s               2.3       6.0       2.5       0.1       0.1       0.5
13 H  py              0.1       0.0       0.0       0.0       0.0       0.1

                     24        25        26        27        28        29   
                  -0.02062   0.08208   0.10448   0.12792   0.14074   0.15211
                   0.00000   0.00000   0.00000   0.00000   0.00000   0.00000
                  --------  --------  --------  --------  --------  --------
 0 C  s               0.1       1.9       6.6      29.6       3.8       0.7
 0 C  pz              0.0       0.1       0.1       0.1       0.8       1.7
 0 C  px              0.1       1.0       1.2       6.6       6.1       3.2
 0 C  py              0.0       0.3       1.3       0.6      12.4       2.2
 0 C  dz2             0.0       0.0       0.3       0.0       0.1       0.0
 0 C  dxz             0.0       0.0       0.1       0.0       0.0       0.1
 0 C  dyz             0.0       0.0       0.0       0.0       0.2       0.2
 0 C  dx2y2           0.0       0.5       0.8       0.1       0.2       0.1
 0 C  dxy             0.0       0.3       0.1       0.0       1.1       0.1
 1 C  s               0.0       4.0      11.8       2.2       9.2       0.2
 1 C  pz              0.0       0.1       0.3       0.1       2.2       5.7
 1 C  px              0.0      11.1      16.3       2.2       6.7       0.4
 1 C  py              0.0       5.1       8.8       9.0       6.4       3.9
 1 C  dz2             0.0       0.7       0.3       1.2       0.0       0.0
 1 C  dxz             0.1       0.0       0.0       0.1       0.0       0.0
 1 C  dyz             0.2       0.0       0.0       0.1       0.2       0.5
 1 C  dx2y2           0.0       0.3       0.3       0.1       0.4       0.2
 1 C  dxy             0.0       0.7       1.6       0.1       0.6       0.1
 2 O  s               0.0       7.0       3.8       1.2       0.2       0.3
 2 O  pz              8.9       0.2       0.1       0.1       0.1       0.3
 2 O  px              0.1       0.3       4.3       0.5       0.4       0.5
 2 O  py              1.0       1.1       3.7       0.2       0.5       1.7
 2 O  dz2             0.7       3.5       2.6       0.4       0.0       0.2
 2 O  dxz             4.0       0.0       0.1       0.2       0.0       1.1
 2 O  dyz             0.5       0.3       0.2       0.3       0.1       0.1
 2 O  dx2y2           0.0       0.7       1.0       1.1       0.1       4.4
 2 O  dxy             0.5       0.3       5.8       0.0       0.9       1.5
 3 C  s               0.0      15.4       1.5       2.0       0.4       5.9
 3 C  pz             37.3       0.1       0.6       0.5       0.7       1.7
 3 C  px              0.6       0.8       0.2       2.6       2.2       1.9
 3 C  py              4.4       0.5       1.3       1.8       2.7       4.3
 3 C  dz2             0.1       1.5       0.0       0.0       0.0       0.5
 3 C  dxz             0.3       0.1       0.0       0.0       0.0       0.0
 3 C  dyz             0.5       0.6       0.3       0.1       0.0       0.2
 3 C  dx2y2           0.1       0.0       1.2       0.3       0.0       0.0
 3 C  dxy             0.0       0.0       0.0       0.0       0.0       0.2
 4 O  s               0.0       2.9       0.8       1.0       0.1       0.8
 4 O  pz             19.8       0.1       0.1       0.1       0.1       0.1
 4 O  px              0.4       0.4       0.1       0.3       1.6       0.2
 4 O  py              2.3       0.4       0.6       0.5       0.4       0.2
 4 O  dz2             2.1       1.6       0.2       0.1       0.0       0.2
 4 O  dxz             0.1       0.1       0.2       0.2       0.1       0.8
 4 O  dyz             4.9       0.8       0.1       0.3       0.0       0.2
 4 O  dx2y2           0.7       0.1       0.2       0.1       0.0       1.3
 4 O  dxy             0.1       0.2       0.3       0.3       0.3       0.1
 5 C  s               0.0      18.9       0.4       6.3      13.8       1.0
 5 C  pz              0.1       0.0       0.2       0.3       0.0       0.2
 5 C  px              0.0       0.2       0.5       0.3       1.1      27.0
 5 C  py              0.0       0.2       1.3       1.3       1.7       6.2
 5 C  dz2             0.4       0.0       0.3       0.3       0.1       0.5
 5 C  dxz             0.5       0.0       0.1       0.0       0.0       0.2
 5 C  dyz             0.8       0.0       0.1       0.0       0.1       0.0
 5 C  dx2y2           0.2       0.0       0.5       0.3       0.0       0.0
 5 C  dxy             0.0       0.0       0.0       0.0       0.2       2.9
 6 H  s               0.0       2.1       0.8       2.3       1.0       0.1
 6 H  px              0.0       0.2       0.0       1.8       0.0       0.0
 6 H  py              0.0       0.0       0.8       0.3       0.1       0.1
 7 H  s               0.0       0.3       2.4       2.9       0.8       0.0
 7 H  pz              0.0       0.1       0.5       1.6       0.4       0.0
 7 H  px              0.0       0.1       0.1       0.0       0.2       0.1
 7 H  py              0.0       0.0       0.1       0.2       0.7       0.0
 8 H  s               0.0       0.2       2.2       2.9       0.1       1.4
 8 H  pz              0.0       0.1       0.4       1.4       0.0       0.5
 8 H  px              0.0       0.1       0.0       0.0       0.3       0.1
 8 H  py              0.0       0.0       0.2       0.5       0.3       0.1
 9 H  s               0.7       1.5       1.1       1.1       3.6       0.6
 9 H  pz              0.0       0.8       0.2       0.6       1.7       0.2
 9 H  px              0.0       0.3       0.9       0.1       0.3       0.0
 9 H  py              0.0       0.0       0.4       0.3       0.9       0.1
10 H  s               0.2       1.2       1.6       1.4       0.7       2.9
10 H  pz              0.0       0.6       0.4       0.8       0.3       0.4
10 H  px              0.0       0.5       0.6       0.0       0.3       0.0
10 H  py              0.0       0.0       0.7       0.1       0.4       0.6
11 H  s               0.0       1.4       1.9       0.4       1.2       2.6
11 H  pz              0.0       0.1       0.0       0.1       0.1       0.1
11 H  px              0.0       0.5       0.3       0.0       0.4       0.1
11 H  py              0.0       0.1       0.0       0.2       0.5       0.8
12 H  s               2.9       1.8       0.9       2.0       2.7       0.1
12 H  pz              0.0       0.3       0.2       0.4       0.5       0.0
12 H  px              0.0       0.1       0.0       0.0       0.3       1.1
12 H  py              0.1       0.4       0.0       0.3       0.8       0.1
13 H  s               3.6       2.1       0.7       2.2       1.8       0.3
13 H  pz              0.1       0.8       0.1       0.8       1.0       0.1
13 H  px              0.0       0.0       0.0       0.0       0.0       1.1
13 H  py              0.1       0.0       0.1       0.0       0.0       0.1

                     30        31        32        33        34        35   
                   0.16375   0.17466   0.18088   0.18891   0.19985   0.20415
                   0.00000   0.00000   0.00000   0.00000   0.00000   0.00000
                  --------  --------  --------  --------  --------  --------
 0 C  s               0.5       0.4       0.4       0.8       0.2       0.1
 0 C  pz              8.1       1.2       0.8       0.9       1.7      12.1
 0 C  px              2.1      20.0       7.9       2.1       2.6       6.4
 0 C  py              0.3       1.4       5.2      15.2       0.2       4.6
 0 C  dz2             0.2       0.1       1.3       1.6       0.0       0.0
 0 C  dxz             0.1       0.0       0.2       0.0       0.3       0.2
 0 C  dyz             0.8       0.0       0.0       0.0       0.0       3.0
 0 C  dx2y2           0.0       0.0       0.3       0.1       0.0       0.5
 0 C  dxy             0.1       2.5       0.2       0.2       0.0       0.0
 1 C  s               0.2       0.9       0.2       3.1       0.2       0.2
 1 C  pz             20.3       3.0       0.4       0.2       1.4       1.4
 1 C  px              0.5       4.5       1.6       1.0       0.1       0.4
 1 C  py              1.6       2.4      16.9       2.0       1.2       1.7
 1 C  dz2             0.0       0.3       0.5       0.4       0.0       0.0
 1 C  dxz             0.1       0.0       0.0       0.1       0.0       0.7
 1 C  dyz             1.1       0.1       0.0       0.1       0.3       0.0
 1 C  dx2y2           0.0       0.0       0.5       0.1       0.1       0.1
 1 C  dxy             0.2       0.1       0.0       0.1       0.2       0.1
 2 O  s               0.1       0.2       0.7       0.6       0.0       0.4
 2 O  pz              0.5       0.1       0.1       0.2       0.4       0.2
 2 O  px              0.2       0.1       0.3       0.9       1.3       1.8
 2 O  py              0.1       3.7       1.3       0.2       0.3       0.1
 2 O  dz2             0.0       2.1       4.2       0.5       0.2       0.1
 2 O  dxz             0.7       0.0       0.2       0.2       2.7       2.8
 2 O  dyz             0.1       0.0       0.0       1.0       0.5       0.2
 2 O  dx2y2           0.0       1.9       0.5       1.2       0.3       0.0
 2 O  dxy             0.3       0.2       0.0       3.3       0.3       0.6
 3 C  s               0.8       1.9       0.1       1.6       0.8       1.4
 3 C  pz              8.3       0.7       0.2       0.1      12.1       0.7
 3 C  px              0.9       1.4       3.4       1.3       0.7       0.5
 3 C  py              1.1       5.2       0.3       0.1       2.0       1.2
 3 C  dz2             0.0       0.1       0.0       0.3       0.2       0.2
 3 C  dxz             0.0       0.0       0.0       0.0       0.1       0.3
 3 C  dyz             0.0       0.1       0.1       0.3       0.0       0.0
 3 C  dx2y2           0.0       0.0       0.5       0.3       0.5       0.2
 3 C  dxy             0.0       0.0       0.1       0.0       0.2       0.1
 4 O  s               0.6       1.0       0.1       0.4       0.1       0.2
 4 O  pz              1.3       0.0       0.0       0.3       1.1       0.3
 4 O  px              0.4       0.3       0.2       0.4       0.0       0.2
 4 O  py              0.6       0.4       1.7       0.3       0.6       0.2
 4 O  dz2             0.1       1.3       0.1       0.4       1.4       0.5
 4 O  dxz             1.2       0.0       0.9       0.7       2.5       0.0
 4 O  dyz             0.0       0.4       0.2       0.0       0.1       0.0
 4 O  dx2y2           1.3       0.1       0.8       1.5       0.5       0.2
 4 O  dxy             0.2       0.4       0.1       0.1       0.2       0.9
 5 C  s               3.7       2.1       0.6       2.6       0.0       0.3
 5 C  pz              2.7       1.6       0.7       1.5      27.2       3.1
 5 C  px              6.6       1.6       6.2      15.2       2.2       2.7
 5 C  py              8.3      17.2       6.0       0.9       3.8       6.9
 5 C  dz2             0.0       0.7       0.0       0.3       0.8       0.7
 5 C  dxz             0.0       0.0       0.4       0.2       0.3       0.0
 5 C  dyz             0.2       0.1       0.2       0.0       0.7       0.1
 5 C  dx2y2           0.1       0.1       0.4       0.1       1.0       0.2
 5 C  dxy             0.6       0.0       0.9       0.6       0.3       0.0
 6 H  s               0.3       4.0       7.8       8.3       0.4       0.3
 6 H  pz              0.1       0.1       0.0       0.0       0.2       1.6
 6 H  px              0.1       0.0       1.9       0.9       0.2       0.7
 6 H  py              0.0       1.2       0.5       0.2       0.0       0.0
 7 H  s               2.3       1.2       1.2       1.4       0.6       6.3
 7 H  pz              0.5       0.1       0.6       0.2       0.0       0.1
 7 H  px              0.0       1.0       0.0       0.2       0.1       0.1
 7 H  py              0.2       0.1       0.3       0.5       0.0       0.8
 8 H  s               2.8       0.1       1.7       0.7       0.0      15.5
 8 H  pz              0.3       0.0       0.9       0.4       0.0       0.9
 8 H  px              0.0       0.8       0.2       0.2       0.1       0.1
 8 H  py              0.9       0.0       0.0       0.4       0.0       2.7
 9 H  s               2.7       2.3       0.7       1.3       0.9       1.0
 9 H  pz              0.5       0.5       0.2       1.0       0.0       0.4
 9 H  px              0.0       0.1       0.0       0.2       0.1       0.3
 9 H  py              1.1       0.0       0.2       0.0       0.2       0.0
10 H  s               4.3       0.0       0.2       2.0       1.9       0.9
10 H  pz              1.1       0.1       0.0       1.1       0.1       0.1
10 H  px              0.2       0.0       0.0       0.0       0.0       0.2
10 H  py              0.7       0.4       0.8       0.0       0.4       0.0
11 H  s               0.1       2.5       9.5       9.4       0.8       0.9
11 H  pz              0.2       0.0       0.7       0.2       1.5       0.1
11 H  px              0.2       0.7       1.6       2.6       0.4       0.8
11 H  py              0.1       0.0       0.7       1.1       0.3       0.0
12 H  s               0.6       0.7       1.2       0.2      11.3       0.1
12 H  pz              0.0       0.0       0.2       0.1       0.0       0.3
12 H  px              0.2       0.1       0.3       0.3       0.1       0.0
12 H  py              0.0       0.7       0.3       0.1       2.1       0.0
13 H  s               1.9       1.0       0.0       0.6       3.8       5.4
13 H  pz              1.0       0.0       0.0       0.0       0.0       1.5
13 H  px              0.0       0.0       0.5       0.2       0.1       0.0
13 H  py              0.3       0.2       0.0       0.0       0.2       0.2

                     36        37        38        39        40        41   
                   0.21083   0.21334   0.21812   0.23029   0.24073   0.25094
                   0.00000   0.00000   0.00000   0.00000   0.00000   0.00000
                  --------  --------  --------  --------  --------  --------
 0 C  s               0.1       0.2       0.8       3.3       0.6       0.0
 0 C  pz              4.1      22.7       1.4       0.8      41.3       1.6
 0 C  px              3.9       0.2       2.9       8.9       0.8       0.0
 0 C  py              6.5       4.4      12.5       6.8       0.9       0.1
 0 C  dz2             0.3       0.0       0.1       1.1       0.1       0.1
 0 C  dxz             0.0       0.6       0.0       0.1       0.0       0.4
[...]
 5 C  py              0.9       7.2       0.0       0.0       0.0       0.0
 5 C  dz2            10.2       0.7       0.0       0.0       0.0       0.0
 5 C  dxz             0.0       2.8       0.0       0.1       1.1       0.0
 5 C  dyz             7.4       6.1       0.0       0.2       0.1       0.0
 5 C  dx2y2           1.8       8.3       0.0       0.2       0.1       0.0
 5 C  dxy             1.6       0.1       0.0       0.2       5.1       0.1
 6 H  s               2.2       2.9       1.9       0.2       0.1       0.1
 6 H  pz              0.0       0.0       0.0       0.1       0.0       0.0
 6 H  px              3.8       5.0       3.6       0.3       0.1       0.2
 6 H  py              2.2       2.6       0.1       0.0       0.1       0.0
 7 H  s               0.2       0.0       5.3       0.5       0.2       0.0
 7 H  pz              0.3       0.1      12.4       0.8       0.3       0.0
 7 H  px              0.1       0.1       0.4       0.1       0.0       0.0
 7 H  py              0.0       0.0       2.4       0.5       0.1       0.0
 8 H  s               0.0       0.5       0.9       2.6       0.2       0.0
 8 H  pz              0.0       0.5       3.1       3.9       0.2       0.0
 8 H  px              0.1       0.2       0.0       0.2       0.0       0.0
 8 H  py              0.0       0.3       0.5       3.0       0.2       0.0
 9 H  s               0.1       0.3       2.4       4.1       0.0       0.7
 9 H  pz              0.5       0.8       5.2       6.0       0.0       1.3
 9 H  px              0.1       0.1       0.8       0.0       0.0       0.2
 9 H  py              0.0       0.0       1.6       3.8       0.1       0.1
10 H  s               0.2       0.0       0.1       7.5       0.0       0.2
10 H  pz              0.7       0.3       0.7       9.3       0.1       0.3
10 H  px              0.0       0.0       0.1       0.1       0.9       0.2
10 H  py              0.0       0.0       0.1       9.4       0.0       0.0
11 H  s               0.2       4.9       0.0       0.2       1.9       0.0
11 H  pz              0.0       1.5       0.0       0.1       0.5       0.0
11 H  px              0.5       7.8       0.0       0.2       2.2       0.0
11 H  py              0.2       1.7       0.0       0.1       0.9       0.0
12 H  s               5.1       5.9       0.0       0.1       0.0       0.0
12 H  pz              2.0       4.9       0.0       0.0       0.0       0.0
12 H  px              0.4       0.2       0.0       0.0       0.0       0.0
12 H  py             10.3       9.7       0.0       0.1       0.0       0.0
13 H  s               6.7       0.1       0.0       0.0       0.0       0.0
13 H  pz             14.5       0.4       0.0       0.0       0.0       0.0
13 H  px              0.3       0.2       0.0       0.0       0.1       0.0
13 H  py              1.3       0.2       0.0       0.0       0.0       0.0

                    156       157       158       159       160       161   
                   4.28358   4.41168  21.89013  21.94826  22.02258  22.21040
                   0.00000   0.00000   0.00000   0.00000   0.00000   0.00000
                  --------  --------  --------  --------  --------  --------
 0 C  s               0.0       0.0      50.5      42.6       6.5       0.1
 1 C  s               0.6       0.2      16.5       0.8      79.6       2.7
 1 C  px              1.5       0.3       0.0       0.0       0.0       0.0
 1 C  py              0.8       0.1       0.0       0.0       0.0       0.0
 1 C  dz2             0.7       0.2       0.0       0.0       0.0       0.0
 1 C  dx2y2           0.7       0.1       0.0       0.0       0.0       0.0
 1 C  dxy             1.7       0.5       0.0       0.0       0.0       0.0
 2 O  s               4.9       1.0       0.0       0.0       0.1       0.1
 2 O  pz              0.9       0.0       0.0       0.0       0.0       0.0
 2 O  px             30.2       0.8       0.0       0.0       0.0       0.1
 2 O  py              0.6       0.2       0.0       0.0       0.0       0.0
 2 O  dz2             1.2       0.7       0.0       0.0       0.0       0.0
 2 O  dxz             4.7       0.0       0.0       0.0       0.0       0.0
 2 O  dyz             0.6       0.0       0.0       0.0       0.0       0.0
 2 O  dx2y2           3.3       0.4       0.0       0.0       0.0       0.0
 2 O  dxy            20.4       1.2       0.0       0.0       0.0       0.0
 3 C  s               3.0       5.2       0.0       0.0       2.9      96.0
 3 C  pz              0.4       0.9       0.0       0.0       0.0       0.0
 3 C  px              5.4       0.1       0.0       0.0       0.0       0.0
 3 C  py              1.0       6.9       0.0       0.0       0.0       0.0
 3 C  dz2             1.1       0.8       0.0       0.0       0.0       0.0
 3 C  dxz             1.8       0.0       0.0       0.0       0.0       0.0
 3 C  dyz             0.3       2.0       0.0       0.0       0.0       0.0
 3 C  dx2y2           2.3       4.1       0.0       0.0       0.0       0.0
 3 C  dxy             6.8       0.0       0.0       0.0       0.0       0.0
 4 O  s               0.6      18.2       0.0       0.0       0.0       0.2
 4 O  pz              0.0       2.3       0.0       0.0       0.0       0.0
 4 O  px              0.1       0.1       0.0       0.0       0.0       0.0
 4 O  py              0.4      19.2       0.0       0.0       0.0       0.1
 4 O  dz2             0.4       3.6       0.0       0.0       0.0       0.0
 4 O  dyz             0.1       9.5       0.0       0.0       0.0       0.0
 4 O  dx2y2           0.1      19.9       0.0       0.0       0.0       0.0
 4 O  dxy             1.5       0.4       0.0       0.0       0.0       0.0
 5 C  s               0.1       0.0      32.6      56.3      10.5       0.3
 5 C  px              0.1       0.0       0.0       0.0       0.0       0.0
 5 C  dz2             0.0       0.1       0.0       0.0       0.0       0.0
 5 C  dxy             0.3       0.1       0.0       0.0       0.0       0.0
10 H  s               0.2       0.0       0.0       0.0       0.0       0.0
10 H  pz              0.2       0.0       0.0       0.0       0.0       0.0
10 H  px              0.1       0.0       0.0       0.0       0.0       0.0

                    162       163   
                  43.62050  43.70935
                   0.00000   0.00000
                  --------  --------
 2 O  s              10.1      89.9
 4 O  s              89.8      10.1


                      *****************************
                      * MAYER POPULATION ANALYSIS *
                      *****************************

  NA   - Mulliken gross atomic population
  ZA   - Total nuclear charge
  QA   - Mulliken gross atomic charge
  VA   - Mayer's total valence
  BVA  - Mayer's bonded valence
  FA   - Mayer's free valence

  ATOM       NA         ZA         QA         VA         BVA        FA
  0 C      6.4863     6.0000    -0.4863     3.8480     3.8480     0.0000
  1 C      6.1428     6.0000    -0.1428     3.6145     3.6145    -0.0000
  2 O      8.1848     8.0000    -0.1848     1.9271     1.9271     0.0000
  3 C      5.5295     6.0000     0.4705     3.7635     3.7635     0.0000
  4 O      8.5224     8.0000    -0.5224     1.8794     1.8794    -0.0000
  5 C      6.5541     6.0000    -0.5541     3.8522     3.8522     0.0000
  6 H      0.8318     1.0000     0.1682     0.9587     0.9587    -0.0000
  7 H      0.8351     1.0000     0.1649     0.9570     0.9570     0.0000
  8 H      0.8358     1.0000     0.1642     0.9566     0.9566     0.0000
  9 H      0.8297     1.0000     0.1703     0.9451     0.9451    -0.0000
 10 H      0.8261     1.0000     0.1739     0.9525     0.9525    -0.0000
 11 H      0.8145     1.0000     0.1855     0.9551     0.9551     0.0000
 12 H      0.8057     1.0000     0.1943     0.9498     0.9498     0.0000
 13 H      0.8014     1.0000     0.1986     0.9478     0.9478    -0.0000

  Mayer bond orders larger than 0.100000
B(  0-C ,  1-C ) :   0.9450 B(  0-C ,  6-H ) :   0.9613 B(  0-C ,  7-H ) :   0.9727 
B(  0-C ,  8-H ) :   0.9659 B(  1-C ,  2-O ) :   0.7762 B(  1-C ,  9-H ) :   0.9373 
B(  1-C , 10-H ) :   0.9595 B(  2-O ,  3-C ) :   1.0983 B(  3-C ,  4-O ) :   1.7616 
B(  3-C ,  5-C ) :   0.9548 B(  5-C , 11-H ) :   0.9814 B(  5-C , 12-H ) :   0.9441 
B(  5-C , 13-H ) :   0.9350 

-------
TIMINGS
-------

Total SCF time: 0 days 0 hours 0 min 15 sec 

Total time                  ....      15.481 sec
Sum of individual times     ....      15.027 sec  ( 97.1%)

SCF preparation             ....       0.229 sec  (  1.5%)
Fock matrix formation       ....      13.995 sec  ( 90.4%)
  Startup                   ....       0.275 sec  (  2.0% of F)
  Split-RI-J                ....       1.773 sec  ( 12.7% of F)
  XC integration            ....       9.231 sec  ( 66.0% of F)
    XC Preparation          ....       0.000 sec  (  0.0% of XC)
    Basis function eval.    ....       1.553 sec  ( 16.8% of XC)
    Density eval.           ....       2.717 sec  ( 29.4% of XC)
    XC-Functional eval.     ....       1.303 sec  ( 14.1% of XC)
    XC-Potential eval.      ....       2.868 sec  ( 31.1% of XC)
  CPCM terms                ....       2.207 sec  ( 15.8% of F)
Diagonalization             ....       0.000 sec  (  0.0%)
Density matrix formation    ....       0.226 sec  (  1.5%)
Total Energy calculation    ....       0.048 sec  (  0.3%)
Population analysis         ....       0.088 sec  (  0.6%)
Orbital Transformation      ....       0.041 sec  (  0.3%)
Orbital Orthonormalization  ....       0.000 sec  (  0.0%)
DIIS solution               ....       0.361 sec  (  2.3%)
  MO trafo                  ....       0.000 sec  (  0.0 % of DIIS)
  Orb grad                  ....       0.000 sec  (  0.0 % of DIIS)
  Energy W gradient         ....       0.000 sec  (  0.0 % of DIIS)
  DIIS error                ....       0.006 sec  (  1.5 % of DIIS)
  DIIS work                 ....       0.315 sec  ( 87.2 % of DIIS)
  Form Q                    ....       0.000 sec  (  0.0 % of DIIS)
  Form QpQm                 ....       0.000 sec  (  0.0 % of DIIS)
  Exp/Cayley                ....       0.000 sec  (  0.0 % of DIIS)
  Orb update                ....       0.000 sec  (  0.0 % of DIIS)
  Wake-sleep                ....       0.019 sec  (  5.4 % of DIIS)
SOSCF solution              ....       0.041 sec  (  0.3%)
  MO trafo                  ....       0.033 sec  ( 81.2 % of SOSCF)
  Orb grad                  ....       0.000 sec  (  1.2 % of SOSCF)
  Rot update                ....       0.000 sec  (  0.1 % of SOSCF)
  Step                      ....       0.007 sec  ( 17.4 % of SOSCF)
Finished LeanSCF after  15.6 sec

Maximum memory used throughout the entire LEANSCF-calculation: 18.4 MB


-------------------------------------------------------------------------------
                          DFT DISPERSION CORRECTION                            
                                                                               
                                DFTD4 V3.4.0                                   
-------------------------------------------------------------------------------
The R2SCAN3C composite method is recognized
Using three-body term ABC
Active option DFTDOPT                   ...         5   

-------------------------   ----------------
Dispersion correction           -0.002877483
-------------------------   ----------------

------------------   -----------------
gCP correction             0.009127401
------------------   -----------------

-------------------------   --------------------
FINAL SINGLE POINT ENERGY      -307.642934260570
-------------------------   --------------------


------------------------------------------------------------------------------
                              ORCA PROPERTY CALCULATIONS
------------------------------------------------------------------------------

GBWName                                 ... sp_solv.gbw
Number of atoms                         ...     14
Number of basis functions               ...    164
Max core memory                         ...   1024 MB

Electric properties:
Dipole moment                           ... YES
Quadrupole moment                       ...  NO
Static polarizability (Dipole/Dipole)   ...  NO
Static polarizability (Dipole/Quad.)    ...  NO
Static polarizability (Quad./Quad.)     ...  NO
Static polarizability (Velocity)        ...  NO

Atomic electric properties:
Dipole moment                           ...  NO
Quadrupole moment                       ...  NO
Static polarizability                   ...  NO

Choice of electric origin               ... Center of mass
Position of electric origin             ...    -0.000017     0.000017    -0.000003

General magnetic properties:
Magnetizability                         ...  NO

EPR properties:
g-Tensor (aka g-matrix)                 ...  NO
Zero-Field splitting spin-orbit         ...  NO
Zero-field splitting spin-spin          ...  NO
Hyperfine couplings                     ...  NO (   0 nuclei)
Quadrupole couplings                    ...  NO (   0 nuclei)
Contact density                         ...  NO (   0 nuclei)

NMR properties:
Chemical shifts                         ...  NO (   0 nuclei)
Spin-rotation constants                 ...  NO (   0 nuclei)
Spin-spin couplings                     ...  NO (   0 nuclei,    0 pairs)

Choice of magnetic origin               ... GIAO
Position of magnetic origin             ...     0.000000     0.000000     0.000000

Properties with geometric perturbations:
SCF Hessian                             ...  NO
IR spectrum                             ...  NO
VCD spectrum                            ...  NO
X-ray spectroscopy properties:
SCF XES/XAS/RIXS spectra                ...  NO


-------------
DIPOLE MOMENT
-------------

Method             : SCF
Type of density    : Electron Density
Multiplicity       :   1
Irrep              :   0
Energy             :  -307.6491841787853332 Eh
Relativity type    : 
Basis              : AO
                                X                 Y                 Z
Electronic contribution:      3.222678990      -2.372271920       0.181269144
Nuclear contribution   :     -3.782946227       3.393391169      -0.566483933
                        -----------------------------------------
Total Dipole Moment    :     -0.560267238       1.021119249      -0.385214789
                        -----------------------------------------
Magnitude (a.u.)       :      1.226773953
Magnitude (Debye)      :      3.118211581



--------------------
Rotational spectrum 
--------------------
 
Rotational constants in cm-1:             0.275171             0.070177             0.058744 
Rotational constants in MHz :          8249.408238          2103.852510          1761.114416 

Dipole components along the rotational axes: 
x,y,z [a.u.] :    -0.664135     1.023902    -0.124598 
x,y,z [Debye]:    -1.688097     2.602551    -0.316703 

 

Dipole moment calculation done in   0.0 sec 

Maximum memory used throughout the entire PROP-calculation: 9.4 MB

--------------------------------
SUGGESTED CITATIONS FOR THIS RUN
--------------------------------

Below you find a list of papers that are relevant to this ORCA run
We neither can nor want to force you to cite these papers, but we appreciate if you do
You receive ORCA, which is the product of decades of hard work by many enthusiastic individuals, for free
The only thing we kindly ask in return is that you cite our papers,
We deeply appreciate it, if you show your appreciation for ORCA by not just citing the generic ORCA reference.

Please note that relegating all ORCA citations to the supporting information does *not* help us.
SI sections are not indexed - citations you put there will not count into any citation statistics
But we need these citations in order to attract the funding resources that allow us to do what we are doing

Therefore, if you are a happy ORCA user, please consider citing a few of the papers listed below in the main body of your paper

In addition to the list printed below, the program has created the file sp_solv.bibtex that contains the list in bibtex format
You can import this file easily into all common literature databanks and citation aid programs


List of essential papers. We consider these as the minimum necessary citations

  1. Neese,F.
     Software update: the ORCA program system, version 5.0
     WIRES Comput. Molec. Sci., 2022 12(1)e1606
     doi.org/10.1002/wcms.1606
  2. Grimme,S.; Hansen,A.; Ehlert,S.; Mewes,J.
     r2SCAN-3c: A 'Swiss army knife' composite electronic-structure method
     J. Chem. Phys., 2021 154 064103
     doi.org/10.1063/5.0040021

List of papers to cite with high priority. The work reported in these papers was absolutely
necessary for this run to complete.
Our perspective: the developers of density functionals and basis sets usually get cited in chemistry papers
Good! But without the algorithms to do something with them, the functionals or basis sets would not do anything.
Hence, in our opinion, the algorithm design and method developments papers are equally worthy of getting cited

  1. Neese,F.
     An improvement of the resolution of the identity approximation for the formation of the Coulomb matrix
     J. Comp. Chem., 2003 24(14)1740-1747
     doi.org/10.1002/jcc.10318
  2. Garcia-Rates,M.; Neese,F.
     Effect of the Solute Cavity on the Solvation Energy and its Derivatives within the Framework of the Gaussian Charge Scheme
     J. Comput. Chem., 2020 41 922-939
     doi.org/10.1002/jcc.26139
  3. Neese,F.
     The SHARK Integral Generation and Digestion System
     J. Comp. Chem., 2022  1-16
     doi.org/10.1002/jcc.26942
  4. Lehtola,S.; Steigemann,C.; Oliveira,M.; Marques,M.
     Recent developments in Libxc - A comprehensive library of functionals for density functional theory
     Software X, 2018 7 
     doi.org/10.1016/j.softx.2017.11.002
  5. Caldeweyher,E.; Bannwarth,C.; Grimme,S.
     Extension of the D3 dispersion coefficient model
     J. Chem. Phys., 2017 147 034112-XXXX
     doi.org/10.1063/1.4993215
  6. Caldeweyher,E.; Ehlert,S.; Hansen,A.; Neugebauer,H.; Spicher,S.; Bannwarth,C.; Grimme,S.
     A generally applicable atomic-charge dependent London dispersion correction
     J. Chem. Phys., 2019 150 154122-XXXX
     doi.org/10.1063/1.5090222
  7. Caldeweyher,E.; Mewes,J.; Ehlert,S.; Grimme,S.
     Extension and evaluation of the D4 London-dispersion model for periodic systems
     Phys. Chem. Chem. Phys., 2020 22(16)8499-8512
     doi.org/10.1039/D0CP00502A

List of suggested additional citations. These are papers that are important in the 'surrounding' of 
of this run, or papers that preceded the highly important papers. If you like your results we are grateful for a citation.

  1. Neese,F.
     The ORCA program system
     WIRES Comput. Molec. Sci., 2012 2(1)73-78
     doi.org/10.1002/wcms.81
  2. Neese,F.
     Software update: the ORCA program system, version 4.0
     WIRES Comput. Molec. Sci., 2018 8(1)1-6
     doi.org/10.1002/wcms.1327
  3. Neese,F.; Wennmohs,F.; Becker,U.; Riplinger,C.
     The ORCA quantum chemistry program package
     J. Chem. Phys., 2020 152 Art. No. L224108
     doi.org/10.1063/5.0004608

List of optional additional citations

  1. Neese,F.
     Approximate second-order SCF convergence for spin unrestricted wavefunctions
     Chem. Phys. Lett., 2000 325(1-3)93-98
     doi.org/10.1016/s0009-2614(00)00662-x

Timings for individual modules:

Sum of individual times          ...       16.711 sec (=   0.279 min)
Startup calculation              ...        0.768 sec (=   0.013 min)   4.6 %
SCF iterations                   ...       15.849 sec (=   0.264 min)  94.8 %
Property calculations            ...        0.094 sec (=   0.002 min)   0.6 %
                             ****ORCA TERMINATED NORMALLY****
TOTAL RUN TIME: 0 days 0 hours 0 minutes 17 seconds 344 msec
