
                                 *****************
                                 * O   R   C   A *
                                 *****************

                                            #,                                       
                                            ###                                      
                                            ####                                     
                                            #####                                    
                                            ######                                   
                                           ########,                                 
                                     ,,################,,,,,                         
                               ,,#################################,,                 
                          ,,##########################################,,             
                       ,#########################################, ''#####,          
                    ,#############################################,,   '####,        
                  ,##################################################,,,,####,       
                ,###########''''           ''''###############################       
              ,#####''   ,,,,##########,,,,          '''####'''          '####       
            ,##' ,,,,###########################,,,                        '##       
           ' ,,###''''                  '''############,,,                           
         ,,##''                                '''############,,,,        ,,,,,,###''
      ,#''                                            '''#######################'''  
     '                                                          ''''####''''         
             ,#######,   #######,   ,#######,      ##                                
            ,#'     '#,  ##    ##  ,#'     '#,    #''#        ,####,   ,####,        
            ##       ##  ##   ,#'  ##            #'  '#       #'       #'  '#        
            ##       ##  #######   ##           ,######,      #####,   #    #        
            '#,     ,#'  ##    ##  '#,     ,#' ,#      #,     #,   #   #,  ,#        
             '#######'   ##     ##  '#######'  #'      '#     '####' # '####'        



                #########################################################
                #                        -***-                          #
                #          Department of theory and spectroscopy        #
                #                                                       #
                #                      Frank Neese                      #
                #                                                       #
                #     Directorship, Architecture, Infrastructure        #
                #                    SHARK, DRIVERS                     #
                #        Core code/Algorithms in most modules           #
                #                                                       #
                #        Max Planck Institute fuer Kohlenforschung      #
                #                Kaiser Wilhelm Platz 1                 #
                #                 D-45470 Muelheim/Ruhr                 #
                #                      Germany                          #
                #                                                       #
                #                  All rights reserved                  #
                #                        -***-                          #
                #########################################################


                         Program Version 6.0.0  -   RELEASE  -


 With contributions from (in alphabetic order):
   Daniel Aravena         : Magnetic Suceptibility
   Michael Atanasov       : Ab Initio Ligand Field Theory (pilot matlab implementation)
   Alexander A. Auer      : GIAO ZORA, VPT2 properties, NMR spectrum
   Ute Becker             : All parallelization in ORCA, NUMFREQ, NUMCALC
   Giovanni Bistoni       : ED, misc. LED, open-shell LED, HFLD
   Martin Brehm           : Molecular dynamics
   Dmytro Bykov           : pre 5.0 version of the SCF Hessian
   Marcos Casanova-Páez   : Triplet and SCS-CIS(D). UHF-(DLPNO)-IP/EA/STEOM-CCSD. UHF-CVS-IP/STEOM-CCSD
   Vijay G. Chilkuri      : MRCI spin determinant printing, contributions to CSF-ICE
   Pauline Colinet        : FMM embedding
   Dipayan Datta          : RHF DLPNO-CCSD density
   Achintya Kumar Dutta   : EOM-CC, STEOM-CC
   Nicolas Foglia         : Exact transition moments, OPA infrastructure, MCD improvements
   Dmitry Ganyushin       : Spin-Orbit,Spin-Spin,Magnetic field MRCI
   Miquel Garcia          : C-PCM and meta-GGA Hessian, CCSD/C-PCM, Gaussian charge scheme
   Tiago L. C. Gouveia    : GS-ROHF, GS-ROCIS
   Yang Guo               : DLPNO-NEVPT2, F12-NEVPT2, CIM, IAO-localization
   Andreas Hansen         : Spin unrestricted coupled pair/coupled cluster methods
   Ingolf Harden          : AUTO-CI MPn and infrastructure 
   Benjamin Helmich-Paris : MC-RPA, TRAH-(SCF,CASSCF), AVAS, COSX integrals, SCF dyn. polar.
   Lee Huntington         : MR-EOM, pCC
   Robert Izsak           : Overlap fitted RIJCOSX, COSX-SCS-MP3, EOM
   Riya Kayal             : Wick's Theorem for AUTO-CI, AUTO-CI UHF-CCSDT
   Emily Kempfer          : AUTO-CI, RHF CISDT and CCSDT
   Christian Kollmar      : KDIIS, OOCD, Brueckner-CCSD(T), CCSD density, CASPT2, CASPT2-K, improved NEVPT2
   Axel Koslowski         : Symmetry handling
   Simone Kossmann        : Meta GGA functionals, TD-DFT gradient, OOMP2, (MP2 Hessian; deprecated post 5.0)
   Lucas Lang             : DCDCAS
   Marvin Lechner         : AUTO-CI (C++ implementation), FIC-MRCC
   Spencer Leger          : CASSCF response
   Dagmar Lenk            : GEPOL surface, SMD, ORCA-2-JSON
   Dimitrios Liakos       : Extrapolation schemes; Compound Job, initial MDCI parallelization
   Dimitrios Manganas     : Further ROCIS development; embedding schemes. LFT, Crystal Embedding
   Dimitrios Pantazis     : SARC Basis sets
   Anastasios Papadopoulos: AUTO-CI, single reference methods and gradients
   Taras Petrenko         : pre 6.0 DFT Hessian and TD-DFT gradient, (ASA, deprecated), ECA, 1-Electron XAS/XES, NRVS
   Peter Pinski           : DLPNO-MP2, DLPNO-MP2 Gradient
   Christoph Reimann      : Effective Core Potentials
   Marius Retegan         : Local ZFS, SOC
   Christoph Riplinger    : Optimizer, TS searches, QM/MM, DLPNO-CCSD(T), (RO)-DLPNO pert. Triples
   Michael Roemelt        : Original ROCIS implementation
   Masaaki Saitow         : Open-shell DLPNO-CCSD energy and density
   Barbara Sandhoefer     : DKH picture change effects
   Kantharuban Sivalingam : CASSCF convergence/infrastructure, NEVPT2 and variants, FIC-MRCI
   Bernardo de Souza      : ESD, SOC TD-DFT
   Georgi Stoychev        : AutoAux, RI-MP2 NMR, DLPNO-MP2 response, X2C
   Van Anh Tran           : RI-MP2 g-tensors
   Willem Van den Heuvel  : Paramagnetic NMR
   Zikuan Wang            : NOTCH, Electric field optimization 
   Frank Wennmohs         : Technical directorship and infrastructure
   Hang Xu                : AUTO-CI-Response properties 


 We gratefully acknowledge several colleagues who have allowed us to
 interface, adapt or use parts of their codes:
   Stefan Grimme, W. Hujo, H. Kruse, P. Pracht,  : VdW corrections, initial TS optimization,
                  C. Bannwarth, S. Ehlert,         DFT functionals, gCP, sTDA/sTD-DF
                  L. Wittmann, M. Mueller
   Ed Valeev, F. Pavosevic, A. Kumar             : LibInt (2-el integral package), F12 methods
   Garnet Chan, S. Sharma, J. Yang, R. Olivares  : DMRG
   Ulf Ekstrom                                   : XCFun DFT Library
   Mihaly Kallay                                 : mrcc  (arbitrary order and MRCC methods)
   Frank Weinhold                                : gennbo (NPA and NBO analysis)
   Simon Mueller                                 : openCOSMO-RS
   Christopher J. Cramer and Donald G. Truhlar   : smd solvation model
   Lars Goerigk                                  : TD-DFT with DH, B97 family of functionals
   V. Asgeirsson, H. Jonsson                     : NEB implementation
   FAccTs GmbH                                   : IRC, NEB, NEB-TS, DLPNO-Multilevel, CI-OPT
                                                   MM, QMMM, 2- and 3-layer-ONIOM, Crystal-QMMM,
                                                   LR-CPCM, SF, NACMEs, symmetry and pop. for TD-DFT,
                                                   nearIR, NL-DFT gradient (VV10), updates on ESD,
                                                   ML-optimized integration grids, MBIS, APM,
                                                   GOAT, DOCKER, SOLVATOR, interface openCOSMO-RS
   S Lehtola, MJT Oliveira, MAL Marques          : LibXC Library
   Liviu Ungur et al                             : ANISO software


 Your calculation uses the libint2 library for the computation of 2-el integrals
 For citations please refer to: http://libint.valeyev.net

 Your ORCA version has been built with support for libXC version: 6.2.2
 For citations please refer to: https://libxc.gitlab.io

 This ORCA versions uses:
   CBLAS   interface :  Fast vector & matrix operations
   LAPACKE interface :  Fast linear algebra routines
   SCALAPACK package :  Parallel linear algebra routines
   Shared memory     :  Shared parallel matrices
   BLAS/LAPACK       :  OpenBLAS 0.3.27  USE64BITINT DYNAMIC_ARCH NO_AFFINITY SkylakeX SINGLE_THREADED
        Core in use  :  SkylakeX
   Copyright (c) 2011-2014, The OpenBLAS Project


Your calculation utilizes the geometrical counterpoise correction gCP
Please cite in your paper:
H.Kruse, S. Grimme J.Chem.Phys., 136, (2012), 154101 
   

Your calculation utilizes the atom-pairwise dispersion correction
based on EEQ partial charges (D4)


================================================================================

----- Orbital basis set information -----
Your calculation utilizes the basis: def2-SV(P)
   F. Weigend and R. Ahlrichs, Phys. Chem. Chem. Phys. 7, 3297 (2005).

----- AuxJ basis set information -----
Your calculation utilizes the auxiliary basis: def2/J
   F. Weigend, Phys. Chem. Chem. Phys. 8, 1057 (2006).

================================================================================
                                        WARNINGS
                       Please study these warnings very carefully!
================================================================================


================================================================================
                                       INPUT FILE
================================================================================
NAME = sp.inp
|  1> ! pbe def2-sv(p) def2/J RI DEFGRID1 loosescf d4 GCP(DFT/SV(P)) printgap
|  2> %output
|  3>     printlevel normal
|  4> end
|  5> * xyz 0 1
|  6> C -3.0362846695 0.7476981213 0.4646048053
|  7> C -1.5714699458 0.3419750819 0.6173273946
|  8> H -1.3821426879 0.1486347615 1.6805015492
|  9> C -0.6090411465 1.4419404426 0.1264811941
| 10> C 0.2018800187 0.9792984993 -1.0754861753
| 11> C 1.0537381587 -0.2507441647 -0.7239533816
| 12> H 1.5303430349 -0.5925164876 -1.6478847303
| 13> C 0.1349418836 -1.382005581 -0.222209134
| 14> C -1.3077960156 -0.9847430736 -0.0609062044
| 15> O -2.207378933 -1.726224642 -0.4111513518
| 16> C 2.1632784763 0.133157538 0.2311336789
| 17> C 2.0515401898 0.1228922219 1.550332651
| 18> C 3.4294701639 0.5685289369 -0.4435921344
| 19> H -3.6863366877 -0.0625568476 0.7869095223
| 20> H -3.2485573648 1.6306679304 1.0607683297
| 21> H -3.2594575348 0.9610323303 -0.5784667332
| 22> H -1.189488107 2.3233294114 -0.1467809051
| 23> H 0.0767141955 1.7310762784 0.9227891023
| 24> H -0.4745823297 0.7138642361 -1.8919588073
| 25> H 0.8458655346 1.790393031 -1.4173310692
| 26> H 0.1657797734 -2.2378637109 -0.8987854595
| 27> H 0.4730726214 -1.7352205166 0.7538097988
| 28> H 2.8686034452 0.4257658358 2.182947816
| 29> H 1.15805644 -0.1879668701 2.0642036691
| 30> H 4.1472626351 0.9485647623 0.2774857918
| 31> H 3.8772198497 -0.2735329756 -0.9701261679
| 32> H 3.2231956581 1.3452744476 -1.1777031499
| 33> *
| 34> 
| 35>                          ****END OF INPUT****
================================================================================

                       ****************************
                       * Single Point Calculation *
                       ****************************

---------------------------------
CARTESIAN COORDINATES (ANGSTROEM)
---------------------------------
  C     -3.036285    0.747698    0.464605
  C     -1.571470    0.341975    0.617327
  H     -1.382143    0.148635    1.680502
  C     -0.609041    1.441940    0.126481
  C      0.201880    0.979298   -1.075486
  C      1.053738   -0.250744   -0.723953
  H      1.530343   -0.592516   -1.647885
  C      0.134942   -1.382006   -0.222209
  C     -1.307796   -0.984743   -0.060906
  O     -2.207379   -1.726225   -0.411151
  C      2.163278    0.133158    0.231134
  C      2.051540    0.122892    1.550333
  C      3.429470    0.568529   -0.443592
  H     -3.686337   -0.062557    0.786910
  H     -3.248557    1.630668    1.060768
  H     -3.259458    0.961032   -0.578467
  H     -1.189488    2.323329   -0.146781
  H      0.076714    1.731076    0.922789
  H     -0.474582    0.713864   -1.891959
  H      0.845866    1.790393   -1.417331
  H      0.165780   -2.237864   -0.898785
  H      0.473073   -1.735221    0.753810
  H      2.868603    0.425766    2.182948
  H      1.158056   -0.187967    2.064204
  H      4.147263    0.948565    0.277486
  H      3.877220   -0.273533   -0.970126
  H      3.223196    1.345274   -1.177703

----------------------------
CARTESIAN COORDINATES (A.U.)
----------------------------
  NO LB      ZA    FRAG     MASS         X           Y           Z
   0 C     6.0000    0    12.011   -5.737746    1.412945    0.877976
   1 C     6.0000    0    12.011   -2.969648    0.646239    1.166580
   2 H     1.0000    0     1.008   -2.611871    0.280879    3.175688
   3 C     6.0000    0    12.011   -1.150921    2.724873    0.239015
   4 C     6.0000    0    12.011    0.381498    1.850606   -2.032374
   5 C     6.0000    0    12.011    1.991277   -0.473838   -1.368074
   6 H     1.0000    0     1.008    2.891929   -1.119694   -3.114051
   7 C     6.0000    0    12.011    0.255003   -2.611612   -0.419914
   8 C     6.0000    0    12.011   -2.471376   -1.860895   -0.115096
   9 O     8.0000    0    15.999   -4.171342   -3.262092   -0.776963
  10 C     6.0000    0    12.011    4.088004    0.251631    0.436779
  11 C     6.0000    0    12.011    3.876849    0.232233    2.929704
  12 C     6.0000    0    12.011    6.480759    1.074364   -0.838268
  13 H     1.0000    0     1.008   -6.966167   -0.118215    1.487043
  14 H     1.0000    0     1.008   -6.138884    3.081516    2.004562
  15 H     1.0000    0     1.008   -6.159482    1.816088   -1.093144
  16 H     1.0000    0     1.008   -2.247807    4.390456   -0.277376
  17 H     1.0000    0     1.008    0.144969    3.271260    1.743819
  18 H     1.0000    0     1.008   -0.896831    1.349008   -3.575284
  19 H     1.0000    0     1.008    1.598454    3.383353   -2.678368
  20 H     1.0000    0     1.008    0.313278   -4.228950   -1.698458
  21 H     1.0000    0     1.008    0.893978   -3.279092    1.424494
  22 H     1.0000    0     1.008    5.420875    0.804581    4.125174
  23 H     1.0000    0     1.008    2.188410   -0.355206    3.900780
  24 H     1.0000    0     1.008    7.837191    1.792528    0.524372
  25 H     1.0000    0     1.008    7.326884   -0.516902   -1.833273
  26 H     1.0000    0     1.008    6.090957    2.542200   -2.225536

--------------------------------
INTERNAL COORDINATES (ANGSTROEM)
--------------------------------
 C      0   0   0     0.000000000000     0.00000000     0.00000000
 C      1   0   0     1.527618260152     0.00000000     0.00000000
 H      2   1   0     1.097070906134   108.00932468     0.00000000
 C      2   1   3     1.541792132879   112.16370101   239.78967630
 C      4   2   1     1.521958035220   111.54026330   244.25489493
 C      5   4   2     1.536958864443   110.97477746   299.61741848
 H      6   5   4     1.094353537861   107.35083489   174.39897443
 C      6   5   4     1.541326142368   109.35694111    57.73850430
 C      8   6   5     1.505100920427   114.36654852   354.02122666
 O      9   8   6     1.217257575385   121.11700611   138.13152980
 C      6   5   4     1.513489850263   110.34381208   290.68948158
 C     11   6   5     1.323962518115   124.39819160    89.32767430
 C     11   6   5     1.499348047606   114.12781640   270.62715937
 H      1   2   3     1.087640138830   110.21950728   298.23445723
 H      1   2   3     1.086326989804   110.38824498    58.74045225
 H      1   2   3     1.087803220700   110.16192386   179.25686135
 H      4   2   1     1.090154742748   108.91982984     5.05465114
 H      4   2   1     1.089938624551   110.45109678   123.11569918
 H      5   4   2     1.093016109528   109.51172590    59.54386425
 H      5   4   2     1.090618913979   109.63860462   178.08558344
 H      8   6   5     1.091420926220   110.91020490   115.76910018
 H      8   6   5     1.091652941076   110.11369186   233.96834705
 H     12  11   6     1.076813231860   121.27559847   181.27661893
 H     12  11   6     1.076573271765   123.22211583     1.65910439
 H     13  11   6     1.086096973549   111.15874748   172.94857671
 H     13  11   6     1.089397142483   109.88591209   293.25183824
 H     13  11   6     1.088485986687   110.52879357    51.94258762

---------------------------
INTERNAL COORDINATES (A.U.)
---------------------------
 C      0   0   0     0.000000000000     0.00000000     0.00000000
 C      1   0   0     2.886780148865     0.00000000     0.00000000
 H      2   1   0     2.073163562086   108.00932468     0.00000000
 C      2   1   3     2.913564886575   112.16370101   239.78967630
 C      4   2   1     2.876083873888   111.54026330   244.25489493
 C      5   4   2     2.904431332901   110.97477746   299.61741848
 H      6   5   4     2.068028480245   107.35083489   174.39897443
 C      6   5   4     2.912684292128   109.35694111    57.73850430
 C      8   6   5     2.844228543521   114.36654852   354.02122666
 O      9   8   6     2.300283451919   121.11700611   138.13152980
 C      6   5   4     2.860081323467   110.34381208   290.68948158
 C     11   6   5     2.501926570815   124.39819160    89.32767430
 C     11   6   5     2.833357189405   114.12781640   270.62715937
 H      1   2   3     2.055341994648   110.21950728   298.23445723
 H      1   2   3     2.052860502617   110.38824498    58.74045225
 H      1   2   3     2.055650174720   110.16192386   179.25686135
 H      4   2   1     2.060093907388   108.91982984     5.05465114
 H      4   2   1     2.059685503183   110.45109678   123.11569918
 H      5   4   2     2.065501106973   109.51172590    59.54386425
 H      5   4   2     2.060971063894   109.63860462   178.08558344
 H      8   6   5     2.062486647386   110.91020490   115.76910018
 H      8   6   5     2.062925091924   110.11369186   233.96834705
 H     12  11   6     2.034882105599   121.27559847   181.27661893
 H     12  11   6     2.034428646735   123.22211583     1.65910439
 H     13  11   6     2.052425834888   111.15874748   172.94857671
 H     13  11   6     2.058662250370   109.88591209   293.25183824
 H     13  11   6     2.056940415450   110.52879357    51.94258762

---------------------
BASIS SET INFORMATION
---------------------
There are 3 groups of distinct atoms

 Group   1 Type C   : 7s4p1d contracted to 3s2p1d pattern {511/31/1}
 Group   2 Type H   : 4s contracted to 2s pattern {31}
 Group   3 Type O   : 7s4p1d contracted to 3s2p1d pattern {511/31/1}

Atom   0C    basis set group =>   1
Atom   1C    basis set group =>   1
Atom   2H    basis set group =>   2
Atom   3C    basis set group =>   1
Atom   4C    basis set group =>   1
Atom   5C    basis set group =>   1
Atom   6H    basis set group =>   2
Atom   7C    basis set group =>   1
Atom   8C    basis set group =>   1
Atom   9O    basis set group =>   3
Atom  10C    basis set group =>   1
Atom  11C    basis set group =>   1
Atom  12C    basis set group =>   1
Atom  13H    basis set group =>   2
Atom  14H    basis set group =>   2
Atom  15H    basis set group =>   2
Atom  16H    basis set group =>   2
Atom  17H    basis set group =>   2
Atom  18H    basis set group =>   2
Atom  19H    basis set group =>   2
Atom  20H    basis set group =>   2
Atom  21H    basis set group =>   2
Atom  22H    basis set group =>   2
Atom  23H    basis set group =>   2
Atom  24H    basis set group =>   2
Atom  25H    basis set group =>   2
Atom  26H    basis set group =>   2
---------------------------------
AUXILIARY/J BASIS SET INFORMATION
---------------------------------
There are 3 groups of distinct atoms

 Group   1 Type C   : 12s5p4d2f1g contracted to 6s4p3d1f1g pattern {711111/2111/211/2/1}
 Group   2 Type H   : 5s2p1d contracted to 3s1p1d pattern {311/2/1}
 Group   3 Type O   : 12s5p4d2f1g contracted to 6s4p3d1f1g pattern {711111/2111/211/2/1}

Atom   0C    basis set group =>   1
Atom   1C    basis set group =>   1
Atom   2H    basis set group =>   2
Atom   3C    basis set group =>   1
Atom   4C    basis set group =>   1
Atom   5C    basis set group =>   1
Atom   6H    basis set group =>   2
Atom   7C    basis set group =>   1
Atom   8C    basis set group =>   1
Atom   9O    basis set group =>   3
Atom  10C    basis set group =>   1
Atom  11C    basis set group =>   1
Atom  12C    basis set group =>   1
Atom  13H    basis set group =>   2
Atom  14H    basis set group =>   2
Atom  15H    basis set group =>   2
Atom  16H    basis set group =>   2
Atom  17H    basis set group =>   2
Atom  18H    basis set group =>   2
Atom  19H    basis set group =>   2
Atom  20H    basis set group =>   2
Atom  21H    basis set group =>   2
Atom  22H    basis set group =>   2
Atom  23H    basis set group =>   2
Atom  24H    basis set group =>   2
Atom  25H    basis set group =>   2
Atom  26H    basis set group =>   2
------------------------------------------------------------------------------
                             ORCA STARTUP CALCULATIONS
                           -- RI-GTO INTEGRALS CHOSEN --
------------------------------------------------------------------------------
------------------------------------------------------------------------------
                   ___                                                        
                  /   \      - P O W E R E D   B Y -                         
                 /     \                                                     
                 |  |  |   _    _      __       _____    __    __             
                 |  |  |  | |  | |    /  \     |  _  \  |  |  /  |          
                  \  \/   | |  | |   /    \    | | | |  |  | /  /          
                 / \  \   | |__| |  /  /\  \   | |_| |  |  |/  /          
                |  |  |   |  __  | /  /__\  \  |    /   |      \           
                |  |  |   | |  | | |   __   |  |    \   |  |\   \          
                \     /   | |  | | |  |  |  |  | |\  \  |  | \   \       
                 \___/    |_|  |_| |__|  |__|  |_| \__\ |__|  \__/        
                                                                              
                      - O R C A' S   B I G   F R I E N D -                    
                                      &                                       
                       - I N T E G R A L  F E E D E R -                       
                                                                              
 v1 FN, 2020, v2 2021, v3 2022-2024                                           
------------------------------------------------------------------------------


----------------------
SHARK INTEGRAL PACKAGE
----------------------

Number of atoms                             ...     27
Number of basis functions                   ...    186
Number of shells                            ...     98
Maximum angular momentum                    ...      2
Integral batch strategy                     ... SHARK/LIBINT Hybrid
RI-J (if used) integral strategy            ... SPLIT-RIJ (Revised 2003 algorithm where possible)
Printlevel                                  ...      1
Contraction scheme used                     ... SEGMENTED contraction
Prescreening option                         ... SCHWARTZ
   Thresh                                   ... 1.000e-09
   Tcut                                     ... 1.000e-10
   Tpresel                                  ... 1.000e-10 
Coulomb Range Separation                    ... NOT USED
Exchange Range Separation                   ... NOT USED
Multipole approximations                    ... NOT USED
Finite Nucleus Model                        ... NOT USED
CABS basis                                  ... NOT available
Auxiliary Coulomb fitting basis             ... AVAILABLE
   # of basis functions in Aux-J            ...    715
   # of shells in Aux-J                     ...    245
   Maximum angular momentum in Aux-J        ...      4
Auxiliary J/K fitting basis                 ... NOT available
Auxiliary Correlation fitting basis         ... NOT available
Auxiliary 'external' fitting basis          ... NOT available

Checking pre-screening integrals            ... done (  0.0 sec) Dimension = 98
Check shell pair data                       ... done (  0.0 sec)
Shell pair information
Shell pair cut-off parameter TPreSel        ...   1.0e-10
Total number of shell pairs                 ...      4851
Shell pairs after pre-screening             ...      4489
Total number of primitive shell pairs       ...     19497
Primitive shell pairs kept                  ...     12288
          la=0 lb=0:   1961 shell pairs
          la=1 lb=0:   1364 shell pairs
          la=1 lb=1:    247 shell pairs
          la=2 lb=0:    634 shell pairs
          la=2 lb=1:    225 shell pairs
          la=2 lb=2:     58 shell pairs

Calculating one electron integrals          ... done (  0.0 sec)
Calculating RI/J V-Matrix + Cholesky decomp.... done (  0.1 sec)
Calculating Nuclear repulsion               ... done (  0.0 sec) ENN=    645.052518709794 Eh

Diagonalization of the overlap matrix:
Smallest eigenvalue                        ... 7.130e-04
Time for diagonalization                   ...    0.004 sec
Threshold for overlap eigenvalues          ... 1.000e-07
Number of eigenvalues below threshold      ... 0
Time for construction of square roots      ...    0.012 sec
Total time needed                          ...    0.025 sec

-------------------
DFT GRID GENERATION
-------------------

General Integration Accuracy     IntAcc      ... 4.159
Radial Grid Type                 RadialGrid  ... OptM3 with GC (2021)
Angular Grid (max. ang.)         AngularGrid ... 3 (Lebedev-194)
Angular grid pruning method      GridPruning ... 4 (adaptive)
Weight generation scheme         WeightScheme... mBecke (2022)
Basis function cutoff            BFCut       ... 1.0000e-10
Integration weight cutoff        WCut        ... 1.0000e-14
Partially contracted basis set               ... off
Rotationally invariant grid construction     ... off
Angular grids for H and He will be reduced by one unit

Total number of grid points                  ...    57545
Total number of batches                      ...      916
Average number of points per batch           ...       62
Average number of grid points per atom       ...     2131
Initializing property integral containers    ... done (  0.0 sec)

SHARK setup successfully completed in   1.0 seconds

Maximum memory used throughout the entire STARTUP-calculation: 29.5 MB
-------------------------------------------------------------------------------
                                 ORCA GUESS
                   Start orbitals & Density for SCF / CASSCF
-------------------------------------------------------------------------------

------------
SCF SETTINGS
------------
Hamiltonian:
 Density Functional     Method          .... DFT(GTOs)
 Exchange Functional    Exchange        .... PBE
   PBE kappa parameter   XKappa         ....  0.804000
   PBE mue parameter    XMuePBE         ....  0.219520
 Correlation Functional Correlation     .... PBE
   PBE beta parameter  CBetaPBE         ....  0.066725
 LDA part of GGA corr.  LDAOpt          .... PW91-LDA
 Gradients option       PostSCFGGA      .... off
   NL short-range parameter             ....  6.400000
 RI-approximation to the Coulomb term is turned on
   Number of AuxJ basis functions       .... 715


General Settings:
 Integral files         IntName         .... sp
 Hartree-Fock type      HFTyp           .... RHF
 Total Charge           Charge          ....    0
 Multiplicity           Mult            ....    1
 Number of Electrons    NEL             ....   84
 Basis Dimension        Dim             ....  186
 Nuclear Repulsion      ENuc            ....    645.0525187098 Eh

Convergence Acceleration:
 AO-DIIS                CNVDIIS         .... on
   Start iteration      DIISMaxIt       ....    12
   Startup error        DIISStart       ....  0.200000
   # of expansion vecs  DIISMaxEq       ....     5
   Bias factor          DIISBfac        ....   1.050
   Max. coefficient     DIISMaxC        ....  10.000
 MO-DIIS                CNVKDIIS        .... off
 Trust-Rad. Augm. Hess. CNVTRAH         .... auto
   Auto Start mean grad. ratio tolernc. ....  1.125000
   Auto Start start iteration           ....    50
   Auto Start num. interpolation iter.  ....    10
   Max. Number of Micro iterations      ....    24
   Max. Number of Macro iterations      .... Maxiter - #DIIS iter
   Number of Davidson start vectors     ....     2
   Converg. threshold    (grad. norm)   ....   1.000e-04
   Grad. Scal. Fac. for Micro threshold ....   0.100
   Minimum threshold for Micro iter.    ....   1.000e-02
   NR start threshold (gradient norm)   ....   1.000e-04
   Initial trust radius                 ....   0.400
   Minimum AH scaling param. (alpha)    ....   1.000
   Maximum AH scaling param. (alpha)    .... 1000.000
   Quad. conv. algorithm                .... NR
   White noise on init. David. guess    .... on
   Maximum white noise                  ....   0.010
   Pseudo random numbers                .... off
   Inactive MOs                         .... canonical
   Orbital update algorithm             .... Taylor
   Preconditioner                       .... Diag
   Full preconditioner red. dimension   ....   250
 SOSCF                  CNVSOSCF        .... on
   Start iteration      SOSCFMaxIt      ....   150
   Startup grad/error   SOSCFStart      ....  0.003300
   Hessian update       SOSCFHessUp     .... L-BFGS
 Level Shifting         CNVShift        .... on
   Level shift para.    LevelShift      ....    0.2500
   Turn off err/grad.   ShiftErr        ....    0.0010
 Zerner damping         CNVZerner       .... off
 Static damping         CNVDamp         .... on
   Fraction old density DampFac         ....    0.7000
   Max. Damping (<1)    DampMax         ....    0.9800
   Min. Damping (>=0)   DampMin         ....    0.0000
   Turn off err/grad.   DampErr         ....    0.1000

SCF Procedure:
 Maximum # iterations   MaxIter         ....   125
 SCF integral mode      SCFMode         .... Direct
   Integral package                     .... SHARK and LIBINT hybrid scheme
 Reset frequency        DirectResetFreq ....    20
 Integral Threshold     Thresh          ....  1.000e-09 Eh
 Primitive CutOff       TCut            ....  1.000e-10 Eh

Convergence Tolerance:
 Convergence Check Mode ConvCheckMode   .... Total+1el-Energy
 Convergence forced     ConvForced      .... 0
 Energy Change          TolE            ....  1.000e-05 Eh
 1-El. energy change                    ....  1.000e-02 Eh
 Orbital Gradient       TolG            ....  1.000e-04
 Orbital Rotation angle TolX            ....  1.000e-04
 DIIS Error             TolErr          ....  5.000e-04

------------------------------
INITIAL GUESS: MODEL POTENTIAL
------------------------------
Loading Hartree-Fock densities                     ... done
Calculating cut-offs                               ... done
Initializing the effective Hamiltonian             ... done
Setting up the integral package (SHARK)            ... done
Starting the Coulomb interaction                   ... done (   0.3 sec)
Making the grid                                    ... done (   0.4 sec)
Mapping shells                                     ... done
Starting the XC term evaluation                    ... done (   0.3 sec)
  promolecular density results
     # of electrons  =     83.983951303
     EX              =    -64.044197235
     EC              =     -2.783972996
     EX+EC           =    -66.828170232
Transforming the Hamiltonian                       ... done (   0.0 sec)
Diagonalizing the Hamiltonian                      ... done (   0.0 sec)
Back transforming the eigenvectors                 ... done (   0.0 sec)
Now organizing SCF variables                       ... done
                      ------------------
                      INITIAL GUESS DONE (   1.0 sec)
                      ------------------
             **** ENERGY FILE WAS UPDATED (sp.en.tmp) ****
Finished Guess after   1.2 sec
Maximum memory used throughout the entire GUESS-calculation: 22.8 MB

-------------------------------------------------------------------------------------------
                                      ORCA LEAN-SCF
                              memory conserving SCF solver
-------------------------------------------------------------------------------------------

----------------------------------------D-I-I-S--------------------------------------------
Iteration    Energy (Eh)           Delta-E    RMSDP     MaxDP     DIISErr   Damp  Time(sec)
-------------------------------------------------------------------------------------------
               ***  Starting incremental Fock matrix formation  ***
    1    -464.6092690269556442     0.00e+00  5.14e-03  2.21e-01  2.20e-01  0.700   1.4
    2    -464.7575517133168432    -1.48e-01  3.41e-03  1.34e-01  7.68e-02  0.700   1.4
                               ***Turning on AO-DIIS***
    3    -464.8069956549725248    -4.94e-02  1.23e-03  1.77e-02  2.48e-02  0.700   1.4
    4    -464.8371595970247654    -3.02e-02  1.81e-03  2.48e-02  1.09e-02  0.000   1.3
    5    -464.9060220444728202    -6.89e-02  5.58e-04  1.71e-02  8.10e-03  0.000   1.3
                              *** Initializing SOSCF ***
---------------------------------------S-O-S-C-F--------------------------------------
Iteration    Energy (Eh)           Delta-E    RMSDP     MaxDP     MaxGrad    Time(sec)
--------------------------------------------------------------------------------------
    6    -464.9068512616850057    -8.29e-04  1.90e-04  3.53e-03  1.78e-03     1.3
               *** Restarting incremental Fock matrix formation ***
    7    -464.9069132778172388    -6.20e-05  1.54e-04  5.47e-03  4.60e-04     1.4
    8    -464.9069012514794395     1.20e-05  8.50e-05  3.72e-03  1.14e-03     1.2
    9    -464.9069191781927657    -1.79e-05  5.46e-05  1.08e-03  1.55e-04     1.2
   10    -464.9069172732492916     1.90e-06  2.75e-05  6.08e-04  1.99e-04     1.2
                 **** Energy Check signals convergence ****

               *****************************************************
               *                     SUCCESS                       *
               *           SCF CONVERGED AFTER  10 CYCLES          *
               *****************************************************

             **** ENERGY FILE WAS UPDATED (sp.en.tmp) ****

----------------
TOTAL SCF ENERGY
----------------

Total Energy       :       -464.90691727324929 Eh          -12650.76037 eV

Components:
Nuclear Repulsion  :        645.05251870979373 Eh           17552.77140 eV
Electronic Energy  :      -1109.95943598304302 Eh          -30203.53177 eV
One Electron Energy:      -1908.12585907564585 Eh          -51922.74433 eV
Two Electron Energy:        798.16642309260283 Eh           21719.21256 eV

Virial components:
Potential Energy   :       -925.69001934500329 Eh          -25189.30603 eV
Kinetic Energy     :        460.78310207175394 Eh           12538.54565 eV
Virial Ratio       :          2.00894957992807

DFT components:
N(Alpha)           :       42.000135161865 electrons
N(Beta)            :       42.000135161865 electrons
N(Total)           :       84.000270323729 electrons
E(X)               :      -65.426009807911 Eh       
E(C)               :       -2.792314615256 Eh       
E(XC)              :      -68.218324423168 Eh       

---------------
SCF CONVERGENCE
---------------

  Last Energy change         ...   -1.9049e-06  Tolerance :   1.0000e-05
  Last MAX-Density change    ...    6.0781e-04  Tolerance :   1.0000e-03
  Last RMS-Density change    ...    2.7523e-05  Tolerance :   1.0000e-04
  Last DIIS Error            ...    1.7838e-03  Tolerance :   5.0000e-04
  Last Orbital Gradient      ...    1.9884e-04  Tolerance :   1.0000e-04
  Last Orbital Rotation      ...    4.2436e-04  Tolerance :   1.0000e-04


----------------
ORBITAL ENERGIES
----------------

  NO   OCC          E(Eh)            E(eV) 
   0   2.0000     -18.736722      -509.8521 
   1   2.0000      -9.968282      -271.2507 
   2   2.0000      -9.909284      -269.6453 
   3   2.0000      -9.907449      -269.5954 
   4   2.0000      -9.900977      -269.4193 
   5   2.0000      -9.896452      -269.2961 
   6   2.0000      -9.891463      -269.1604 
   7   2.0000      -9.889028      -269.0941 
   8   2.0000      -9.888973      -269.0926 
   9   2.0000      -9.881055      -268.8772 
  10   2.0000      -9.873917      -268.6829 
  11   2.0000      -0.932541       -25.3757 
  12   2.0000      -0.773569       -21.0499 
  13   2.0000      -0.726613       -19.7721 
  14   2.0000      -0.685884       -18.6639 
  15   2.0000      -0.659917       -17.9573 
  16   2.0000      -0.622066       -16.9273 
  17   2.0000      -0.606069       -16.4920 
  18   2.0000      -0.551566       -15.0089 
  19   2.0000      -0.539627       -14.6840 
  20   2.0000      -0.474909       -12.9229 
  21   2.0000      -0.454360       -12.3638 
  22   2.0000      -0.443324       -12.0635 
  23   2.0000      -0.426955       -11.6180 
  24   2.0000      -0.422870       -11.5069 
  25   2.0000      -0.401436       -10.9236 
  26   2.0000      -0.384820       -10.4715 
  27   2.0000      -0.381560       -10.3828 
  28   2.0000      -0.368670       -10.0320 
  29   2.0000      -0.358714        -9.7611 
  30   2.0000      -0.352113        -9.5815 
  31   2.0000      -0.344845        -9.3837 
  32   2.0000      -0.331213        -9.0128 
  33   2.0000      -0.329638        -8.9699 
  34   2.0000      -0.323837        -8.8121 
  35   2.0000      -0.310303        -8.4438 
  36   2.0000      -0.306845        -8.3497 
  37   2.0000      -0.286485        -7.7957 
  38   2.0000      -0.278999        -7.5919 
  39   2.0000      -0.277633        -7.5548 
  40   2.0000      -0.225524        -6.1368 
  41   2.0000      -0.190283        -5.1779 
  42   0.0000      -0.049640        -1.3508 
  43   0.0000      -0.022404        -0.6096 
  44   0.0000       0.026280         0.7151 
  45   0.0000       0.044914         1.2222 
  46   0.0000       0.057359         1.5608 
  47   0.0000       0.065226         1.7749 
  48   0.0000       0.079267         2.1570 
  49   0.0000       0.081074         2.2061 
  50   0.0000       0.087732         2.3873 
  51   0.0000       0.099778         2.7151 
  52   0.0000       0.105998         2.8844 
*Only the first 10 virtual orbitals were printed.

                    ********************************
                    * MULLIKEN POPULATION ANALYSIS *
                    ********************************

-----------------------
MULLIKEN ATOMIC CHARGES
-----------------------
   0 C :   -0.225788
   1 C :   -0.178491
   2 H :    0.100291
   3 C :   -0.115690
   4 C :   -0.114537
   5 C :   -0.146789
   6 H :    0.067343
   7 C :   -0.025133
   8 C :   -0.050162
   9 O :   -0.161135
  10 C :   -0.070035
  11 C :   -0.243781
  12 C :   -0.217181
  13 H :    0.112164
  14 H :    0.096904
  15 H :    0.100717
  16 H :    0.086626
  17 H :    0.092607
  18 H :    0.098089
  19 H :    0.087716
  20 H :    0.088442
  21 H :    0.114128
  22 H :    0.086942
  23 H :    0.092560
  24 H :    0.099685
  25 H :    0.114431
  26 H :    0.110079
Sum of atomic charges:    0.0000000

--------------------------------
MULLIKEN REDUCED ORBITAL CHARGES
--------------------------------
  0 C s       :     3.064981  s :     3.064981
      pz      :     1.059195  p :     3.131908
      px      :     1.017000
      py      :     1.055713
      dz2     :     0.006537  d :     0.028899
      dxz     :     0.004419
      dyz     :     0.005538
      dx2y2   :     0.005255
      dxy     :     0.007149

  1 C s       :     3.045886  s :     3.045886
      pz      :     1.058216  p :     3.092365
      px      :     1.048829
      py      :     0.985319
      dz2     :     0.008931  d :     0.040241
      dxz     :     0.006046
      dyz     :     0.006442
      dx2y2   :     0.009781
      dxy     :     0.009041

  2 H s       :     0.899709  s :     0.899709

  3 C s       :     2.992955  s :     2.992955
      pz      :     1.022619  p :     3.087381
      px      :     1.008397
      py      :     1.056365
      dz2     :     0.006381  d :     0.035354
      dxz     :     0.009709
      dyz     :     0.005904
      dx2y2   :     0.004718
      dxy     :     0.008643

  4 C s       :     2.996939  s :     2.996939
      pz      :     1.064511  p :     3.080452
      px      :     1.011321
      py      :     1.004620
      dz2     :     0.006129  d :     0.037146
      dxz     :     0.010231
      dyz     :     0.006295
      dx2y2   :     0.004527
      dxy     :     0.009964

  5 C s       :     3.067062  s :     3.067062
      pz      :     1.016895  p :     3.037906
      px      :     1.010723
      py      :     1.010287
      dz2     :     0.007052  d :     0.041821
      dxz     :     0.010043
      dyz     :     0.007618
      dx2y2   :     0.007749
      dxy     :     0.009360

  6 H s       :     0.932657  s :     0.932657

  7 C s       :     2.915104  s :     2.915104
      pz      :     1.037267  p :     3.078175
      px      :     0.989351
      py      :     1.051557
      dz2     :     0.006090  d :     0.031854
      dxz     :     0.004678
      dyz     :     0.007435
      dx2y2   :     0.008303
      dxy     :     0.005348

  8 C s       :     3.171272  s :     3.171272
      pz      :     0.847288  p :     2.787356
      px      :     0.985487
      py      :     0.954580
      dz2     :     0.009036  d :     0.091534
      dxz     :     0.014312
      dyz     :     0.012145
      dx2y2   :     0.035074
      dxy     :     0.020967

  9 O s       :     3.747882  s :     3.747882
      pz      :     1.347165  p :     4.396025
      px      :     1.526737
      py      :     1.522123
      dz2     :     0.002260  d :     0.017228
      dxz     :     0.003501
      dyz     :     0.002308
      dx2y2   :     0.003856
      dxy     :     0.005302

 10 C s       :     3.080962  s :     3.080962
      pz      :     0.983712  p :     2.946924
      px      :     1.007579
      py      :     0.955633
      dz2     :     0.009910  d :     0.042149
      dxz     :     0.013670
      dyz     :     0.009596
      dx2y2   :     0.004282
      dxy     :     0.004692

 11 C s       :     3.181851  s :     3.181851
      pz      :     1.057414  p :     3.035283
      px      :     0.926411
      py      :     1.051457
      dz2     :     0.005424  d :     0.026647
      dxz     :     0.011885
      dyz     :     0.005095
      dx2y2   :     0.002480
      dxy     :     0.001763

 12 C s       :     3.023373  s :     3.023373
      pz      :     1.063819  p :     3.164704
      px      :     1.038986
      py      :     1.061898
      dz2     :     0.002004  d :     0.029104
      dxz     :     0.007581
      dyz     :     0.009005
      dx2y2   :     0.004823
      dxy     :     0.005692

 13 H s       :     0.887836  s :     0.887836

 14 H s       :     0.903096  s :     0.903096

 15 H s       :     0.899283  s :     0.899283

 16 H s       :     0.913374  s :     0.913374

 17 H s       :     0.907393  s :     0.907393

 18 H s       :     0.901911  s :     0.901911

 19 H s       :     0.912284  s :     0.912284

 20 H s       :     0.911558  s :     0.911558

 21 H s       :     0.885872  s :     0.885872

 22 H s       :     0.913058  s :     0.913058

 23 H s       :     0.907440  s :     0.907440

 24 H s       :     0.900315  s :     0.900315

 25 H s       :     0.885569  s :     0.885569

 26 H s       :     0.889921  s :     0.889921


------------------------
MULLIKEN OVERLAP CHARGES
------------------------
B(  0-C ,  1-C ) :   0.6917 B(  0-C ,  3-C ) :  -0.0846 B(  0-C , 13-H ) :   0.7299 
B(  0-C , 14-H ) :   0.7312 B(  0-C , 15-H ) :   0.7712 B(  1-C ,  2-H ) :   0.4803 
B(  1-C ,  3-C ) :   0.4685 B(  1-C ,  4-C ) :  -0.0937 B(  1-C ,  7-C ) :  -0.5343 
B(  1-C ,  8-C ) :   0.1198 B(  1-C ,  9-O ) :  -0.3109 B(  1-C , 15-H ) :  -0.0711 
B(  3-C ,  4-C ) :   0.9066 B(  3-C ,  5-C ) :  -0.0707 B(  3-C , 16-H ) :   0.6685 
B(  3-C , 17-H ) :   0.6193 B(  4-C ,  5-C ) :   0.8894 B(  4-C ,  7-C ) :  -0.1486 
B(  4-C , 10-C ) :  -0.1153 B(  4-C , 18-H ) :   0.6519 B(  4-C , 19-H ) :   0.6939 
B(  5-C ,  6-H ) :   0.6175 B(  5-C ,  7-C ) :   0.4761 B(  5-C , 10-C ) :   0.6248 
B(  5-C , 11-C ) :  -0.1866 B(  5-C , 12-C ) :  -0.1954 B(  5-C , 19-H ) :  -0.0542 
B(  5-C , 23-H ) :  -0.0724 B(  6-H , 10-C ) :  -0.0610 B(  7-C ,  8-C ) :   0.7045 
B(  7-C ,  9-O ) :  -0.1953 B(  7-C , 20-H ) :   0.4869 B(  7-C , 21-H ) :   0.5606 
B(  8-C ,  9-O ) :   1.5182 B( 10-C , 11-C ) :   1.4818 B( 10-C , 12-C ) :   0.8619 
B( 11-C , 12-C ) :  -0.1452 B( 11-C , 22-H ) :   0.6658 B( 11-C , 23-H ) :   0.6806 
B( 12-C , 22-H ) :  -0.0586 B( 12-C , 24-H ) :   0.7109 B( 12-C , 25-H ) :   0.7042 
B( 12-C , 26-H ) :   0.7032 B( 14-H , 15-H ) :  -0.0557 B( 16-H , 17-H ) :  -0.0521 
B( 18-H , 19-H ) :  -0.0614 B( 22-H , 23-H ) :  -0.1123 


                     *******************************
                     * LOEWDIN POPULATION ANALYSIS *
                     *******************************

----------------------
LOEWDIN ATOMIC CHARGES
----------------------
   0 C :   -0.326190
   1 C :   -0.176594
   2 H :    0.140150
   3 C :   -0.218381
   4 C :   -0.208856
   5 C :   -0.129186
   6 H :    0.123969
   7 C :   -0.234123
   8 C :    0.047804
   9 O :   -0.129818
  10 C :   -0.046755
  11 C :   -0.274031
  12 C :   -0.320700
  13 H :    0.125518
  14 H :    0.117482
  15 H :    0.120754
  16 H :    0.123151
  17 H :    0.123869
  18 H :    0.122187
  19 H :    0.119453
  20 H :    0.135551
  21 H :    0.146781
  22 H :    0.121221
  23 H :    0.114245
  24 H :    0.124179
  25 H :    0.131559
  26 H :    0.126761

-------------------------------
LOEWDIN REDUCED ORBITAL CHARGES
-------------------------------
  0 C s       :     2.944980  s :     2.944980
      pz      :     1.126128  p :     3.310098
      px      :     1.063934
      py      :     1.120036
      dz2     :     0.016745  d :     0.071112
      dxz     :     0.009468
      dyz     :     0.013502
      dx2y2   :     0.014023
      dxy     :     0.017373

  1 C s       :     2.884208  s :     2.884208
      pz      :     1.074064  p :     3.192143
      px      :     1.062776
      py      :     1.055303
      dz2     :     0.022490  d :     0.100243
      dxz     :     0.011970
      dyz     :     0.017315
      dx2y2   :     0.025200
      dxy     :     0.023268

  2 H s       :     0.859850  s :     0.859850

  3 C s       :     2.905195  s :     2.905195
      pz      :     1.088583  p :     3.226191
      px      :     1.069676
      py      :     1.067932
      dz2     :     0.014938  d :     0.086996
      dxz     :     0.024401
      dyz     :     0.014149
      dx2y2   :     0.009960
      dxy     :     0.023548

  4 C s       :     2.905232  s :     2.905232
      pz      :     1.077623  p :     3.213783
      px      :     1.068534
      py      :     1.067626
      dz2     :     0.014501  d :     0.089841
      dxz     :     0.026085
      dyz     :     0.014646
      dx2y2   :     0.009711
      dxy     :     0.024898

  5 C s       :     2.873130  s :     2.873130
      pz      :     1.066249  p :     3.153177
      px      :     1.038562
      py      :     1.048366
      dz2     :     0.016150  d :     0.102879
      dxz     :     0.026483
      dyz     :     0.017033
      dx2y2   :     0.016341
      dxy     :     0.026872

  6 H s       :     0.876031  s :     0.876031

  7 C s       :     2.914855  s :     2.914855
      pz      :     1.103742  p :     3.237192
      px      :     1.058165
      py      :     1.075285
      dz2     :     0.014890  d :     0.082076
      dxz     :     0.010503
      dyz     :     0.019008
      dx2y2   :     0.021449
      dxy     :     0.016226

  8 C s       :     2.885391  s :     2.885391
      pz      :     0.825302  p :     2.851976
      px      :     1.034769
      py      :     0.991905
      dz2     :     0.019117  d :     0.214829
      dxz     :     0.028963
      dyz     :     0.027908
      dx2y2   :     0.088413
      dxy     :     0.050428

  9 O s       :     3.552116  s :     3.552116
      pz      :     1.361017  p :     4.547248
      px      :     1.611147
      py      :     1.575083
      dz2     :     0.003884  d :     0.030453
      dxz     :     0.005277
      dyz     :     0.003825
      dx2y2   :     0.006627
      dxy     :     0.010840

 10 C s       :     2.869501  s :     2.869501
      pz      :     1.110616  p :     3.068647
      px      :     1.018140
      py      :     0.939891
      dz2     :     0.029162  d :     0.108607
      dxz     :     0.038839
      dyz     :     0.020885
      dx2y2   :     0.009948
      dxy     :     0.009773

 11 C s       :     2.950165  s :     2.950165
      pz      :     1.104208  p :     3.254325
      px      :     1.076931
      py      :     1.073186
      dz2     :     0.018199  d :     0.069541
      dxz     :     0.031821
      dyz     :     0.011215
      dx2y2   :     0.004903
      dxy     :     0.003403

 12 C s       :     2.938107  s :     2.938107
      pz      :     1.113068  p :     3.311026
      px      :     1.081392
      py      :     1.116566
      dz2     :     0.004277  d :     0.071567
      dxz     :     0.019262
      dyz     :     0.021924
      dx2y2   :     0.012151
      dxy     :     0.013954

 13 H s       :     0.874482  s :     0.874482

 14 H s       :     0.882518  s :     0.882518

 15 H s       :     0.879246  s :     0.879246

 16 H s       :     0.876849  s :     0.876849

 17 H s       :     0.876131  s :     0.876131

 18 H s       :     0.877813  s :     0.877813

 19 H s       :     0.880547  s :     0.880547

 20 H s       :     0.864449  s :     0.864449

 21 H s       :     0.853219  s :     0.853219

 22 H s       :     0.878779  s :     0.878779

 23 H s       :     0.885755  s :     0.885755

 24 H s       :     0.875821  s :     0.875821

 25 H s       :     0.868441  s :     0.868441

 26 H s       :     0.873239  s :     0.873239


---------------------------------
LOEWDIN BOND ORDERS (THRESH 0.050000)
---------------------------------
B(  0-C ,  1-C ) :   1.0892 B(  0-C ,  3-C ) :   0.0553 B(  0-C ,  8-C ) :   0.0586 
B(  0-C , 13-H ) :   0.9312 B(  0-C , 14-H ) :   0.9351 B(  0-C , 15-H ) :   0.9371 
B(  1-C ,  2-H ) :   0.8447 B(  1-C ,  3-C ) :   1.0318 B(  1-C ,  4-C ) :   0.0508 
B(  1-C ,  7-C ) :   0.0652 B(  1-C ,  8-C ) :   1.0308 B(  1-C ,  9-O ) :   0.1062 
B(  3-C ,  4-C ) :   1.0953 B(  3-C ,  5-C ) :   0.0502 B(  3-C ,  8-C ) :   0.0556 
B(  3-C , 16-H ) :   0.8966 B(  3-C , 17-H ) :   0.8934 B(  4-C ,  5-C ) :   1.0409 
B(  4-C , 10-C ) :   0.0555 B(  4-C , 18-H ) :   0.8928 B(  4-C , 19-H ) :   0.8979 
B(  5-C ,  6-H ) :   0.8630 B(  5-C ,  7-C ) :   1.0262 B(  5-C ,  8-C ) :   0.0565 
B(  5-C , 10-C ) :   1.0244 B(  5-C , 11-C ) :   0.0787 B(  5-C , 12-C ) :   0.0618 
B(  7-C ,  8-C ) :   1.0723 B(  7-C ,  9-O ) :   0.1090 B(  7-C , 10-C ) :   0.0536 
B(  7-C , 20-H ) :   0.8904 B(  7-C , 21-H ) :   0.8639 B(  8-C ,  9-O ) :   2.2536 
B( 10-C , 11-C ) :   1.9656 B( 10-C , 12-C ) :   1.1023 B( 11-C , 12-C ) :   0.0881 
B( 11-C , 22-H ) :   0.9150 B( 11-C , 23-H ) :   0.9100 B( 12-C , 24-H ) :   0.9307 
B( 12-C , 25-H ) :   0.9197 B( 12-C , 26-H ) :   0.9209 

------------------------------------------
LOEWDIN REDUCED ORBITAL POPULATIONS PER MO
-------------------------------------------
THRESHOLD FOR PRINTING IS 0.1%%
                      0         1         2         3         4         5   
                 -18.73672  -9.96828  -9.90928  -9.90745  -9.90098  -9.89645
                   2.00000   2.00000   2.00000   2.00000   2.00000   2.00000
                  --------  --------  --------  --------  --------  --------
 1 C  s               0.0       0.0       0.0       0.0      99.6       0.0
 4 C  s               0.0       0.0       0.0       0.0       0.0      99.6
 5 C  s               0.0       0.0      99.6       0.0       0.0       0.0
 8 C  s               0.0      99.4       0.0       0.0       0.0       0.0
 9 O  s              99.9       0.0       0.0       0.0       0.0       0.0
 9 O  px              0.0       0.2       0.0       0.0       0.0       0.0
 9 O  py              0.0       0.1       0.0       0.0       0.0       0.0
10 C  s               0.0       0.0       0.0      99.5       0.0       0.0
11 C  pz              0.0       0.0       0.0       0.2       0.0       0.0

                      6         7         8         9        10        11   
                  -9.89146  -9.88903  -9.88897  -9.88105  -9.87392  -0.93254
                   2.00000   2.00000   2.00000   2.00000   2.00000   2.00000
                  --------  --------  --------  --------  --------  --------
 0 C  s               0.0       0.0       0.0       0.0      99.7       0.2
 0 C  px              0.0       0.0       0.0       0.0       0.0       0.1
 0 C  py              0.0       0.0       0.0       0.0       0.0       0.2
 1 C  s               0.0       0.0       0.0       0.0       0.0       1.3
 1 C  pz              0.0       0.0       0.0       0.0       0.0       0.4
 1 C  py              0.0       0.0       0.1       0.0       0.0       1.4
 2 H  s               0.0       0.0       0.0       0.0       0.0       0.2
 3 C  s               0.0       1.3      98.4       0.0       0.0       0.1
 7 C  s              99.6       0.0       0.0       0.0       0.0       1.3
 7 C  px              0.0       0.0       0.0       0.0       0.0       1.9
 8 C  s               0.0       0.0       0.0       0.0       0.0      19.7
 8 C  pz              0.0       0.0       0.0       0.0       0.0       1.0
 8 C  px              0.1       0.0       0.0       0.0       0.0       6.9
 8 C  py              0.0       0.0       0.0       0.0       0.0       4.7
 8 C  dz2             0.0       0.0       0.0       0.0       0.0       0.3
 8 C  dxz             0.0       0.0       0.0       0.0       0.0       0.2
 8 C  dyz             0.0       0.0       0.0       0.0       0.0       0.2
 8 C  dxy             0.0       0.0       0.0       0.0       0.0       1.0
 9 O  s               0.0       0.0       0.0       0.0       0.0      50.7
 9 O  pz              0.0       0.0       0.0       0.0       0.0       0.6
 9 O  px              0.0       0.0       0.0       0.0       0.0       3.6
 9 O  py              0.0       0.0       0.0       0.0       0.0       2.5
 9 O  dxy             0.0       0.0       0.0       0.0       0.0       0.2
10 C  pz              0.0       0.0       0.0       0.2       0.0       0.0
11 C  s               0.0       0.0       0.0      99.6       0.0       0.0
12 C  s               0.0      98.4       1.3       0.0       0.0       0.0
13 H  s               0.0       0.0       0.0       0.0       0.1       0.1
20 H  s               0.1       0.0       0.0       0.0       0.0       0.3
21 H  s               0.1       0.0       0.0       0.0       0.0       0.2

                     12        13        14        15        16        17   
                  -0.77357  -0.72661  -0.68588  -0.65992  -0.62207  -0.60607
                   2.00000   2.00000   2.00000   2.00000   2.00000   2.00000
                  --------  --------  --------  --------  --------  --------
 0 C  s               0.9       5.8       8.3       2.8       1.0      17.6
 0 C  px              0.5       1.6       0.8       0.1       0.0       0.6
 1 C  s               5.1      14.5       7.3       2.5       0.0       0.3
 1 C  pz              0.3       0.2       0.0       0.1       0.0       0.1
 1 C  px              0.6       0.0       1.5       0.9       0.6      10.1
 1 C  py              0.1       0.3       0.5       2.4       0.1       0.2
 1 C  dx2y2           0.0       0.0       0.0       0.0       0.0       0.1
 1 C  dxy             0.0       0.0       0.0       0.1       0.0       0.0
 2 H  s               0.9       2.8       1.5       0.9       0.0       0.1
 3 C  s               7.3       8.4       0.8       8.2       1.0       5.3
 3 C  pz              0.3       0.0       0.9       2.2       0.0       0.2
 3 C  px              0.1       0.8       1.4       1.9       0.1       0.0
 3 C  py              1.1       0.9       0.0       0.3       0.0       0.0
 4 C  s              11.1       1.0       2.5      16.3       0.0       0.5
 4 C  pz              1.1       0.4       0.1       0.2       0.3       0.9
 4 C  px              0.1       1.6       0.3       0.1       0.3       2.7
 4 C  py              1.0       0.3       1.0       0.9       0.2       1.3
 5 C  s              16.6       2.4       5.2       0.0       0.7       7.9
 5 C  pz              0.5       0.6       0.3       1.2       1.3       0.4
 5 C  px              0.2       2.6       3.4       0.0       0.1       0.5
 5 C  py              0.3       0.0       0.7       7.4       0.0       0.2
 5 C  dxy             0.0       0.0       0.0       0.2       0.0       0.0
 6 H  s               2.8       0.6       1.1       0.0       0.8       2.7
 7 C  s               7.2       0.0      10.6      14.2       0.1       1.2
 7 C  pz              0.0       0.0       0.2       0.3       0.2       0.7
 7 C  px              0.3       0.8       0.1       0.3       0.0       3.2
 7 C  py              1.9       0.0       0.2       0.0       0.0       0.4
 7 C  dxy             0.0       0.0       0.0       0.0       0.0       0.1
 8 C  s               1.5       1.2       0.2       4.1       0.0       2.6
 8 C  pz              0.2       0.8       0.6       0.7       0.0       0.2
 8 C  px              2.9       0.1       4.4       5.4       0.0       3.0
 8 C  py              1.7       4.1       1.7       0.5       0.0       0.1
 8 C  dxy             0.1       0.1       0.0       0.2       0.0       0.0
 9 O  s               1.5       1.1       0.0       2.6       0.1       0.5
 9 O  px              0.0       0.0       0.1       0.3       0.0       0.4
10 C  s              10.1      14.2       5.4       0.1       0.9       0.2
10 C  pz              0.3       0.1       1.4       0.5      17.4       0.5
10 C  px              0.7       0.3       3.3       0.0       3.8       4.1
10 C  py              0.0       0.0       0.5       0.2       0.3       0.5
10 C  dz2             0.0       0.1       0.0       0.0       0.3       0.0
10 C  dxz             0.0       0.0       0.1       0.0       0.0       0.1
11 C  s               3.4       6.9       5.5       0.5      21.6       0.0
11 C  pz              1.6       2.2       0.8       0.0       0.2       0.1
11 C  px              0.0       0.1       0.2       0.0       0.2       0.1
11 C  dz2             0.1       0.1       0.1       0.0       0.1       0.0
12 C  s               2.6       7.9       8.1       0.0      18.3       5.7
12 C  pz              0.1       0.3       0.3       0.0       1.0       0.0
12 C  px              0.9       1.1       0.2       0.0       0.2       0.5
12 C  py              0.1       0.1       0.0       0.0       0.0       0.1
13 H  s               0.1       0.9       1.6       0.6       0.3       5.1
14 H  s               0.2       1.1       1.7       0.5       0.2       4.8
15 H  s               0.2       1.1       1.7       0.5       0.2       4.7
16 H  s               1.1       1.8       0.3       1.9       0.2       1.0
17 H  s               1.5       1.2       0.2       1.8       0.6       1.6
18 H  s               1.9       0.3       0.6       3.3       0.0       0.1
19 H  s               1.8       0.1       0.4       4.4       0.0       0.2
20 H  s               1.0       0.0       2.3       3.0       0.1       0.2
21 H  s               1.5       0.0       1.9       4.1       0.0       0.5
22 H  s               0.4       1.2       1.3       0.1       4.7       0.1
23 H  s               0.7       1.0       0.8       0.2       6.3       0.0
24 H  s               0.4       1.5       1.9       0.0       4.0       2.1
25 H  s               0.4       1.4       1.6       0.0       5.6       1.5
26 H  s               0.5       1.4       1.5       0.0       5.9       1.4

                     18        19        20        21        22        23   
                  -0.55157  -0.53963  -0.47491  -0.45436  -0.44332  -0.42696
                   2.00000   2.00000   2.00000   2.00000   2.00000   2.00000
                  --------  --------  --------  --------  --------  --------
 0 C  s               8.1       0.3       0.5       0.0       0.7       0.2
 0 C  pz              0.1       0.0       0.2       4.3       0.6       1.0
 0 C  px              2.5       0.2       1.2       0.0       4.6       0.9
 0 C  py              1.3       0.4       0.0       0.3       0.0       1.5
 1 C  s               6.3       0.0       0.9       0.5       2.0       0.2
 1 C  pz              0.4       0.4       0.9      17.5       1.5       1.8
 1 C  px              1.7       0.8       0.0       0.1       0.8       0.6
 1 C  py              5.7       7.1       1.5       0.4       1.2       0.3
 1 C  dxy             0.0       0.1       0.0       0.0       0.0       0.0
 2 H  s               3.4       0.0       1.0       8.5       1.7       0.3
 3 C  s               2.5       8.7       0.0       0.3       0.1       0.1
 3 C  pz              0.9       5.1       1.1       1.3       0.4       5.2
 3 C  px              0.1       0.7       1.4       3.1       5.2       0.6
 3 C  py              3.2       1.7       0.2       0.5       0.4       0.6
 4 C  s               0.5       9.5       0.1       1.3       0.5       0.4
 4 C  pz              0.0       5.2       0.8       0.5       9.2       0.3
 4 C  px              1.3       0.0       0.0       5.5       0.5       5.3
 4 C  py              2.1       0.0       3.0       4.9       1.0       0.5
 4 C  dxy             0.0       0.1       0.0       0.0       0.0       0.0
 5 C  s               2.7       2.2       2.1       0.4       0.4       0.2
 5 C  pz              0.0       1.4       7.2       0.2       4.4       5.9
 5 C  px              1.9       4.1       1.6       0.8       1.2       0.4
 5 C  py              1.0       2.8       3.5       1.5       1.5       2.9
 5 C  dxz             0.0       0.0       0.1       0.0       0.0       0.0
 6 H  s               1.0       1.0       4.8       0.3       1.3       1.9
 7 C  s               6.3       0.2       0.0       0.4       0.5       0.4
 7 C  pz              0.0       0.0       3.7       5.4       2.1       3.7
 7 C  px              0.0       4.1       3.8       0.4       0.2      14.3
 7 C  py              3.3       0.1       0.1       4.2       7.1       0.0
 7 C  dx2y2           0.0       0.0       0.1       0.0       0.0       0.1
 7 C  dxy             0.0       0.1       0.1       0.0       0.0       0.0
 8 C  s               1.2       3.0       2.2       0.8       0.5       2.3
 8 C  pz              2.5       0.2       0.2       5.7       0.0       0.7
 8 C  px              2.0       0.6       1.3       0.0       0.1       4.6
 8 C  py              6.8       1.5       0.0       3.1       0.5       2.9
 9 O  s               0.1       1.6       1.2       0.3       0.0       2.1
 9 O  pz              0.3       0.1       0.2       1.1       0.0       0.0
 9 O  px              0.1       0.3       1.1       0.2       0.0       8.1
 9 O  py              0.7       0.5       0.2       1.4       0.2       0.0
10 C  s               0.8       0.9       7.6       0.3       1.8       0.0
10 C  pz              1.6       3.0       0.3       0.4       0.4       0.9
10 C  px              1.3       1.6       0.1       1.0       5.3       0.7
10 C  py              0.1       0.8       0.2       0.1       0.0       2.3
11 C  s               0.6       2.6       4.3       0.0       0.2       0.3
11 C  pz              0.4       1.1      14.8       0.9       3.0       2.1
11 C  px              0.1       0.4       0.0       2.1       6.5       1.8
11 C  py              0.0       0.1       0.0       0.1       0.2       1.6
11 C  dz2             0.0       0.0       0.2       0.0       0.1       0.0
12 C  s               1.1       0.4       0.9       0.0       0.7       0.3
12 C  pz              0.0       0.1       1.1       1.2       3.9       0.0
12 C  px              0.8       0.7       5.1       0.0       3.0       2.7
12 C  py              0.1       0.3       0.2       0.3       1.0       0.1
13 H  s               2.3       0.3       0.4       0.2       1.2       0.0
14 H  s               4.0       0.0       0.1       0.1       0.3       1.7
15 H  s               3.5       0.1       0.5       1.5       1.2       0.0
16 H  s               2.5       4.1       0.0       0.6       0.6       0.0
17 H  s               0.7       4.8       0.0       0.8       1.6       2.7
18 H  s               0.3       6.2       0.1       0.1       3.6       1.9
19 H  s               0.3       3.9       0.7       6.2       1.3       0.0
20 H  s               3.8       0.2       0.3       0.3       4.6       0.0
21 H  s               2.5       0.2       0.3       4.9       0.0       5.7
22 H  s               0.5       2.0       6.3       0.1       0.1       2.7
23 H  s               0.2       0.6       5.5       1.8       4.6       0.0
24 H  s               0.8       0.6       1.5       0.0       0.4       0.5
25 H  s               0.3       0.1       1.5       0.0       1.1       0.8
26 H  s               0.3       0.2       0.8       0.8       2.3       0.0

                     24        25        26        27        28        29   
                  -0.42287  -0.40144  -0.38482  -0.38156  -0.36867  -0.35871
                   2.00000   2.00000   2.00000   2.00000   2.00000   2.00000
                  --------  --------  --------  --------  --------  --------
 0 C  pz              2.7       0.0       2.8       1.6       0.0       4.0
 0 C  px              0.2       2.2       4.0       0.9       0.4       6.3
 0 C  py              0.4       8.7       0.2       0.0       5.1       2.0
 1 C  s               0.1       0.3       0.6       0.0       0.3       0.6
 1 C  pz              5.6       0.0       2.4       0.9       0.0       1.3
 1 C  px              1.1       0.4       1.1       2.3       0.1       0.7
 1 C  py              1.6       8.4       0.7       0.0       0.1       2.8
 1 C  dx2y2           0.1       0.0       0.0       0.0       0.2       0.0
 2 H  s               2.5       0.0       0.7       0.2       0.2       0.5
 3 C  s               0.2       0.6       0.1       0.0       0.0       0.2
 3 C  pz              1.9       0.1       0.0       0.3       0.2       0.5
 3 C  px              0.9       9.2       0.3       0.0       5.0       0.2
 3 C  py              5.6       3.1       0.3       3.1       5.1       3.2
 4 C  s               0.2       0.0       0.1       0.0       0.1       0.4
 4 C  pz              0.8       3.0       0.4       0.8       1.0       2.5
 4 C  px              0.0       0.8       3.2       0.1       0.3       9.7
 4 C  py              5.7       1.2       0.1       0.1       0.3       0.2
 4 C  dyz             0.0       0.0       0.0       0.0       0.0       0.1
 5 C  s               0.0       0.3       0.0       0.0       1.7       0.1
 5 C  pz              1.1       0.6       0.2       0.0       0.0       0.6
 5 C  px             10.6       0.5       0.1       0.5       0.1       0.0
 5 C  py              0.5       2.3       1.1       0.6       0.0       3.7
 5 C  dx2y2           0.0       0.1       0.1       0.0       0.0       0.1
 6 H  s               2.5       0.7       0.6       0.0       0.4       0.7
 7 C  s               0.0       0.2       0.4       0.1       0.1       0.0
 7 C  pz              0.4       1.0       0.8       5.6      11.9       0.5
 7 C  px              0.0       3.7       0.5       0.0       0.2       0.2
 7 C  py              2.0       0.0       2.3       0.0       5.4       2.1
 7 C  dyz             0.0       0.0       0.0       0.0       0.2       0.0
 8 C  s               2.3       0.0       0.3       0.8       0.4       0.1
 8 C  pz              0.3       1.8       1.2       1.6       5.2       0.6
 8 C  px              0.9       3.5       0.6       1.6       0.1       0.7
 8 C  py              0.5       1.9       0.5       0.8       1.1       0.3
 9 O  s               3.8       0.3       0.0       5.7       0.1       0.6
 9 O  pz              1.2       1.7       0.9       0.3       5.8       0.0
 9 O  px              1.9       1.1       0.3      10.4       0.7       2.1
 9 O  py              4.6       2.8       0.3       7.7       0.0       1.0
 9 O  dxy             0.0       0.0       0.0       0.1       0.0       0.0
10 C  s               0.1       0.3       0.0       0.0       0.3       0.2
10 C  pz              4.5       0.7       0.0       6.7       0.1       0.1
10 C  px              0.2       1.7       1.4       3.8       0.1       0.0
10 C  py              1.0       0.2       7.5       0.5       0.1       0.4
10 C  dxz             0.0       0.1       0.0       0.0       0.2       0.1
11 C  s               0.7       0.1       0.0       0.1       0.1       0.0
11 C  pz              6.5       0.0       0.0       8.5       0.1       0.5
11 C  px              1.1       6.8       0.1       6.7       2.0       1.2
11 C  py              0.5       1.3       1.2       0.8       0.2       0.0
12 C  s               0.0       0.0       0.0       0.1       0.0       0.0
12 C  pz              4.8       5.1       0.0       0.1       4.8       2.7
12 C  px              1.4       0.6       2.5       8.7       1.5       6.5
12 C  py              1.0       0.1      30.0       0.9       5.5       8.5
12 C  dxz             0.0       0.0       0.1       0.1       0.1       0.0
12 C  dyz             0.0       0.0       0.2       0.0       0.0       0.3
13 H  s               0.1       3.9       1.1       0.1       1.8       5.3
14 H  s               1.1       1.5       1.6       0.0       1.5       0.1
15 H  s               0.4       0.0       0.3       1.1       0.0       1.2
16 H  s               3.8       0.0       0.2       0.6       5.7       2.6
17 H  s               0.1       4.2       0.1       0.4       0.8       0.1
18 H  s               0.0       2.4       1.3       0.1       0.0       4.1
19 H  s               1.2       0.1       0.7       0.1       0.0       1.9
20 H  s               0.1       0.6       2.7       0.4       9.9       0.3
21 H  s               0.4       0.0       0.1       2.5       2.2       0.8
22 H  s               0.6       1.9       0.0       7.6       1.0       0.9
23 H  s               3.5       3.1       0.0       0.2       0.7       0.3
24 H  s               2.7       1.9       0.3       2.3       5.3       1.8
25 H  s               0.5       0.5      11.0       0.4       3.0       3.3
26 H  s               0.3       1.1       9.6       0.2       0.0       7.1

                     30        31        32        33        34        35   
                  -0.35211  -0.34484  -0.33121  -0.32964  -0.32384  -0.31030
                   2.00000   2.00000   2.00000   2.00000   2.00000   2.00000
                  --------  --------  --------  --------  --------  --------
 0 C  pz             14.6       3.4       0.4       1.4       0.4      16.8
 0 C  px              0.7       3.6       0.1       2.2       0.6       0.1
 0 C  py              0.0       0.4       9.4      12.2       3.8       0.0
 0 C  dz2             0.1       0.1       0.0       0.0       0.0       0.3
 0 C  dxz             0.0       0.0       0.0       0.0       0.0       0.2
 0 C  dyz             0.0       0.0       0.1       0.2       0.0       0.2
 0 C  dx2y2           0.0       0.0       0.0       0.1       0.0       0.0
 1 C  s               0.0       0.1       0.0       0.0       0.1       0.0
 1 C  pz              0.4       0.0       0.0       0.0       0.5       9.2
 1 C  px              2.2       4.5       1.3       4.5       1.5       0.1
 1 C  py              0.4       0.3       0.1       0.8       0.9       0.1
 1 C  dz2             0.0       0.0       0.0       0.0       0.0       0.3
 1 C  dxz             0.1       0.0       0.0       0.0       0.1       0.2
 1 C  dyz             0.0       0.0       0.0       0.1       0.0       0.2
 1 C  dxy             0.0       0.2       0.0       0.0       0.0       0.0
 2 H  s               0.0       0.0       0.0       0.2       0.0       8.6
 3 C  s               0.0       0.3       0.0       0.1       0.1       0.2
 3 C  pz              5.6       2.7       1.5       0.1      11.5       1.1
 3 C  px              0.2       0.7       0.6       1.0       0.0       0.2
 3 C  py              1.3       7.1       0.1       0.6       3.6       0.1
 3 C  dxz             0.1       0.0       0.0       0.0       0.2       0.0
 4 C  s               0.2       0.1       0.0       0.0       0.0       0.0
 4 C  pz              5.6       0.6       0.4       0.6       8.1       0.0
 4 C  px              4.4       3.7       0.5       0.0       0.4       2.1
 4 C  py              0.4       5.5       0.4       7.9       2.2       2.4
 4 C  dz2             0.0       0.1       0.0       0.0       0.0       0.0
 4 C  dxz             0.0       0.0       0.0       0.0       0.3       0.0
 4 C  dxy             0.0       0.0       0.1       0.2       0.0       0.0
 5 C  s               0.0       0.1       0.1       0.2       0.1       0.2
 5 C  pz              5.9       2.7       0.0       0.4       0.9       7.4
 5 C  px              0.4       0.4       1.4       2.0       2.9       0.0
 5 C  py              0.0       0.1       1.8       4.7       0.1       3.0
 5 C  dz2             0.1       0.0       0.0       0.0       0.0       0.0
 5 C  dyz             0.0       0.0       0.0       0.0       0.2       0.0
 5 C  dxy             0.0       0.1       0.0       0.1       0.0       0.1
 6 H  s               3.2       1.0       0.1       0.1       2.7       2.2
 7 C  s               0.0       0.3       0.1       0.0       0.3       0.0
 7 C  pz              0.1       1.5       0.1       0.3       3.9       4.0
 7 C  px              2.2       1.5       2.6       1.6       0.4       0.2
 7 C  py              0.0       7.0       0.6       0.5       3.5       3.4
 7 C  dz2             0.0       0.1       0.0       0.0       0.0       0.1
 7 C  dxz             0.0       0.0       0.0       0.0       0.1       0.0
 7 C  dyz             0.0       0.0       0.0       0.0       0.2       0.0
 7 C  dxy             0.1       0.0       0.0       0.0       0.0       0.2
 8 C  s               0.3       0.3       0.1       0.3       0.1       0.2
 8 C  pz              0.6       1.5       0.3       3.0       6.6       0.1
 8 C  px              3.2       4.3       1.2       0.3       0.1       0.1
 8 C  py              1.1       1.6       0.5       5.2       0.5       3.0
 8 C  dxz             0.0       0.0       0.0       0.1       0.2       0.0
 8 C  dx2y2           0.0       0.1       0.0       0.0       0.3       0.0
 8 C  dxy             0.0       0.1       0.1       0.0       0.0       0.1
 9 O  s               2.3       2.3       0.0       0.1       0.2       0.2
 9 O  pz              0.9       7.0       0.6       7.9       7.7       0.5
 9 O  px              5.5       4.2       0.0       0.3       0.2       3.5
 9 O  py              5.1       2.7       1.6       4.0       6.9       0.8
10 C  s               0.0       0.0       0.1       0.0       0.0       0.1
10 C  pz              3.2       0.0       5.4       2.0       0.8       1.6
10 C  px              0.0       0.6       0.0       0.5       1.8       0.2
10 C  py              0.0       0.2       0.1       0.2       0.2       0.5
10 C  dz2             0.1       0.0       0.2       0.1       0.1       0.1
11 C  s               0.0       0.1       0.2       0.2       0.2       0.1
11 C  pz              3.9       0.1       3.3       1.4       0.6       1.3
11 C  px              2.2       1.1       7.4       1.0       0.1       0.4
11 C  py              0.2       0.0       0.6       0.4       0.0       0.0
11 C  dxz             0.1       0.1       0.1       0.1       0.0       0.0
12 C  pz              0.4       1.2      20.2       6.8       0.1       0.1
12 C  px              2.4       0.6       0.3       0.2       3.0       0.1
12 C  py              0.0       0.6       0.0       0.7       0.9       0.2
12 C  dxz             0.0       0.0       0.1       0.0       0.0       0.0
12 C  dx2y2           0.0       0.0       0.2       0.0       0.0       0.0
12 C  dxy             0.0       0.0       0.2       0.1       0.0       0.0
13 H  s               0.1       0.0       3.1       1.4       0.3       0.8
14 H  s               1.8       0.0       3.1       9.1       2.4       4.1
15 H  s               7.7       3.0       0.8       0.0       0.0      11.7
16 H  s               0.2       4.0       0.6       1.1       0.1       0.0
17 H  s               1.9       1.5       0.6       0.1       5.2       0.4
18 H  s               0.0       3.9       0.0       0.0       3.6       0.4
19 H  s               2.5       4.0       1.3       3.4       0.0       0.1
20 H  s               0.1       0.4       0.2       0.0       3.7       0.0
21 H  s               0.1       2.8       0.1       0.0       2.6       4.2
22 H  s               3.4       0.8       1.3       0.1       0.1       0.9
23 H  s               0.2       0.6       6.5       1.5       0.1       0.0
24 H  s               0.9       0.2       8.5       2.2       0.9       0.0
25 H  s               0.1       1.1       2.5       2.6       0.0       0.2
26 H  s               0.2       0.0       5.8       0.6       0.1       0.0

                     36        37        38        39        40        41   
                  -0.30684  -0.28649  -0.27900  -0.27763  -0.22552  -0.19028
                   2.00000   2.00000   2.00000   2.00000   2.00000   2.00000
                  --------  --------  --------  --------  --------  --------
 0 C  s               0.0       0.4       0.3       0.1       0.0       0.0
 0 C  pz              0.3       0.1       0.0       1.3       0.0       0.1
 0 C  px              3.9       3.8       9.9       0.3       0.0       0.5
 0 C  py              6.9       1.6       0.9       0.1       0.0       0.1
 0 C  dxy             0.2       0.0       0.3       0.0       0.0       0.0
 1 C  s               0.2       0.1       0.0       0.1       0.0       1.0
 1 C  pz              0.0       0.8       0.1       6.0       0.0       2.7
[...]
 1 C  dxz             0.3       0.2       0.1       0.2       0.5       0.1
 1 C  dyz             1.0       0.4       0.1       0.1       0.6       0.0
 1 C  dx2y2           8.3       2.2       0.2       0.0       0.5       0.1
 1 C  dxy             6.6       1.3       0.2       0.2       2.4       0.2
 3 C  dz2             0.4       0.2       0.0       0.0       0.0       0.0
 3 C  dxz             1.6       0.8       0.1       0.0       0.0       0.0
 3 C  dyz             0.1       0.2       0.0       0.0       0.1       0.0
 3 C  dx2y2           0.7       0.3       0.0       0.0       0.0       0.0
 3 C  dxy             0.7       0.1       0.0       0.0       0.1       0.0
 4 C  s               0.1       0.0       0.0       0.0       0.0       0.0
 4 C  py              0.3       0.0       0.0       0.0       0.0       0.0
 4 C  dxz             0.2       0.0       0.0       0.0       0.0       0.0
 4 C  dyz             0.9       0.6       0.0       0.0       0.0       0.0
 4 C  dx2y2           0.1       0.0       0.0       0.0       0.0       0.0
 4 C  dxy             0.1       0.8       1.0       0.0       0.0       0.0
 5 C  s               0.1       0.0       0.5       0.0       0.0       0.0
 5 C  pz              0.0       0.4       0.3       0.0       0.0       0.0
 5 C  px              0.0       0.6       1.0       0.0       0.0       0.0
 5 C  py              0.4       0.3       0.0       0.0       0.1       0.0
 5 C  dz2             1.8       2.2       1.3       0.0       0.0       0.0
 5 C  dxz             0.2       6.5       3.8       0.0       0.0       0.0
 5 C  dyz             1.9       0.0       1.4       0.0       0.1       0.0
 5 C  dx2y2           0.5       0.4       4.8       0.1       0.0       0.0
 5 C  dxy             3.4       1.6       3.3       0.0       0.1       0.0
 6 H  s               0.2       0.0       0.1       0.0       0.0       0.0
 7 C  s               0.4       0.1       0.1       0.1       0.2       0.0
 7 C  px              0.1       0.3       0.0       0.0       0.5       0.0
 7 C  py              0.2       0.2       0.0       0.0       0.1       0.0
 7 C  dz2             1.1       0.0       0.8       0.1       0.1       0.0
 7 C  dxz             0.1       0.7       0.0       0.2       0.3       0.0
 7 C  dyz             2.3       0.1       0.8       0.3       0.0       0.0
 7 C  dx2y2           2.6       3.8       1.4       0.0       0.2       0.2
 7 C  dxy             4.2       0.1       0.3       0.0       3.0       0.1
 8 C  s               0.6       0.3       0.1       0.0       0.0       6.8
 8 C  pz              0.1       0.0       0.0       0.8       0.1       0.6
 8 C  px              0.0       0.0       0.0       0.0       0.2       3.9
 8 C  py              0.0       0.0       0.0       0.2       0.3       2.6
 8 C  dz2             0.2       0.0       0.2       3.4       0.7       0.6
 8 C  dxz             2.2       1.4       0.2       8.2       0.1       0.9
 8 C  dyz             0.4       0.4       0.0       3.6       4.1       0.4
 8 C  dx2y2           0.1       0.0       0.0       1.4      22.0       0.1
 8 C  dxy            15.0       4.1       1.1       1.8       0.2       4.1
 9 O  s               1.5       0.4       0.1       0.0       0.0       6.6
 9 O  pz              0.1       0.0       0.0       1.1       0.2       0.3
 9 O  px              0.6       0.2       0.0       0.0       0.7       2.3
 9 O  py              0.4       0.1       0.0       0.3       0.7       1.5
 9 O  dz2             8.0       1.2       0.3      15.3       1.4       9.1
 9 O  dxz             0.0       0.2       0.1      34.2       0.2       9.5
 9 O  dyz             5.1       2.3       0.4      14.0       9.5       5.6
 9 O  dx2y2           0.0       0.8       0.0       5.7      48.6       1.7
 9 O  dxy             0.3       0.0       0.0       7.9       0.5      42.2
10 C  s               0.6       1.2       0.4       0.0       0.0       0.0
10 C  pz              1.2       3.1       0.2       0.0       0.0       0.0
10 C  px              0.0       0.1       1.1       0.0       0.0       0.0
10 C  dz2             7.8      20.3       7.3       0.0       0.0       0.0
10 C  dxz             0.0       9.7      32.3       0.0       0.0       0.0
10 C  dyz             0.2       1.4       3.7       0.0       0.0       0.0
10 C  dx2y2           0.5       0.5       0.2       0.0       0.0       0.0
10 C  dxy             0.2       0.9       0.3       0.0       0.0       0.0
11 C  s               0.9       2.7       0.4       0.0       0.0       0.0
11 C  pz              1.4       4.0       0.5       0.0       0.0       0.0
11 C  px              0.0       0.0       0.4       0.0       0.0       0.0
11 C  dz2             3.5      10.7       0.3       0.0       0.0       0.0
11 C  dxz             0.6       1.2      15.6       0.0       0.0       0.0
11 C  dyz             0.0       0.4       1.9       0.0       0.0       0.0
11 C  dx2y2           0.0       0.1       0.1       0.0       0.0       0.0
12 C  s               0.0       0.0       0.7       0.0       0.0       0.0
12 C  pz              0.0       0.0       0.2       0.0       0.0       0.0
12 C  px              0.0       0.1       1.2       0.0       0.0       0.0
12 C  py              0.0       0.0       0.2       0.0       0.0       0.0
12 C  dz2             0.1       1.8       1.4       0.0       0.0       0.0
12 C  dxz             1.1       1.4       2.3       0.0       0.0       0.0
12 C  dyz             0.1       0.1       0.2       0.0       0.0       0.0
12 C  dx2y2           0.1       1.1       1.6       0.0       0.0       0.0
12 C  dxy             0.0       0.8       0.9       0.0       0.0       0.0
20 H  s               0.4       0.0       0.0       0.0       0.0       0.0
22 H  s               0.0       0.1       0.8       0.0       0.0       0.0
23 H  s               0.0       0.3       0.9       0.0       0.0       0.0



                      *****************************
                      * MAYER POPULATION ANALYSIS *
                      *****************************

  NA   - Mulliken gross atomic population
  ZA   - Total nuclear charge
  QA   - Mulliken gross atomic charge
  VA   - Mayer's total valence
  BVA  - Mayer's bonded valence
  FA   - Mayer's free valence

  ATOM       NA         ZA         QA         VA         BVA        FA
  0 C      6.2258     6.0000    -0.2258     4.0207     4.0207     0.0000
  1 C      6.1785     6.0000    -0.1785     3.9754     3.9754    -0.0000
  2 H      0.8997     1.0000     0.1003     0.9442     0.9442    -0.0000
  3 C      6.1157     6.0000    -0.1157     4.0935     4.0935     0.0000
  4 C      6.1145     6.0000    -0.1145     4.1809     4.1809     0.0000
  5 C      6.1468     6.0000    -0.1468     4.1149     4.1149     0.0000
  6 H      0.9327     1.0000     0.0673     0.9518     0.9518    -0.0000
  7 C      6.0251     6.0000    -0.0251     3.8228     3.8228    -0.0000
  8 C      6.0502     6.0000    -0.0502     4.4248     4.4248    -0.0000
  9 O      8.1611     8.0000    -0.1611     2.3278     2.3278    -0.0000
 10 C      6.0700     6.0000    -0.0700     4.2919     4.2919     0.0000
 11 C      6.2438     6.0000    -0.2438     3.9630     3.9630     0.0000
 12 C      6.2172     6.0000    -0.2172     3.9292     3.9292    -0.0000
 13 H      0.8878     1.0000     0.1122     0.9729     0.9729     0.0000
 14 H      0.9031     1.0000     0.0969     0.9493     0.9493     0.0000
 15 H      0.8993     1.0000     0.1007     0.9621     0.9621     0.0000
 16 H      0.9134     1.0000     0.0866     0.9609     0.9609     0.0000
 17 H      0.9074     1.0000     0.0926     0.9685     0.9685    -0.0000
 18 H      0.9019     1.0000     0.0981     0.9431     0.9431     0.0000
 19 H      0.9123     1.0000     0.0877     0.9570     0.9570    -0.0000
 20 H      0.9116     1.0000     0.0884     0.9834     0.9834     0.0000
 21 H      0.8859     1.0000     0.1141     0.9704     0.9704    -0.0000
 22 H      0.9131     1.0000     0.0869     0.9516     0.9516     0.0000
 23 H      0.9074     1.0000     0.0926     0.9540     0.9540     0.0000
 24 H      0.9003     1.0000     0.0997     0.9687     0.9687    -0.0000
 25 H      0.8856     1.0000     0.1144     0.9518     0.9518     0.0000
 26 H      0.8899     1.0000     0.1101     0.9598     0.9598     0.0000

  Mayer bond orders larger than 0.100000
B(  0-C ,  1-C ) :   1.1291 B(  0-C , 13-H ) :   0.9385 B(  0-C , 14-H ) :   0.9446 
B(  0-C , 15-H ) :   0.9519 B(  1-C ,  2-H ) :   0.8508 B(  1-C ,  3-C ) :   1.0509 
B(  1-C ,  8-C ) :   0.9634 B(  3-C ,  4-C ) :   1.1839 B(  3-C , 16-H ) :   0.9129 
B(  3-C , 17-H ) :   0.8873 B(  4-C ,  5-C ) :   1.1184 B(  4-C , 18-H ) :   0.8890 
B(  4-C , 19-H ) :   0.9098 B(  5-C ,  6-H ) :   0.8826 B(  5-C ,  7-C ) :   1.0377 
B(  5-C , 10-C ) :   0.9863 B(  7-C ,  8-C ) :   1.0712 B(  7-C , 20-H ) :   0.8818 
B(  7-C , 21-H ) :   0.8677 B(  8-C ,  9-O ) :   2.1898 B( 10-C , 11-C ) :   2.0440 
B( 10-C , 12-C ) :   1.1215 B( 11-C , 22-H ) :   0.9008 B( 11-C , 23-H ) :   0.8932 
B( 12-C , 24-H ) :   0.9410 B( 12-C , 25-H ) :   0.9269 B( 12-C , 26-H ) :   0.9280 


-------
TIMINGS
-------

Total SCF time: 0 days 0 hours 0 min 13 sec 

Total time                  ....      13.545 sec
Sum of individual times     ....      12.997 sec  ( 96.0%)

SCF preparation             ....       0.190 sec  (  1.4%)
Fock matrix formation       ....      11.845 sec  ( 87.4%)
  Startup                   ....       0.060 sec  (  0.5% of F)
  Split-RI-J                ....       5.268 sec  ( 44.5% of F)
  XC integration            ....       5.989 sec  ( 50.6% of F)
    XC Preparation          ....       0.000 sec  (  0.0% of XC)
    Basis function eval.    ....       2.061 sec  ( 34.4% of XC)
    Density eval.           ....       1.167 sec  ( 19.5% of XC)
    XC-Functional eval.     ....       0.405 sec  (  6.8% of XC)
    XC-Potential eval.      ....       1.412 sec  ( 23.6% of XC)
Diagonalization             ....       0.000 sec  (  0.0%)
Density matrix formation    ....       0.195 sec  (  1.4%)
Total Energy calculation    ....       0.034 sec  (  0.3%)
Population analysis         ....       0.102 sec  (  0.8%)
Orbital Transformation      ....       0.047 sec  (  0.3%)
Orbital Orthonormalization  ....       0.000 sec  (  0.0%)
DIIS solution               ....       0.373 sec  (  2.8%)
  MO trafo                  ....       0.000 sec  (  0.0 % of DIIS)
  Orb grad                  ....       0.000 sec  (  0.0 % of DIIS)
  Energy W gradient         ....       0.000 sec  (  0.0 % of DIIS)
  DIIS error                ....       0.006 sec  (  1.6 % of DIIS)
  DIIS work                 ....       0.330 sec  ( 88.5 % of DIIS)
  Form Q                    ....       0.000 sec  (  0.0 % of DIIS)
  Form QpQm                 ....       0.000 sec  (  0.0 % of DIIS)
  Exp/Cayley                ....       0.000 sec  (  0.0 % of DIIS)
  Orb update                ....       0.000 sec  (  0.0 % of DIIS)
  Wake-sleep                ....       0.013 sec  (  3.4 % of DIIS)
SOSCF solution              ....       0.210 sec  (  1.6%)
  MO trafo                  ....       0.065 sec  ( 30.7 % of SOSCF)
  Orb grad                  ....       0.003 sec  (  1.2 % of SOSCF)
  Rot update                ....       0.099 sec  ( 47.1 % of SOSCF)
  Step                      ....       0.044 sec  ( 20.9 % of SOSCF)
Finished LeanSCF after  13.6 sec

Maximum memory used throughout the entire LEANSCF-calculation: 18.6 MB


-------------------------------------------------------------------------------
                          DFT DISPERSION CORRECTION                            
                                                                               
                                DFTD4 V3.4.0                                   
-------------------------------------------------------------------------------
The PBE functional is recognized
Active option DFTDOPT                   ...         5   

-------------------------   ----------------
Dispersion correction           -0.029287741
-------------------------   ----------------

------------------   -----------------
gCP correction             0.114850484
------------------   -----------------

-------------------------   --------------------
FINAL SINGLE POINT ENERGY      -464.821354530118
-------------------------   --------------------


------------------------------------------------------------------------------
                              ORCA PROPERTY CALCULATIONS
------------------------------------------------------------------------------

GBWName                                 ... sp.gbw
Number of atoms                         ...     27
Number of basis functions               ...    186
Max core memory                         ...   1024 MB

Electric properties:
Dipole moment                           ... YES
Quadrupole moment                       ...  NO
Static polarizability (Dipole/Dipole)   ...  NO
Static polarizability (Dipole/Quad.)    ...  NO
Static polarizability (Quad./Quad.)     ...  NO
Static polarizability (Velocity)        ...  NO

Atomic electric properties:
Dipole moment                           ...  NO
Quadrupole moment                       ...  NO
Static polarizability                   ...  NO

Choice of electric origin               ... Center of mass
Position of electric origin             ...     0.000017     0.000017     0.000003

General magnetic properties:
Magnetizability                         ...  NO

EPR properties:
g-Tensor (aka g-matrix)                 ...  NO
Zero-Field splitting spin-orbit         ...  NO
Zero-field splitting spin-spin          ...  NO
Hyperfine couplings                     ...  NO (   0 nuclei)
Quadrupole couplings                    ...  NO (   0 nuclei)
Contact density                         ...  NO (   0 nuclei)

NMR properties:
Chemical shifts                         ...  NO (   0 nuclei)
Spin-rotation constants                 ...  NO (   0 nuclei)
Spin-spin couplings                     ...  NO (   0 nuclei,    0 pairs)

Choice of magnetic origin               ... GIAO
Position of magnetic origin             ...     0.000000     0.000000     0.000000

Properties with geometric perturbations:
SCF Hessian                             ...  NO
IR spectrum                             ...  NO
VCD spectrum                            ...  NO
X-ray spectroscopy properties:
SCF XES/XAS/RIXS spectra                ...  NO


-------------
DIPOLE MOMENT
-------------

Method             : SCF
Type of density    : Electron Density
Multiplicity       :   1
Irrep              :   0
Energy             :  -464.9069172732492916 Eh
Relativity type    : 
Basis              : AO
                                X                 Y                 Z
Electronic contribution:     -3.885518277      -5.793835545      -0.827051425
Nuclear contribution   :      4.775885382       6.474907179       0.932424824
                        -----------------------------------------
Total Dipole Moment    :      0.890367105       0.681071633       0.105373398
                        -----------------------------------------
Magnitude (a.u.)       :      1.125928818
Magnitude (Debye)      :      2.861883618



--------------------
Rotational spectrum 
--------------------
 
Rotational constants in cm-1:             0.069602             0.024309             0.022110 
Rotational constants in MHz :          2086.606788           728.760343           662.830116 

Dipole components along the rotational axes: 
x,y,z [a.u.] :     0.965740     0.578771    -0.009264 
x,y,z [Debye]:     2.454716     1.471119    -0.023547 

 

Dipole moment calculation done in   0.0 sec 

Maximum memory used throughout the entire PROP-calculation: 12.0 MB

--------------------------------
SUGGESTED CITATIONS FOR THIS RUN
--------------------------------

Below you find a list of papers that are relevant to this ORCA run
We neither can nor want to force you to cite these papers, but we appreciate if you do
You receive ORCA, which is the product of decades of hard work by many enthusiastic individuals, for free
The only thing we kindly ask in return is that you cite our papers,
We deeply appreciate it, if you show your appreciation for ORCA by not just citing the generic ORCA reference.

Please note that relegating all ORCA citations to the supporting information does *not* help us.
SI sections are not indexed - citations you put there will not count into any citation statistics
But we need these citations in order to attract the funding resources that allow us to do what we are doing

Therefore, if you are a happy ORCA user, please consider citing a few of the papers listed below in the main body of your paper

In addition to the list printed below, the program has created the file sp.bibtex that contains the list in bibtex format
You can import this file easily into all common literature databanks and citation aid programs


List of essential papers. We consider these as the minimum necessary citations

  1. Neese,F.
     Software update: the ORCA program system, version 5.0
     WIRES Comput. Molec. Sci., 2022 12(1)e1606
     doi.org/10.1002/wcms.1606

List of papers to cite with high priority. The work reported in these papers was absolutely
necessary for this run to complete.
Our perspective: the developers of density functionals and basis sets usually get cited in chemistry papers
Good! But without the algorithms to do something with them, the functionals or basis sets would not do anything.
Hence, in our opinion, the algorithm design and method developments papers are equally worthy of getting cited

  1. Neese,F.
     An improvement of the resolution of the identity approximation for the formation of the Coulomb matrix
     J. Comp. Chem., 2003 24(14)1740-1747
     doi.org/10.1002/jcc.10318
  2. Neese,F.
     The SHARK Integral Generation and Digestion System
     J. Comp. Chem., 2022  1-16
     doi.org/10.1002/jcc.26942
  3. Caldeweyher,E.; Bannwarth,C.; Grimme,S.
     Extension of the D3 dispersion coefficient model
     J. Chem. Phys., 2017 147 034112-XXXX
     doi.org/10.1063/1.4993215
  4. Caldeweyher,E.; Ehlert,S.; Hansen,A.; Neugebauer,H.; Spicher,S.; Bannwarth,C.; Grimme,S.
     A generally applicable atomic-charge dependent London dispersion correction
     J. Chem. Phys., 2019 150 154122-XXXX
     doi.org/10.1063/1.5090222
  5. Caldeweyher,E.; Mewes,J.; Ehlert,S.; Grimme,S.
     Extension and evaluation of the D4 London-dispersion model for periodic systems
     Phys. Chem. Chem. Phys., 2020 22(16)8499-8512
     doi.org/10.1039/D0CP00502A

List of suggested additional citations. These are papers that are important in the 'surrounding' of 
of this run, or papers that preceded the highly important papers. If you like your results we are grateful for a citation.

  1. Neese,F.
     The ORCA program system
     WIRES Comput. Molec. Sci., 2012 2(1)73-78
     doi.org/10.1002/wcms.81
  2. Neese,F.
     Software update: the ORCA program system, version 4.0
     WIRES Comput. Molec. Sci., 2018 8(1)1-6
     doi.org/10.1002/wcms.1327
  3. Neese,F.; Wennmohs,F.; Becker,U.; Riplinger,C.
     The ORCA quantum chemistry program package
     J. Chem. Phys., 2020 152 Art. No. L224108
     doi.org/10.1063/5.0004608

List of optional additional citations

  1. Neese,F.
     Approximate second-order SCF convergence for spin unrestricted wavefunctions
     Chem. Phys. Lett., 2000 325(1-3)93-98
     doi.org/10.1016/s0009-2614(00)00662-x

Timings for individual modules:

Sum of individual times          ...       16.046 sec (=   0.267 min)
Startup calculation              ...        1.088 sec (=   0.018 min)   6.8 %
SCF iterations                   ...       14.847 sec (=   0.247 min)  92.5 %
Property calculations            ...        0.111 sec (=   0.002 min)   0.7 %
                             ****ORCA TERMINATED NORMALLY****
TOTAL RUN TIME: 0 days 0 hours 0 minutes 16 seconds 720 msec
