      -----------------------------------------------------------      
     |                   =====================                   |     
     |                           x T B                           |     
     |                   =====================                   |     
     |                         S. Grimme                         |     
     |          Mulliken Center for Theoretical Chemistry        |     
     |                    University of Bonn                     |     
      -----------------------------------------------------------      

   * xtb version 6.7.1 (edcfbbe) compiled by 'albert@albert-system' on 2024-07-22

   xtb is free software: you can redistribute it and/or modify it under
   the terms of the GNU Lesser General Public License as published by
   the Free Software Foundation, either version 3 of the License, or
   (at your option) any later version.
   
   xtb is distributed in the hope that it will be useful,
   but WITHOUT ANY WARRANTY; without even the implied warranty of
   MERCHANTABILITY or FITNESS FOR A PARTICULAR PURPOSE.  See the
   GNU Lesser General Public License for more details.
   
   Cite this work as:
   * C. Bannwarth, E. Caldeweyher, S. Ehlert, A. Hansen, P. Pracht,
     J. Seibert, S. Spicher, S. Grimme, WIREs Comput. Mol. Sci., 2020, 11,
     e01493. DOI: 10.1002/wcms.1493
   
   for GFN2-xTB:
   * C. Bannwarth, S. Ehlert and S. Grimme., J. Chem. Theory Comput., 2019,
     15, 1652-1671. DOI: 10.1021/acs.jctc.8b01176
   for GFN1-xTB:
   * S. Grimme, C. Bannwarth, P. Shushkov, J. Chem. Theory Comput., 2017,
     13, 1989-2009. DOI: 10.1021/acs.jctc.7b00118
   for GFN0-xTB:
   * P. Pracht, E. Caldeweyher, S. Ehlert, S. Grimme, ChemRxiv, 2019, preprint.
     DOI: 10.26434/chemrxiv.8326202.v1
   for GFN-FF:
   * S. Spicher and S. Grimme, Angew. Chem. Int. Ed., 2020, 59, 15665-15673.
     DOI: 10.1002/anie.202004239
   
   for ALPB and GBSA implicit solvation:
   * S. Ehlert, M. Stahn, S. Spicher, S. Grimme, J. Chem. Theory Comput.,
     2021, 17, 4250-4261. DOI: 10.1021/acs.jctc.1c00471
   
   for ddCOSMO and CPCM-X implicit solvation:
   * M. Stahn, S. Ehlert, S. Grimme, J. Phys. Chem. A,
     2023, XX, XXXX-XXXX. DOI: 10.1021/acs.jpca.3c04382
   
   for DFT-D4:
   * E. Caldeweyher, C. Bannwarth and S. Grimme, J. Chem. Phys., 2017,
     147, 034112. DOI: 10.1063/1.4993215
   * E. Caldeweyher, S. Ehlert, A. Hansen, H. Neugebauer, S. Spicher,
     C. Bannwarth and S. Grimme, J. Chem. Phys., 2019, 150, 154122.
     DOI: 10.1063/1.5090222
   * E. Caldeweyher, J.-M. Mewes, S. Ehlert and S. Grimme, Phys. Chem. Chem. Phys.
     2020, 22, 8499-8512. DOI: 10.1039/D0CP00502A
   
   for sTDA-xTB:
   * S. Grimme and C. Bannwarth, J. Chem. Phys., 2016, 145, 054103.
     DOI: 10.1063/1.4959605
   
   in the mass-spec context:
   * V. Asgeirsson, C. Bauer and S. Grimme, Chem. Sci., 2017, 8, 4879.
     DOI: 10.1039/c7sc00601b
   * J. Koopman and S. Grimme, ACS Omega 2019, 4, 12, 15120-15133.
     DOI: 10.1021/acsomega.9b02011
   
   for metadynamics refer to:
   * S. Grimme, J. Chem. Theory Comput., 2019, 155, 2847-2862
     DOI: 10.1021/acs.jctc.9b00143
   
   for SPH calculations refer to:
   * S. Spicher and S. Grimme, J. Chem. Theory Comput., 2021, 17, 1701-1714
     DOI: 10.1021/acs.jctc.0c01306
   
   for ONIOM refer to:
   * C. Plett, A. Katbashev, S. Ehlert, S. Grimme, M. Bursch,
     Phys. Chem. Chem. Phys., 2023, 25, 17860-17868. DOI: 10.1039/D3CP02178E
   
   for DIPRO refer to:
   * J. Kohn, N. Gildemeister, S. Grimme, D. Fazzi, A. Hansen,
     J. Chem. Phys., 2023, just accepted.
   
   for PTB refer to:
   * S. Grimme, M. Mueller, A. Hansen, J. Chem. Phys., 2023, 158, 124111.
     DOI: 10.1063/5.0137838
   
   with help from (in alphabetical order)
   P. Atkinson, C. Bannwarth, F. Bohle, G. Brandenburg, E. Caldeweyher
   M. Checinski, S. Dohm, S. Ehlert, S. Ehrlich, I. Gerasimov, C. Hölzer
   A. Katbashev, J. Kohn, J. Koopman, C. Lavigne, S. Lehtola, F. März, M. Müller,
   F. Musil, H. Neugebauer, J. Pisarek, C. Plett, P. Pracht, F. Pultar,
   J. Seibert, P. Shushkov, S. Spicher, M. Stahn, M. Steiner, T. Strunk,
   J. Stückrath, T. Rose, and J. Unsleber
   
 * started run on 2025/04/06 at 18:00:43.457     
   ID    Z sym.   atoms
    1    6 C      1, 2, 4, 6, 8, 10
    2    1 H      3, 5, 7, 9, 11, 18-24
    3    8 O      12-17

           -------------------------------------------------
          |                Calculation Setup                |
           -------------------------------------------------

          program call               : /srv/scratch/z5358697/.xtb/bin/xtb gas.coord --gfn2 --sp --chrg 0 --norestart --parallel 1
          hostname                   : k155
          coordinate file            : gas.coord
          omp threads                :                     1


           -------------------------------------------------
          |                 G F N 2 - x T B                 |
           -------------------------------------------------

        Reference                      10.1021/acs.jctc.8b01176
      * Hamiltonian:
        H0-scaling (s, p, d)           1.850000    2.230000    2.230000
        zeta-weighting                 0.500000
      * Dispersion:
        s8                             2.700000
        a1                             0.520000
        a2                             5.000000
        s9                             5.000000
      * Repulsion:
        kExp                           1.500000    1.000000
        rExp                           1.000000
      * Coulomb:
        alpha                          2.000000
        third order                    shell-resolved
        anisotropic                    true
        a3                             3.000000
        a5                             4.000000
        cn-shift                       1.200000
        cn-exp                         4.000000
        max-rad                        5.000000


          ...................................................
          :                      SETUP                      :
          :.................................................:
          :  # basis functions                  60          :
          :  # atomic orbitals                  60          :
          :  # shells                           36          :
          :  # electrons                        72          :
          :  max. iterations                   250          :
          :  Hamiltonian                  GFN2-xTB          :
          :  restarted?                      false          :
          :  GBSA solvation                  false          :
          :  PC potential                    false          :
          :  electronic temp.          300.0000000     K    :
          :  accuracy                    1.0000000          :
          :  -> integral cutoff          0.2500000E+02      :
          :  -> integral neglect         0.1000000E-07      :
          :  -> SCF convergence          0.1000000E-05 Eh   :
          :  -> wf. convergence          0.1000000E-03 e    :
          :  Broyden damping             0.4000000          :
          :  net charge                          0          :
          :  unpaired electrons                  0          :
          ...................................................

 iter      E             dE          RMSdq      gap      omega  full diag
   1    -43.6214586 -0.436215E+02  0.458E+00   10.48       0.0  T
   2    -43.6558088 -0.343501E-01  0.251E+00   10.21       1.0  T
   3    -43.6570272 -0.121843E-02  0.698E-01   10.28       1.0  T
   4    -43.6577526 -0.725428E-03  0.137E-01   10.26       1.0  T
   5    -43.6578070 -0.543634E-04  0.480E-02   10.29       1.0  T
   6    -43.6578169 -0.996214E-05  0.184E-02   10.29       1.1  T
   7    -43.6578174 -0.502448E-06  0.558E-03   10.29       3.7  T
   8    -43.6578177 -0.246826E-06  0.161E-03   10.29      12.7  T
   9    -43.6578177 -0.318877E-08  0.626E-04   10.29      32.6  T
  10    -43.6578177 -0.204000E-08  0.227E-04   10.29      89.7  T

   *** convergence criteria satisfied after 10 iterations ***

         #    Occupation            Energy/Eh            Energy/eV
      -------------------------------------------------------------
         1        2.0000           -0.7254326             -19.7400
       ...           ...                  ...                  ...
        30        2.0000           -0.4649272             -12.6513
        31        2.0000           -0.4577432             -12.4558
        32        2.0000           -0.4469458             -12.1620
        33        2.0000           -0.4362802             -11.8718
        34        2.0000           -0.4259314             -11.5902
        35        2.0000           -0.4152974             -11.3008
        36        2.0000           -0.4047969             -11.0151 (HOMO)
        37                         -0.0266732              -0.7258 (LUMO)
        38                         -0.0030244              -0.0823
        39                          0.0112855               0.3071
        40                          0.0181221               0.4931
        41                          0.0204772               0.5572
       ...                                ...                  ...
        60                          0.2896550               7.8819
      -------------------------------------------------------------
                  HL-Gap            0.3781237 Eh           10.2893 eV
             Fermi-level           -0.2157351 Eh           -5.8705 eV

 SCC (total)                   0 d,  0 h,  0 min,  0.028 sec
 SCC setup                      ...        0 min,  0.000 sec (  0.640%)
 Dispersion                     ...        0 min,  0.000 sec (  0.499%)
 classical contributions        ...        0 min,  0.000 sec (  0.099%)
 integral evaluation            ...        0 min,  0.003 sec ( 10.249%)
 iterations                     ...        0 min,  0.017 sec ( 61.359%)
 molecular gradient             ...        0 min,  0.008 sec ( 26.641%)
 printout                       ...        0 min,  0.000 sec (  0.474%)

         :::::::::::::::::::::::::::::::::::::::::::::::::::::
         ::                     SUMMARY                     ::
         :::::::::::::::::::::::::::::::::::::::::::::::::::::
         :: total energy             -43.356459089760 Eh    ::
         :: gradient norm              0.015110653720 Eh/a0 ::
         :: HOMO-LUMO gap             10.289270094376 eV    ::
         ::.................................................::
         :: SCC energy               -43.657630715098 Eh    ::
         :: -> isotropic ES            0.138205973342 Eh    ::
         :: -> anisotropic ES         -0.001959672685 Eh    ::
         :: -> anisotropic XC         -0.009639716880 Eh    ::
         :: -> dispersion             -0.019879177440 Eh    ::
         :: repulsion energy           0.301171625338 Eh    ::
         :: add. restraining           0.000000000000 Eh    ::
         :: total charge              -0.000000000000 e     ::
         :::::::::::::::::::::::::::::::::::::::::::::::::::::

           -------------------------------------------------
          |                Property Printout                |
           -------------------------------------------------

    * Orbital Energies and Occupations

         #    Occupation            Energy/Eh            Energy/eV
      -------------------------------------------------------------
         1        2.0000           -0.7254326             -19.7400
       ...           ...                  ...                  ...
        24        2.0000           -0.5095994             -13.8669
        25        2.0000           -0.5022019             -13.6656
        26        2.0000           -0.4994279             -13.5901
        27        2.0000           -0.4976691             -13.5423
        28        2.0000           -0.4785345             -13.0216
        29        2.0000           -0.4697425             -12.7823
        30        2.0000           -0.4649272             -12.6513
        31        2.0000           -0.4577432             -12.4558
        32        2.0000           -0.4469458             -12.1620
        33        2.0000           -0.4362802             -11.8718
        34        2.0000           -0.4259314             -11.5902
        35        2.0000           -0.4152974             -11.3008
        36        2.0000           -0.4047969             -11.0151 (HOMO)
        37                         -0.0266732              -0.7258 (LUMO)
        38                         -0.0030244              -0.0823
        39                          0.0112855               0.3071
        40                          0.0181221               0.4931
        41                          0.0204772               0.5572
        42                          0.0460473               1.2530
        43                          0.0753704               2.0509
        44                          0.0891770               2.4266
        45                          0.0983114               2.6752
        46                          0.1008914               2.7454
        47                          0.1136315               3.0921
       ...                                ...                  ...
        60                          0.2896550               7.8819
      -------------------------------------------------------------
                  HL-Gap            0.3781237 Eh           10.2893 eV
             Fermi-level           -0.2157351 Eh           -5.8705 eV

     #   Z          covCN         q      C6AA      α(0)
     1   6 C        3.673     0.066    19.698     6.361
     2   6 C        3.734     0.085    19.249     6.262
     3   1 H        0.924     0.068     2.113     2.273
     4   6 C        3.728     0.090    19.179     6.252
     5   1 H        0.924     0.073     2.053     2.240
     6   6 C        3.728     0.101    19.011     6.225
     7   1 H        0.922     0.014     2.819     2.626
     8   6 C        3.727     0.071    19.493     6.304
     9   1 H        0.924     0.069     2.102     2.267
    10   6 C        3.613     0.230    17.444     6.029
    11   1 H        0.924     0.054     2.271     2.357
    12   8 O        1.699    -0.344    19.778     6.004
    13   8 O        1.655    -0.450    21.842     6.309
    14   8 O        1.655    -0.435    21.543     6.266
    15   8 O        1.655    -0.440    21.636     6.279
    16   8 O        1.656    -0.426    21.362     6.239
    17   8 O        1.654    -0.447    21.780     6.300
    18   1 H        0.924     0.041     2.442     2.444
    19   1 H        0.924     0.049     2.336     2.390
    20   1 H        0.803     0.325     0.650     1.267
    21   1 H        0.804     0.294     0.739     1.351
    22   1 H        0.804     0.311     0.689     1.304
    23   1 H        0.805     0.297     0.730     1.342
    24   1 H        0.805     0.304     0.709     1.323

 Mol. C6AA /au·bohr⁶  :       4690.479381
 Mol. C8AA /au·bohr⁸  :      99793.620860
 Mol. α(0) /au        :         98.013278


Wiberg/Mayer (AO) data.
largest (>0.10) Wiberg bond orders for each atom

 ---------------------------------------------------------------------------
     #   Z sym  total        # sym  WBO       # sym  WBO       # sym  WBO
 ---------------------------------------------------------------------------
     1   6 C    3.952 --    17 O    0.986     2 C    0.984    18 H    0.972
                            19 H    0.968
     2   6 C    3.950 --     1 C    0.984    12 O    0.973     3 H    0.956
                             4 C    0.953
     3   1 H    0.995 --     2 C    0.956
     4   6 C    3.960 --    16 O    1.009     6 C    0.970     5 H    0.956
                             2 C    0.953
     5   1 H    0.995 --     4 C    0.956
     6   6 C    3.966 --    15 O    1.005     4 C    0.970     8 C    0.963
                             7 H    0.953
     7   1 H    1.000 --     6 C    0.953
     8   6 C    3.953 --    14 O    1.000     6 C    0.963     9 H    0.954
                            10 C    0.949
     9   1 H    0.995 --     8 C    0.954
    10   6 C    3.937 --    13 O    1.023    12 O    0.960     8 C    0.949
                            11 H    0.948
    11   1 H    0.997 --    10 C    0.948
    12   8 O    2.084 --     2 C    0.973    10 C    0.960
    13   8 O    1.982 --    10 C    1.023    20 H    0.841
    14   8 O    1.986 --     8 C    1.000    21 H    0.894
    15   8 O    1.958 --     6 C    1.005    22 H    0.877
    16   8 O    1.981 --     4 C    1.009    23 H    0.893
    17   8 O    1.981 --     1 C    0.986    24 H    0.892
    18   1 H    0.998 --     1 C    0.972
    19   1 H    0.997 --     1 C    0.968
    20   1 H    0.894 --    13 O    0.841
    21   1 H    0.914 --    14 O    0.894
    22   1 H    0.903 --    15 O    0.877
    23   1 H    0.912 --    16 O    0.893
    24   1 H    0.908 --    17 O    0.892
 ---------------------------------------------------------------------------

Topologies differ in total number of bonds
Writing topology from bond orders to xtbtopo.mol

molecular dipole:
                 x           y           z       tot (Debye)
 q only:       -0.515      -0.284       0.009
   full:       -0.563      -0.448       0.157       1.872
molecular quadrupole (traceless):
                xx          xy          yy          xz          yz          zz
 q only:        6.297       9.818     -10.093       5.681       6.098       3.796
  q+dip:        7.292      14.032     -14.257      10.234       7.611       6.965
   full:        7.905      13.914     -14.471       9.598       8.041       6.566


           -------------------------------------------------
          | TOTAL ENERGY              -43.356459089760 Eh   |
          | GRADIENT NORM               0.015110653720 Eh/α |
          | HOMO-LUMO GAP              10.289270094376 eV   |
           -------------------------------------------------

------------------------------------------------------------------------
 * finished run on 2025/04/06 at 18:00:43.517     
------------------------------------------------------------------------
 total:
 * wall-time:     0 d,  0 h,  0 min,  0.059 sec
 *  cpu-time:     0 d,  0 h,  0 min,  0.028 sec
 * ratio c/w:     0.473 speedup
 SCF:
 * wall-time:     0 d,  0 h,  0 min,  0.028 sec
 *  cpu-time:     0 d,  0 h,  0 min,  0.019 sec
 * ratio c/w:     0.682 speedup

