
                                 *****************
                                 * O   R   C   A *
                                 *****************

                                            #,                                       
                                            ###                                      
                                            ####                                     
                                            #####                                    
                                            ######                                   
                                           ########,                                 
                                     ,,################,,,,,                         
                               ,,#################################,,                 
                          ,,##########################################,,             
                       ,#########################################, ''#####,          
                    ,#############################################,,   '####,        
                  ,##################################################,,,,####,       
                ,###########''''           ''''###############################       
              ,#####''   ,,,,##########,,,,          '''####'''          '####       
            ,##' ,,,,###########################,,,                        '##       
           ' ,,###''''                  '''############,,,                           
         ,,##''                                '''############,,,,        ,,,,,,###''
      ,#''                                            '''#######################'''  
     '                                                          ''''####''''         
             ,#######,   #######,   ,#######,      ##                                
            ,#'     '#,  ##    ##  ,#'     '#,    #''#        ,####,   ,####,        
            ##       ##  ##   ,#'  ##            #'  '#       #'       #'  '#        
            ##       ##  #######   ##           ,######,      #####,   #    #        
            '#,     ,#'  ##    ##  '#,     ,#' ,#      #,     #,   #   #,  ,#        
             '#######'   ##     ##  '#######'  #'      '#     '####' # '####'        



                #########################################################
                #                        -***-                          #
                #          Department of theory and spectroscopy        #
                #                                                       #
                #                      Frank Neese                      #
                #                                                       #
                #     Directorship, Architecture, Infrastructure        #
                #                    SHARK, DRIVERS                     #
                #        Core code/Algorithms in most modules           #
                #                                                       #
                #        Max Planck Institute fuer Kohlenforschung      #
                #                Kaiser Wilhelm Platz 1                 #
                #                 D-45470 Muelheim/Ruhr                 #
                #                      Germany                          #
                #                                                       #
                #                  All rights reserved                  #
                #                        -***-                          #
                #########################################################


                         Program Version 6.0.0  -   RELEASE  -


 With contributions from (in alphabetic order):
   Daniel Aravena         : Magnetic Suceptibility
   Michael Atanasov       : Ab Initio Ligand Field Theory (pilot matlab implementation)
   Alexander A. Auer      : GIAO ZORA, VPT2 properties, NMR spectrum
   Ute Becker             : All parallelization in ORCA, NUMFREQ, NUMCALC
   Giovanni Bistoni       : ED, misc. LED, open-shell LED, HFLD
   Martin Brehm           : Molecular dynamics
   Dmytro Bykov           : pre 5.0 version of the SCF Hessian
   Marcos Casanova-Páez   : Triplet and SCS-CIS(D). UHF-(DLPNO)-IP/EA/STEOM-CCSD. UHF-CVS-IP/STEOM-CCSD
   Vijay G. Chilkuri      : MRCI spin determinant printing, contributions to CSF-ICE
   Pauline Colinet        : FMM embedding
   Dipayan Datta          : RHF DLPNO-CCSD density
   Achintya Kumar Dutta   : EOM-CC, STEOM-CC
   Nicolas Foglia         : Exact transition moments, OPA infrastructure, MCD improvements
   Dmitry Ganyushin       : Spin-Orbit,Spin-Spin,Magnetic field MRCI
   Miquel Garcia          : C-PCM and meta-GGA Hessian, CCSD/C-PCM, Gaussian charge scheme
   Tiago L. C. Gouveia    : GS-ROHF, GS-ROCIS
   Yang Guo               : DLPNO-NEVPT2, F12-NEVPT2, CIM, IAO-localization
   Andreas Hansen         : Spin unrestricted coupled pair/coupled cluster methods
   Ingolf Harden          : AUTO-CI MPn and infrastructure 
   Benjamin Helmich-Paris : MC-RPA, TRAH-(SCF,CASSCF), AVAS, COSX integrals, SCF dyn. polar.
   Lee Huntington         : MR-EOM, pCC
   Robert Izsak           : Overlap fitted RIJCOSX, COSX-SCS-MP3, EOM
   Riya Kayal             : Wick's Theorem for AUTO-CI, AUTO-CI UHF-CCSDT
   Emily Kempfer          : AUTO-CI, RHF CISDT and CCSDT
   Christian Kollmar      : KDIIS, OOCD, Brueckner-CCSD(T), CCSD density, CASPT2, CASPT2-K, improved NEVPT2
   Axel Koslowski         : Symmetry handling
   Simone Kossmann        : Meta GGA functionals, TD-DFT gradient, OOMP2, (MP2 Hessian; deprecated post 5.0)
   Lucas Lang             : DCDCAS
   Marvin Lechner         : AUTO-CI (C++ implementation), FIC-MRCC
   Spencer Leger          : CASSCF response
   Dagmar Lenk            : GEPOL surface, SMD, ORCA-2-JSON
   Dimitrios Liakos       : Extrapolation schemes; Compound Job, initial MDCI parallelization
   Dimitrios Manganas     : Further ROCIS development; embedding schemes. LFT, Crystal Embedding
   Dimitrios Pantazis     : SARC Basis sets
   Anastasios Papadopoulos: AUTO-CI, single reference methods and gradients
   Taras Petrenko         : pre 6.0 DFT Hessian and TD-DFT gradient, (ASA, deprecated), ECA, 1-Electron XAS/XES, NRVS
   Peter Pinski           : DLPNO-MP2, DLPNO-MP2 Gradient
   Christoph Reimann      : Effective Core Potentials
   Marius Retegan         : Local ZFS, SOC
   Christoph Riplinger    : Optimizer, TS searches, QM/MM, DLPNO-CCSD(T), (RO)-DLPNO pert. Triples
   Michael Roemelt        : Original ROCIS implementation
   Masaaki Saitow         : Open-shell DLPNO-CCSD energy and density
   Barbara Sandhoefer     : DKH picture change effects
   Kantharuban Sivalingam : CASSCF convergence/infrastructure, NEVPT2 and variants, FIC-MRCI
   Bernardo de Souza      : ESD, SOC TD-DFT
   Georgi Stoychev        : AutoAux, RI-MP2 NMR, DLPNO-MP2 response, X2C
   Van Anh Tran           : RI-MP2 g-tensors
   Willem Van den Heuvel  : Paramagnetic NMR
   Zikuan Wang            : NOTCH, Electric field optimization 
   Frank Wennmohs         : Technical directorship and infrastructure
   Hang Xu                : AUTO-CI-Response properties 


 We gratefully acknowledge several colleagues who have allowed us to
 interface, adapt or use parts of their codes:
   Stefan Grimme, W. Hujo, H. Kruse, P. Pracht,  : VdW corrections, initial TS optimization,
                  C. Bannwarth, S. Ehlert,         DFT functionals, gCP, sTDA/sTD-DF
                  L. Wittmann, M. Mueller
   Ed Valeev, F. Pavosevic, A. Kumar             : LibInt (2-el integral package), F12 methods
   Garnet Chan, S. Sharma, J. Yang, R. Olivares  : DMRG
   Ulf Ekstrom                                   : XCFun DFT Library
   Mihaly Kallay                                 : mrcc  (arbitrary order and MRCC methods)
   Frank Weinhold                                : gennbo (NPA and NBO analysis)
   Simon Mueller                                 : openCOSMO-RS
   Christopher J. Cramer and Donald G. Truhlar   : smd solvation model
   Lars Goerigk                                  : TD-DFT with DH, B97 family of functionals
   V. Asgeirsson, H. Jonsson                     : NEB implementation
   FAccTs GmbH                                   : IRC, NEB, NEB-TS, DLPNO-Multilevel, CI-OPT
                                                   MM, QMMM, 2- and 3-layer-ONIOM, Crystal-QMMM,
                                                   LR-CPCM, SF, NACMEs, symmetry and pop. for TD-DFT,
                                                   nearIR, NL-DFT gradient (VV10), updates on ESD,
                                                   ML-optimized integration grids, MBIS, APM,
                                                   GOAT, DOCKER, SOLVATOR, interface openCOSMO-RS
   S Lehtola, MJT Oliveira, MAL Marques          : LibXC Library
   Liviu Ungur et al                             : ANISO software


 Your calculation uses the libint2 library for the computation of 2-el integrals
 For citations please refer to: http://libint.valeyev.net

 Your ORCA version has been built with support for libXC version: 6.2.2
 For citations please refer to: https://libxc.gitlab.io

 This ORCA versions uses:
   CBLAS   interface :  Fast vector & matrix operations
   LAPACKE interface :  Fast linear algebra routines
   SCALAPACK package :  Parallel linear algebra routines
   Shared memory     :  Shared parallel matrices
   BLAS/LAPACK       :  OpenBLAS 0.3.27  USE64BITINT DYNAMIC_ARCH NO_AFFINITY SkylakeX SINGLE_THREADED
        Core in use  :  SkylakeX
   Copyright (c) 2011-2014, The OpenBLAS Project


Your calculation utilizes the geometrical counterpoise correction gCP
Please cite in your paper:
H.Kruse, S. Grimme J.Chem.Phys., 136, (2012), 154101 
   

Your calculation utilizes the atom-pairwise dispersion correction
based on EEQ partial charges (D4)


================================================================================

----- Orbital basis set information -----
Your calculation utilizes the basis: def2-SV(P)
   F. Weigend and R. Ahlrichs, Phys. Chem. Chem. Phys. 7, 3297 (2005).

----- AuxJ basis set information -----
Your calculation utilizes the auxiliary basis: def2/J
   F. Weigend, Phys. Chem. Chem. Phys. 8, 1057 (2006).

================================================================================
                                        WARNINGS
                       Please study these warnings very carefully!
================================================================================


================================================================================
                                       INPUT FILE
================================================================================
NAME = sp.inp
|  1> ! pbe def2-sv(p) def2/J RI DEFGRID1 loosescf d4 GCP(DFT/SV(P)) printgap
|  2> %output
|  3>     printlevel normal
|  4> end
|  5> * xyz 0 1
|  6> C 2.3936837248 0.0551607497 -0.0002022181
|  7> C 0.9033362565 0.0146528244 0.0007963477
|  8> C 0.1324435304 1.1815640361 0.0001419691
|  9> N -1.1891024027 1.1565898736 -0.0002178968
| 10> C -1.7694411426 -0.0387342603 -7.25594e-05
| 11> C -1.0165785997 -1.2025804245 -0.0002053331
| 12> N 0.3093098107 -1.1755539709 0.0002508327
| 13> H 2.7520668876 0.6166601576 0.8596791484
| 14> H 2.786953178 -0.9555783658 0.0344938947
| 15> H 2.750899898 0.552467262 -0.8995682206
| 16> H 0.591346107 2.1604599639 0.0001919836
| 17> H -2.8492495642 -0.0484620933 0.000214989
| 18> H -1.4734543666 -2.1819260408 -0.000929522
| 19> *
| 20> 
| 21>                          ****END OF INPUT****
================================================================================

                       ****************************
                       * Single Point Calculation *
                       ****************************

---------------------------------
CARTESIAN COORDINATES (ANGSTROEM)
---------------------------------
  C      2.393684    0.055161   -0.000202
  C      0.903336    0.014653    0.000796
  C      0.132444    1.181564    0.000142
  N     -1.189102    1.156590   -0.000218
  C     -1.769441   -0.038734   -0.000073
  C     -1.016579   -1.202580   -0.000205
  N      0.309310   -1.175554    0.000251
  H      2.752067    0.616660    0.859679
  H      2.786953   -0.955578    0.034494
  H      2.750900    0.552467   -0.899568
  H      0.591346    2.160460    0.000192
  H     -2.849250   -0.048462    0.000215
  H     -1.473454   -2.181926   -0.000930

----------------------------
CARTESIAN COORDINATES (A.U.)
----------------------------
  NO LB      ZA    FRAG     MASS         X           Y           Z
   0 C     6.0000    0    12.011    4.523407    0.104239   -0.000382
   1 C     6.0000    0    12.011    1.707058    0.027690    0.001505
   2 C     6.0000    0    12.011    0.250282    2.232832    0.000268
   3 N     7.0000    0    14.007   -2.247078    2.185638   -0.000412
   4 C     6.0000    0    12.011   -3.343759   -0.073197   -0.000137
   5 C     6.0000    0    12.011   -1.921055   -2.272548   -0.000388
   6 N     7.0000    0    14.007    0.584511   -2.221475    0.000474
   7 H     1.0000    0     1.008    5.200653    1.165319    1.624558
   8 H     1.0000    0     1.008    5.266578   -1.805781    0.065184
   9 H     1.0000    0     1.008    5.198447    1.044012   -1.699938
  10 H     1.0000    0     1.008    1.117482    4.082678    0.000363
  11 H     1.0000    0     1.008   -5.384301   -0.091580    0.000406
  12 H     1.0000    0     1.008   -2.784425   -4.123243   -0.001757

--------------------------------
INTERNAL COORDINATES (ANGSTROEM)
--------------------------------
 C      0   0   0     0.000000000000     0.00000000     0.00000000
 C      1   0   0     1.490898207596     0.00000000     0.00000000
 C      2   1   0     1.398555611821   121.89285698     0.00000000
 N      3   2   1     1.321781937987   122.36719122   179.93664229
 C      4   3   2     1.328756132342   116.97954302     0.00000000
 C      5   4   3     1.386124063731   121.20527876   359.96909261
 N      6   5   4     1.326163909219   121.73006263     0.03721668
 H      1   2   3     1.087711377574   110.05111299    57.38564141
 H      1   2   3     1.085107479776   109.69183557   178.09552203
 H      1   2   3     1.088014874910   109.94819784   298.51785476
 H      3   2   1     1.081123866527   121.43317832   359.91862753
 H      5   4   3     1.079852277294   116.41307315   179.96538280
 H      6   5   4     1.080672858453   122.09261153   180.05253071

---------------------------
INTERNAL COORDINATES (A.U.)
---------------------------
 C      0   0   0     0.000000000000     0.00000000     0.00000000
 C      1   0   0     2.817389305911     0.00000000     0.00000000
 C      2   1   0     2.642887089401   121.89285698     0.00000000
 N      3   2   1     2.497805871559   122.36719122   179.93664229
 C      4   3   2     2.510985188894   116.97954302     0.00000000
 C      5   4   3     2.619394868089   121.20527876   359.96909261
 N      6   5   4     2.506086597114   121.73006263     0.03721668
 H      1   2   3     2.055476616366   110.05111299    57.38564141
 H      1   2   3     2.050555962646   109.69183557   178.09552203
 H      1   2   3     2.056050143212   109.94819784   298.51785476
 H      3   2   1     2.043028024583   121.43317832   359.91862753
 H      5   4   3     2.040625069177   116.41307315   179.96538280
 H      6   5   4     2.042175742837   122.09261153   180.05253071

---------------------
BASIS SET INFORMATION
---------------------
There are 3 groups of distinct atoms

 Group   1 Type C   : 7s4p1d contracted to 3s2p1d pattern {511/31/1}
 Group   2 Type N   : 7s4p1d contracted to 3s2p1d pattern {511/31/1}
 Group   3 Type H   : 4s contracted to 2s pattern {31}

Atom   0C    basis set group =>   1
Atom   1C    basis set group =>   1
Atom   2C    basis set group =>   1
Atom   3N    basis set group =>   2
Atom   4C    basis set group =>   1
Atom   5C    basis set group =>   1
Atom   6N    basis set group =>   2
Atom   7H    basis set group =>   3
Atom   8H    basis set group =>   3
Atom   9H    basis set group =>   3
Atom  10H    basis set group =>   3
Atom  11H    basis set group =>   3
Atom  12H    basis set group =>   3
---------------------------------
AUXILIARY/J BASIS SET INFORMATION
---------------------------------
There are 3 groups of distinct atoms

 Group   1 Type C   : 12s5p4d2f1g contracted to 6s4p3d1f1g pattern {711111/2111/211/2/1}
 Group   2 Type N   : 12s5p4d2f1g contracted to 6s4p3d1f1g pattern {711111/2111/211/2/1}
 Group   3 Type H   : 5s2p1d contracted to 3s1p1d pattern {311/2/1}

Atom   0C    basis set group =>   1
Atom   1C    basis set group =>   1
Atom   2C    basis set group =>   1
Atom   3N    basis set group =>   2
Atom   4C    basis set group =>   1
Atom   5C    basis set group =>   1
Atom   6N    basis set group =>   2
Atom   7H    basis set group =>   3
Atom   8H    basis set group =>   3
Atom   9H    basis set group =>   3
Atom  10H    basis set group =>   3
Atom  11H    basis set group =>   3
Atom  12H    basis set group =>   3
------------------------------------------------------------------------------
                             ORCA STARTUP CALCULATIONS
                           -- RI-GTO INTEGRALS CHOSEN --
------------------------------------------------------------------------------
------------------------------------------------------------------------------
                   ___                                                        
                  /   \      - P O W E R E D   B Y -                         
                 /     \                                                     
                 |  |  |   _    _      __       _____    __    __             
                 |  |  |  | |  | |    /  \     |  _  \  |  |  /  |          
                  \  \/   | |  | |   /    \    | | | |  |  | /  /          
                 / \  \   | |__| |  /  /\  \   | |_| |  |  |/  /          
                |  |  |   |  __  | /  /__\  \  |    /   |      \           
                |  |  |   | |  | | |   __   |  |    \   |  |\   \          
                \     /   | |  | | |  |  |  |  | |\  \  |  | \   \       
                 \___/    |_|  |_| |__|  |__|  |_| \__\ |__|  \__/        
                                                                              
                      - O R C A' S   B I G   F R I E N D -                    
                                      &                                       
                       - I N T E G R A L  F E E D E R -                       
                                                                              
 v1 FN, 2020, v2 2021, v3 2022-2024                                           
------------------------------------------------------------------------------


----------------------
SHARK INTEGRAL PACKAGE
----------------------

Number of atoms                             ...     13
Number of basis functions                   ...    110
Number of shells                            ...     54
Maximum angular momentum                    ...      2
Integral batch strategy                     ... SHARK/LIBINT Hybrid
RI-J (if used) integral strategy            ... SPLIT-RIJ (Revised 2003 algorithm where possible)
Printlevel                                  ...      1
Contraction scheme used                     ... SEGMENTED contraction
Prescreening option                         ... SCHWARTZ
   Thresh                                   ... 1.000e-09
   Tcut                                     ... 1.000e-10
   Tpresel                                  ... 1.000e-10 
Coulomb Range Separation                    ... NOT USED
Exchange Range Separation                   ... NOT USED
Multipole approximations                    ... NOT USED
Finite Nucleus Model                        ... NOT USED
CABS basis                                  ... NOT available
Auxiliary Coulomb fitting basis             ... AVAILABLE
   # of basis functions in Aux-J            ...    409
   # of shells in Aux-J                     ...    135
   Maximum angular momentum in Aux-J        ...      4
Auxiliary J/K fitting basis                 ... NOT available
Auxiliary Correlation fitting basis         ... NOT available
Auxiliary 'external' fitting basis          ... NOT available

Checking pre-screening integrals            ... done (  0.0 sec) Dimension = 54
Check shell pair data                       ... done (  0.0 sec)
Shell pair information
Shell pair cut-off parameter TPreSel        ...   1.0e-10
Total number of shell pairs                 ...      1485
Shell pairs after pre-screening             ...      1444
Total number of primitive shell pairs       ...      5995
Primitive shell pairs kept                  ...      4288
          la=0 lb=0:    531 shell pairs
          la=1 lb=0:    458 shell pairs
          la=1 lb=1:    105 shell pairs
          la=2 lb=0:    224 shell pairs
          la=2 lb=1:     98 shell pairs
          la=2 lb=2:     28 shell pairs

Calculating one electron integrals          ... done (  0.0 sec)
Calculating RI/J V-Matrix + Cholesky decomp.... done (  0.1 sec)
Calculating Nuclear repulsion               ... done (  0.0 sec) ENN=    277.283568544962 Eh

Diagonalization of the overlap matrix:
Smallest eigenvalue                        ... 1.873e-03
Time for diagonalization                   ...    0.001 sec
Threshold for overlap eigenvalues          ... 1.000e-07
Number of eigenvalues below threshold      ... 0
Time for construction of square roots      ...    0.015 sec
Total time needed                          ...    0.024 sec

-------------------
DFT GRID GENERATION
-------------------

General Integration Accuracy     IntAcc      ... 4.159
Radial Grid Type                 RadialGrid  ... OptM3 with GC (2021)
Angular Grid (max. ang.)         AngularGrid ... 3 (Lebedev-194)
Angular grid pruning method      GridPruning ... 4 (adaptive)
Weight generation scheme         WeightScheme... mBecke (2022)
Basis function cutoff            BFCut       ... 1.0000e-10
Integration weight cutoff        WCut        ... 1.0000e-14
Partially contracted basis set               ... off
Rotationally invariant grid construction     ... off
Angular grids for H and He will be reduced by one unit

Total number of grid points                  ...    31499
Total number of batches                      ...      499
Average number of points per batch           ...       63
Average number of grid points per atom       ...     2423
Initializing property integral containers    ... done (  0.0 sec)

SHARK setup successfully completed in   0.5 seconds

Maximum memory used throughout the entire STARTUP-calculation: 15.8 MB
-------------------------------------------------------------------------------
                                 ORCA GUESS
                   Start orbitals & Density for SCF / CASSCF
-------------------------------------------------------------------------------

------------
SCF SETTINGS
------------
Hamiltonian:
 Density Functional     Method          .... DFT(GTOs)
 Exchange Functional    Exchange        .... PBE
   PBE kappa parameter   XKappa         ....  0.804000
   PBE mue parameter    XMuePBE         ....  0.219520
 Correlation Functional Correlation     .... PBE
   PBE beta parameter  CBetaPBE         ....  0.066725
 LDA part of GGA corr.  LDAOpt          .... PW91-LDA
 Gradients option       PostSCFGGA      .... off
   NL short-range parameter             ....  6.400000
 RI-approximation to the Coulomb term is turned on
   Number of AuxJ basis functions       .... 409


General Settings:
 Integral files         IntName         .... sp
 Hartree-Fock type      HFTyp           .... RHF
 Total Charge           Charge          ....    0
 Multiplicity           Mult            ....    1
 Number of Electrons    NEL             ....   50
 Basis Dimension        Dim             ....  110
 Nuclear Repulsion      ENuc            ....    277.2835685450 Eh

Convergence Acceleration:
 AO-DIIS                CNVDIIS         .... on
   Start iteration      DIISMaxIt       ....    12
   Startup error        DIISStart       ....  0.200000
   # of expansion vecs  DIISMaxEq       ....     5
   Bias factor          DIISBfac        ....   1.050
   Max. coefficient     DIISMaxC        ....  10.000
 MO-DIIS                CNVKDIIS        .... off
 Trust-Rad. Augm. Hess. CNVTRAH         .... auto
   Auto Start mean grad. ratio tolernc. ....  1.125000
   Auto Start start iteration           ....    50
   Auto Start num. interpolation iter.  ....    10
   Max. Number of Micro iterations      ....    24
   Max. Number of Macro iterations      .... Maxiter - #DIIS iter
   Number of Davidson start vectors     ....     2
   Converg. threshold    (grad. norm)   ....   1.000e-04
   Grad. Scal. Fac. for Micro threshold ....   0.100
   Minimum threshold for Micro iter.    ....   1.000e-02
   NR start threshold (gradient norm)   ....   1.000e-04
   Initial trust radius                 ....   0.400
   Minimum AH scaling param. (alpha)    ....   1.000
   Maximum AH scaling param. (alpha)    .... 1000.000
   Quad. conv. algorithm                .... NR
   White noise on init. David. guess    .... on
   Maximum white noise                  ....   0.010
   Pseudo random numbers                .... off
   Inactive MOs                         .... canonical
   Orbital update algorithm             .... Taylor
   Preconditioner                       .... Diag
   Full preconditioner red. dimension   ....   250
 SOSCF                  CNVSOSCF        .... on
   Start iteration      SOSCFMaxIt      ....   150
   Startup grad/error   SOSCFStart      ....  0.003300
   Hessian update       SOSCFHessUp     .... L-BFGS
 Level Shifting         CNVShift        .... on
   Level shift para.    LevelShift      ....    0.2500
   Turn off err/grad.   ShiftErr        ....    0.0010
 Zerner damping         CNVZerner       .... off
 Static damping         CNVDamp         .... on
   Fraction old density DampFac         ....    0.7000
   Max. Damping (<1)    DampMax         ....    0.9800
   Min. Damping (>=0)   DampMin         ....    0.0000
   Turn off err/grad.   DampErr         ....    0.1000

SCF Procedure:
 Maximum # iterations   MaxIter         ....   125
 SCF integral mode      SCFMode         .... Direct
   Integral package                     .... SHARK and LIBINT hybrid scheme
 Reset frequency        DirectResetFreq ....    20
 Integral Threshold     Thresh          ....  1.000e-09 Eh
 Primitive CutOff       TCut            ....  1.000e-10 Eh

Convergence Tolerance:
 Convergence Check Mode ConvCheckMode   .... Total+1el-Energy
 Convergence forced     ConvForced      .... 0
 Energy Change          TolE            ....  1.000e-05 Eh
 1-El. energy change                    ....  1.000e-02 Eh
 Orbital Gradient       TolG            ....  1.000e-04
 Orbital Rotation angle TolX            ....  1.000e-04
 DIIS Error             TolErr          ....  5.000e-04

------------------------------
INITIAL GUESS: MODEL POTENTIAL
------------------------------
Loading Hartree-Fock densities                     ... done
Calculating cut-offs                               ... done
Initializing the effective Hamiltonian             ... done
Setting up the integral package (SHARK)            ... done
Starting the Coulomb interaction                   ... done (   0.1 sec)
Making the grid                                    ... done (   0.1 sec)
Mapping shells                                     ... done
Starting the XC term evaluation                    ... done (   0.1 sec)
  promolecular density results
     # of electrons  =     49.995233481
     EX              =    -40.412157488
     EC              =     -1.656455346
     EX+EC           =    -42.068612834
Transforming the Hamiltonian                       ... done (   0.0 sec)
Diagonalizing the Hamiltonian                      ... done (   0.0 sec)
Back transforming the eigenvectors                 ... done (   0.0 sec)
Now organizing SCF variables                       ... done
                      ------------------
                      INITIAL GUESS DONE (   0.3 sec)
                      ------------------
             **** ENERGY FILE WAS UPDATED (sp.en.tmp) ****
Finished Guess after   0.5 sec
Maximum memory used throughout the entire GUESS-calculation: 12.4 MB

-------------------------------------------------------------------------------------------
                                      ORCA LEAN-SCF
                              memory conserving SCF solver
-------------------------------------------------------------------------------------------

----------------------------------------D-I-I-S--------------------------------------------
Iteration    Energy (Eh)           Delta-E    RMSDP     MaxDP     DIISErr   Damp  Time(sec)
-------------------------------------------------------------------------------------------
               ***  Starting incremental Fock matrix formation  ***
    1    -302.9006011242876752     0.00e+00  4.29e-03  7.89e-02  1.56e-01  0.700   0.5
    2    -302.9600388308937795    -5.94e-02  3.13e-03  4.67e-02  7.81e-02  0.700   0.5
                               ***Turning on AO-DIIS***
    3    -302.9818790981449297    -2.18e-02  1.34e-03  1.31e-02  2.62e-02  0.700   0.5
    4    -302.9948818974713163    -1.30e-02  2.04e-03  1.99e-02  1.12e-02  0.000   0.5
    5    -303.0237332750055543    -2.89e-02  4.95e-04  6.06e-03  4.23e-03  0.000   0.5
                              *** Initializing SOSCF ***
---------------------------------------S-O-S-C-F--------------------------------------
Iteration    Energy (Eh)           Delta-E    RMSDP     MaxDP     MaxGrad    Time(sec)
--------------------------------------------------------------------------------------
    6    -303.0239413841372311    -2.08e-04  1.62e-04  2.31e-03  1.36e-03     0.5
               *** Restarting incremental Fock matrix formation ***
    7    -303.0239535103430057    -1.21e-05  1.23e-04  1.80e-03  2.37e-04     0.5
    8    -303.0239522983143274     1.21e-06  4.60e-05  8.57e-04  4.19e-04     0.5
                 **** Energy Check signals convergence ****

               *****************************************************
               *                     SUCCESS                       *
               *           SCF CONVERGED AFTER   8 CYCLES          *
               *****************************************************

             **** ENERGY FILE WAS UPDATED (sp.en.tmp) ****

----------------
TOTAL SCF ENERGY
----------------

Total Energy       :       -303.02395229831433 Eh           -8245.70095 eV

Components:
Nuclear Repulsion  :        277.28356854496195 Eh            7545.26949 eV
Electronic Energy  :       -580.30752084327628 Eh          -15790.97044 eV
One Electron Energy:       -957.83186493592814 Eh          -26063.93011 eV
Two Electron Energy:        377.52434409265192 Eh           10272.95967 eV

Virial components:
Potential Energy   :       -603.58290457836779 Eh          -16424.32583 eV
Kinetic Energy     :        300.55895228005352 Eh            8178.62488 eV
Virial Ratio       :          2.00820138611597

DFT components:
N(Alpha)           :       25.000108182009 electrons
N(Beta)            :       25.000108182009 electrons
N(Total)           :       50.000216364018 electrons
E(X)               :      -41.126666001351 Eh       
E(C)               :       -1.669281206895 Eh       
E(XC)              :      -42.795947208246 Eh       

---------------
SCF CONVERGENCE
---------------

  Last Energy change         ...   -1.2120e-06  Tolerance :   1.0000e-05
  Last MAX-Density change    ...    8.5741e-04  Tolerance :   1.0000e-03
  Last RMS-Density change    ...    4.5976e-05  Tolerance :   1.0000e-04
  Last DIIS Error            ...    1.3601e-03  Tolerance :   5.0000e-04
  Last Orbital Gradient      ...    4.1909e-04  Tolerance :   1.0000e-04
  Last Orbital Rotation      ...    7.4817e-04  Tolerance :   1.0000e-04


----------------
ORBITAL ENERGIES
----------------

  NO   OCC          E(Eh)            E(eV) 
   0   2.0000     -14.001235      -380.9930 
   1   2.0000     -14.000527      -380.9737 
   2   2.0000      -9.945647      -270.6348 
   3   2.0000      -9.931700      -270.2553 
   4   2.0000      -9.930651      -270.2267 
   5   2.0000      -9.929390      -270.1924 
   6   2.0000      -9.891168      -269.1524 
   7   2.0000      -0.898514       -24.4498 
   8   2.0000      -0.824166       -22.4267 
   9   2.0000      -0.721381       -19.6298 
  10   2.0000      -0.648294       -17.6410 
  11   2.0000      -0.594330       -16.1725 
  12   2.0000      -0.563570       -15.3355 
  13   2.0000      -0.476311       -12.9611 
  14   2.0000      -0.465628       -12.6704 
  15   2.0000      -0.423487       -11.5237 
  16   2.0000      -0.407690       -11.0938 
  17   2.0000      -0.382066       -10.3965 
  18   2.0000      -0.363938        -9.9032 
  19   2.0000      -0.357429        -9.7261 
  20   2.0000      -0.339538        -9.2393 
  21   2.0000      -0.299941        -8.1618 
  22   2.0000      -0.251086        -6.8324 
  23   2.0000      -0.245257        -6.6738 
  24   2.0000      -0.199247        -5.4218 
  25   0.0000      -0.076818        -2.0903 
  26   0.0000      -0.057475        -1.5640 
  27   0.0000       0.052053         1.4164 
  28   0.0000       0.068257         1.8574 
  29   0.0000       0.073771         2.0074 
  30   0.0000       0.093884         2.5547 
  31   0.0000       0.104330         2.8390 
  32   0.0000       0.111293         3.0284 
  33   0.0000       0.129464         3.5229 
  34   0.0000       0.154147         4.1946 
  35   0.0000       0.191398         5.2082 
*Only the first 10 virtual orbitals were printed.

                    ********************************
                    * MULLIKEN POPULATION ANALYSIS *
                    ********************************

-----------------------
MULLIKEN ATOMIC CHARGES
-----------------------
   0 C :   -0.201520
   1 C :   -0.101636
   2 C :   -0.068334
   3 N :   -0.041059
   4 C :   -0.060447
   5 C :   -0.048024
   6 N :   -0.049358
   7 H :    0.120440
   8 H :    0.114660
   9 H :    0.121851
  10 H :    0.061248
  11 H :    0.076557
  12 H :    0.075621
Sum of atomic charges:    0.0000000

--------------------------------
MULLIKEN REDUCED ORBITAL CHARGES
--------------------------------
  0 C s       :     3.010696  s :     3.010696
      pz      :     1.061262  p :     3.163754
      px      :     1.019502
      py      :     1.082990
      dz2     :     0.005007  d :     0.027071
      dxz     :     0.005360
      dyz     :     0.005543
      dx2y2   :     0.006286
      dxy     :     0.004874

  1 C s       :     3.099184  s :     3.099184
      pz      :     0.942540  p :     2.941928
      px      :     1.035566
      py      :     0.963823
      dz2     :     0.003553  d :     0.060523
      dxz     :     0.007766
      dyz     :     0.007943
      dx2y2   :     0.021579
      dxy     :     0.019683

  2 C s       :     3.212233  s :     3.212233
      pz      :     0.966631  p :     2.804022
      px      :     0.931114
      py      :     0.906277
      dz2     :     0.003953  d :     0.052079
      dxz     :     0.007994
      dyz     :     0.002587
      dx2y2   :     0.014996
      dxy     :     0.022549

  3 N s       :     3.443816  s :     3.443816
      pz      :     1.061106  p :     3.567714
      px      :     1.135592
      py      :     1.371016
      dz2     :     0.003122  d :     0.029528
      dxz     :     0.004887
      dyz     :     0.004520
      dx2y2   :     0.010331
      dxy     :     0.006668

  4 C s       :     3.177803  s :     3.177803
      pz      :     0.969285  p :     2.830221
      px      :     0.918534
      py      :     0.942403
      dz2     :     0.003950  d :     0.052422
      dxz     :     0.002873
      dyz     :     0.007916
      dx2y2   :     0.022626
      dxy     :     0.015057

  5 C s       :     3.177080  s :     3.177080
      pz      :     0.956253  p :     2.818122
      px      :     0.944808
      py      :     0.917062
      dz2     :     0.003934  d :     0.052822
      dxz     :     0.008430
      dyz     :     0.002857
      dx2y2   :     0.015399
      dxy     :     0.022203

  6 N s       :     3.462657  s :     3.462657
      pz      :     1.080168  p :     3.558107
      px      :     1.114643
      py      :     1.363296
      dz2     :     0.003108  d :     0.028594
      dxz     :     0.004545
      dyz     :     0.004377
      dx2y2   :     0.010100
      dxy     :     0.006463

  7 H s       :     0.879560  s :     0.879560

  8 H s       :     0.885340  s :     0.885340

  9 H s       :     0.878149  s :     0.878149

 10 H s       :     0.938752  s :     0.938752

 11 H s       :     0.923443  s :     0.923443

 12 H s       :     0.924379  s :     0.924379


------------------------
MULLIKEN OVERLAP CHARGES
------------------------
B(  0-C ,  1-C ) :   0.6848 B(  0-C ,  2-C ) :  -0.2469 B(  0-C ,  6-N ) :  -0.2135 
B(  0-C ,  7-H ) :   0.7074 B(  0-C ,  8-H ) :   0.6364 B(  0-C ,  9-H ) :   0.7065 
B(  1-C ,  2-C ) :   0.8041 B(  1-C ,  3-N ) :  -0.0775 B(  1-C ,  4-C ) :  -0.0866 
B(  1-C ,  5-C ) :  -0.1469 B(  1-C ,  6-N ) :   1.1557 B(  1-C , 10-H ) :  -0.1536 
B(  2-C ,  3-N ) :   1.0939 B(  2-C ,  4-C ) :  -0.1578 B(  2-C ,  5-C ) :  -0.1030 
B(  2-C ,  6-N ) :  -0.1245 B(  2-C , 10-H ) :   0.7849 B(  3-N ,  4-C ) :   1.0384 
B(  3-N ,  5-C ) :  -0.0781 B(  3-N ,  6-N ) :  -0.0779 B(  3-N , 10-H ) :  -0.0956 
B(  3-N , 11-H ) :  -0.1008 B(  4-C ,  5-C ) :   0.8438 B(  4-C ,  6-N ) :  -0.0769 
B(  4-C , 11-H ) :   0.7775 B(  4-C , 12-H ) :  -0.1452 B(  5-C ,  6-N ) :   1.0346 
B(  5-C , 11-H ) :  -0.1441 B(  5-C , 12-H ) :   0.7749 B(  6-N , 12-H ) :  -0.1055 



                     *******************************
                     * LOEWDIN POPULATION ANALYSIS *
                     *******************************

----------------------
LOEWDIN ATOMIC CHARGES
----------------------
   0 C :   -0.334223
   1 C :   -0.032127
   2 C :   -0.095405
   3 N :   -0.049881
   4 C :   -0.104339
   5 C :   -0.095483
   6 N :   -0.056866
   7 H :    0.137520
   8 H :    0.135271
   9 H :    0.138465
  10 H :    0.117536
  11 H :    0.119737
  12 H :    0.119795

-------------------------------
LOEWDIN REDUCED ORBITAL CHARGES
-------------------------------
  0 C s       :     2.940621  s :     2.940621
      pz      :     1.121655  p :     3.324683
      px      :     1.065967
      py      :     1.137061
      dz2     :     0.013303  d :     0.068919
      dxz     :     0.012570
      dyz     :     0.012994
      dx2y2   :     0.017646
      dxy     :     0.012405

  1 C s       :     2.861302  s :     2.861302
      pz      :     0.916444  p :     3.021216
      px      :     1.051624
      py      :     1.053148
      dz2     :     0.009178  d :     0.149610
      dxz     :     0.013437
      dyz     :     0.015838
      dx2y2   :     0.059736
      dxy     :     0.051420

  2 C s       :     2.900790  s :     2.900790
      pz      :     0.961964  p :     3.064445
      px      :     1.029101
      py      :     1.073380
      dz2     :     0.009106  d :     0.130170
      dxz     :     0.015054
      dyz     :     0.004784
      dx2y2   :     0.042418
      dxy     :     0.058807

  3 N s       :     3.219553  s :     3.219553
      pz      :     1.052514  p :     3.767308
      px      :     1.271234
      py      :     1.443560
      dz2     :     0.006554  d :     0.063020
      dxz     :     0.009192
      dyz     :     0.006443
      dx2y2   :     0.025060
      dxy     :     0.015771

  4 C s       :     2.902332  s :     2.902332
      pz      :     0.960944  p :     3.072163
      px      :     1.064416
      py      :     1.046803
      dz2     :     0.009100  d :     0.129843
      dxz     :     0.004117
      dyz     :     0.016115
      dx2y2   :     0.058489
      dxy     :     0.042022

  5 C s       :     2.902570  s :     2.902570
      pz      :     0.947039  p :     3.061886
      px      :     1.032756
      py      :     1.082091
      dz2     :     0.009140  d :     0.131026
      dxz     :     0.016215
      dyz     :     0.005221
      dx2y2   :     0.042956
      dxy     :     0.057493

  6 N s       :     3.219939  s :     3.219939
      pz      :     1.076389  p :     3.774993
      px      :     1.259219
      py      :     1.439385
      dz2     :     0.006696  d :     0.061935
      dxz     :     0.008486
      dyz     :     0.006186
      dx2y2   :     0.024696
      dxy     :     0.015871

  7 H s       :     0.862480  s :     0.862480

  8 H s       :     0.864729  s :     0.864729

  9 H s       :     0.861535  s :     0.861535

 10 H s       :     0.882464  s :     0.882464

 11 H s       :     0.880263  s :     0.880263

 12 H s       :     0.880205  s :     0.880205


---------------------------------
LOEWDIN BOND ORDERS (THRESH 0.050000)
---------------------------------
B(  0-C ,  1-C ) :   1.1129 B(  0-C ,  2-C ) :   0.0757 B(  0-C ,  6-N ) :   0.0816 
B(  0-C ,  7-H ) :   0.9207 B(  0-C ,  8-H ) :   0.9268 B(  0-C ,  9-H ) :   0.9196 
B(  1-C ,  2-C ) :   1.4119 B(  1-C ,  3-N ) :   0.0893 B(  1-C ,  4-C ) :   0.1321 
B(  1-C ,  5-C ) :   0.1049 B(  1-C ,  6-N ) :   1.5784 B(  2-C ,  3-N ) :   1.6611 
B(  2-C ,  4-C ) :   0.1083 B(  2-C ,  5-C ) :   0.1412 B(  2-C ,  6-N ) :   0.0862 
B(  2-C , 10-H ) :   0.8908 B(  3-N ,  4-C ) :   1.6114 B(  3-N ,  5-C ) :   0.0890 
B(  3-N ,  6-N ) :   0.1040 B(  4-C ,  5-C ) :   1.5031 B(  4-C ,  6-N ) :   0.0885 
B(  4-C , 11-H ) :   0.8940 B(  5-C ,  6-N ) :   1.6205 B(  5-C , 12-H ) :   0.8926 


------------------------------------------
LOEWDIN REDUCED ORBITAL POPULATIONS PER MO
-------------------------------------------
THRESHOLD FOR PRINTING IS 0.1%%
                      0         1         2         3         4         5   
                 -14.00123 -14.00053  -9.94565  -9.93170  -9.93065  -9.92939
                   2.00000   2.00000   2.00000   2.00000   2.00000   2.00000
                  --------  --------  --------  --------  --------  --------
 0 C  px              0.0       0.0       0.1       0.0       0.0       0.0
 1 C  s               0.0       0.0      99.5       0.0       0.0       0.0
 2 C  s               0.0       0.0       0.0       0.1      99.5       0.0
 3 N  s              98.9       0.9       0.0       0.0       0.0       0.0
 3 N  px              0.0       0.0       0.0       0.0       0.2       0.0
 3 N  py              0.0       0.0       0.0       0.0       0.0       0.2
 4 C  s               0.0       0.0       0.0       0.3       0.0      99.3
 4 C  py              0.1       0.0       0.0       0.1       0.0       0.0
 5 C  s               0.0       0.0       0.0      99.2       0.1       0.3
 5 C  py              0.0       0.0       0.0       0.0       0.0       0.1
 6 N  s               0.9      98.9       0.0       0.0       0.0       0.0
 6 N  px              0.0       0.0       0.0       0.2       0.0       0.0
 6 N  py              0.0       0.0       0.2       0.0       0.0       0.0

                      6         7         8         9        10        11   
                  -9.89117  -0.89851  -0.82417  -0.72138  -0.64829  -0.59433
                   2.00000   2.00000   2.00000   2.00000   2.00000   2.00000
                  --------  --------  --------  --------  --------  --------
 0 C  s              99.7       0.7       0.8      13.0      22.3       0.1
 0 C  px              0.0       0.9       0.5       1.9       0.1       0.0
 0 C  py              0.0       0.0       0.1       0.0       0.0       1.2
 1 C  s               0.0      10.1       4.7      15.4       0.4       0.1
 1 C  px              0.1       3.1       0.1       2.1      11.8       0.1
 1 C  py              0.0       0.7       6.6       2.4       0.1      16.3
 1 C  dz2             0.0       0.2       0.1       0.1       0.0       0.0
 1 C  dx2y2           0.0       0.0       0.1       0.0       0.2       0.0
 1 C  dxy             0.0       0.1       0.4       0.1       0.0       0.3
 2 C  s               0.0       9.6       4.1       9.9       5.0      10.9
 2 C  px              0.0       2.0       7.2       1.9       1.1       3.0
 2 C  py              0.0       2.0       0.6       0.5       0.3       0.6
 2 C  dz2             0.0       0.2       0.1       0.1       0.0       0.0
 2 C  dx2y2           0.0       0.1       0.5       0.0       0.0       0.0
 2 C  dxy             0.0       0.0       0.1       0.1       0.0       0.0
 3 N  s               0.0      16.5      23.7       0.0       0.2       3.1
 3 N  px              0.0       0.9       0.6       3.8       7.7       6.5
 3 N  py              0.0       2.1       1.4       1.6       3.2       1.8
 3 N  dx2y2           0.0       0.0       0.0       0.1       0.2       0.1
 4 C  s               0.0       9.0       4.5       7.7      12.9       0.1
 4 C  px              0.0       3.4       0.3       0.2       0.4       0.3
 4 C  py              0.0       0.6       6.8       1.6       0.6      14.2
 4 C  dz2             0.0       0.2       0.1       0.1       0.1       0.0
 4 C  dxy             0.0       0.0       0.4       0.1       0.0       0.3
 5 C  s               0.0       9.4       3.4      12.3       2.5      12.4
 5 C  px              0.0       2.3       6.3       0.3       5.5       2.3
 5 C  py              0.0       1.8       0.7       0.3       1.1       0.6
 5 C  dz2             0.0       0.2       0.1       0.1       0.0       0.0
 5 C  dx2y2           0.0       0.1       0.4       0.0       0.1       0.0
 5 C  dxy             0.0       0.0       0.0       0.0       0.1       0.0
 6 N  s               0.0      17.6      21.5       0.6       1.8       3.1
 6 N  px              0.0       0.8       0.4       7.8       0.1       8.5
 6 N  py              0.0       2.3       1.3       2.2       0.1       2.3
 6 N  dx2y2           0.0       0.0       0.0       0.2       0.0       0.1
 7 H  s               0.1       0.1       0.1       2.5       5.6       0.2
 8 H  s               0.1       0.2       0.2       2.2       5.2       0.1
 9 H  s               0.1       0.1       0.1       2.5       5.6       0.2
10 H  s               0.0       1.0       0.5       2.2       1.0       5.3
11 H  s               0.0       0.9       0.6       1.4       3.8       0.0
12 H  s               0.0       0.9       0.4       2.3       0.7       5.6

                     12        13        14        15        16        17   
                  -0.56357  -0.47631  -0.46563  -0.42349  -0.40769  -0.38207
                   2.00000   2.00000   2.00000   2.00000   2.00000   2.00000
                  --------  --------  --------  --------  --------  --------
 0 C  s               8.5       0.0       0.7       0.3       0.0       0.1
 0 C  pz              0.0       0.0       0.0       0.0      23.8       0.0
 0 C  px              4.4       0.1       2.8      10.0       0.0      13.5
 0 C  py              0.0       4.7       0.0       0.4       0.0       0.6
 0 C  dyz             0.0       0.0       0.0       0.0       0.2       0.0
 0 C  dx2y2           0.1       0.0       0.0       0.2       0.0       0.1
 1 C  s               7.2       0.0       0.2       3.5       0.0       0.0
 1 C  pz              0.0       0.0       0.0       0.0      20.9       0.0
 1 C  px              3.6       0.5       2.3       2.8       0.0      14.2
 1 C  py              1.6      15.1       0.0       0.4       0.0       0.5
 1 C  dx2y2           0.2       0.0       0.2       0.1       0.0       0.0
 1 C  dxy             0.0       0.0       0.0       0.2       0.0       0.1
 2 C  s               0.5       0.0       1.5       1.0       0.0       0.4
 2 C  pz              0.0       0.0       0.0       0.0       9.8       0.0
 2 C  px              9.5       9.1       3.7       0.8       0.0       2.4
 2 C  py              5.3       5.9      10.7       9.3       0.0      13.0
 2 C  dx2y2           0.4       0.1       0.0       0.2       0.0       0.0
 2 C  dxy             0.1       0.0       0.0       0.2       0.0       0.2
 3 N  s               4.2       0.0       1.1       1.5       0.0       0.1
 3 N  pz              0.0       0.0       0.0       0.0       7.0       0.0
 3 N  px              2.1       8.8       6.3       0.0       0.0       1.9
 3 N  py              2.8       6.6       2.5       0.5       0.0       0.7
 3 N  dx2y2           0.1       0.2       0.0       0.0       0.0       0.4
 3 N  dxy             0.0       0.0       0.3       0.1       0.0       0.1
 4 C  s               5.9       0.4       1.1       2.1       0.0       0.2
 4 C  pz              0.0       0.0       0.0       0.0       5.3       0.0
 4 C  px              1.1       1.0      19.7       1.7       0.0      19.0
 4 C  py              1.3      13.0       4.8       1.1       0.0       0.0
 4 C  dx2y2           0.0       0.0       0.0       0.4       0.0       0.4
 4 C  dxy             0.1       0.1       0.0       0.2       0.0       0.1
 5 C  s               0.7       0.4       0.2       1.9       0.0       0.6
 5 C  pz              0.0       0.0       0.0       0.0       6.7       0.0
 5 C  px              6.7      13.9       0.5       3.6       0.0       0.2
 5 C  py              5.5       0.3      11.5      19.8       0.0       6.0
 5 C  dx2y2           0.1       0.1       0.2       0.4       0.0       0.1
 5 C  dxy             0.0       0.0       0.0       0.2       0.0       0.1
 6 N  s               1.8       0.0       3.0       0.9       0.0       0.0
 6 N  pz              0.0       0.0       0.0       0.0      12.4       0.0
 6 N  px              4.6      13.1       0.6       1.3       0.0       0.0
 6 N  py              6.6       2.2       4.3       0.9       0.0       0.3
 6 N  dyz             0.0       0.0       0.0       0.0       0.1       0.0
 6 N  dx2y2           0.3       0.1       0.0       0.0       0.0       0.2
 6 N  dxy             0.0       0.1       0.1       0.3       0.0       0.0
 7 H  s               3.3       0.5       0.5       1.6       6.5       1.8
 8 H  s               3.8       0.9       0.5       0.5       0.0       0.4
 9 H  s               3.4       0.4       0.6       1.5       7.0       1.8
10 H  s               0.0       0.3       8.2       8.5       0.0       7.5
11 H  s               3.2       0.9       9.6       3.6       0.0      11.2
12 H  s               0.7       1.1       2.1      17.6       0.0       1.7

                     18        19        20        21        22        23   
                  -0.36394  -0.35743  -0.33954  -0.29994  -0.25109  -0.24526
                   2.00000   2.00000   2.00000   2.00000   2.00000   2.00000
                  --------  --------  --------  --------  --------  --------
 0 C  s               0.0       0.0       0.2       0.0       0.1       0.0
 0 C  pz             28.4       0.0       0.0       1.2       0.0       2.7
 0 C  px              0.0       4.0      12.9       0.0       0.1       0.0
 0 C  py              0.0      44.5       4.6       0.0       0.6       0.0
 0 C  dz2             0.0       0.2       0.1       0.0       0.0       0.0
 0 C  dxz             0.2       0.0       0.0       0.1       0.0       0.4
 0 C  dyz             0.3       0.0       0.0       0.0       0.0       0.1
 0 C  dx2y2           0.0       0.3       0.1       0.0       0.0       0.0
 0 C  dxy             0.0       0.4       0.1       0.0       0.0       0.0
 1 C  s               0.0       0.1       0.3       0.0       1.3       0.0
 1 C  pz              0.0       0.0       0.0       3.8       0.0      21.1
 1 C  px              0.0       2.3       8.5       0.0       0.4       0.0
 1 C  py              0.0       0.6       3.0       0.0       0.6       0.0
 1 C  dxz             0.4       0.0       0.0       0.1       0.0       0.2
 1 C  dyz             0.0       0.0       0.0       0.7       0.0       0.1
 1 C  dx2y2           0.0       0.1       0.9       0.0       0.4       0.0
 1 C  dxy             0.0       0.7       0.1       0.0       0.3       0.0
 2 C  s               0.0       1.2       0.1       0.0       1.1       0.0
 2 C  pz              5.5       0.0       0.0       9.2       0.0      23.6
 2 C  px              0.0       3.0       3.8       0.0       1.1       0.0
 2 C  py              0.0       0.2       2.5       0.0       0.2       0.0
 2 C  dxz             0.2       0.0       0.0       0.5       0.0       0.1
 2 C  dyz             0.0       0.0       0.0       0.0       0.0       0.1
 2 C  dx2y2           0.0       0.2       0.5       0.0       0.0       0.0
 2 C  dxy             0.0       0.1       0.3       0.0       0.8       0.0
 3 N  s               0.0       0.5       0.0       0.0       5.1       0.0
 3 N  pz             15.8       0.0       0.0      29.8       0.0       0.0
 3 N  px              0.0       0.8       5.2       0.0      10.7       0.0
 3 N  py              0.0       2.0       1.7       0.0      25.4       0.0
 3 N  dxz             0.0       0.0       0.0       0.0       0.0       0.4
 3 N  dyz             0.1       0.0       0.0       0.0       0.0       0.2
 3 N  dx2y2           0.0       0.0       0.1       0.0       0.0       0.0
 4 C  s               0.0       0.0       0.3       0.0       1.3       0.0
 4 C  pz             13.6       0.0       0.0       3.9       0.0      25.2
 4 C  px              0.0       0.2       4.9       0.0       0.3       0.0
 4 C  py              0.0       0.9       1.8       0.0       0.7       0.0
 4 C  dxz             0.1       0.0       0.0       0.0       0.0       0.0
 4 C  dyz             0.0       0.0       0.0       0.6       0.0       0.1
 4 C  dx2y2           0.0       0.0       0.8       0.0       0.3       0.0
 4 C  dxy             0.0       0.0       0.0       0.0       0.5       0.0
 5 C  s               0.0       0.0       0.2       0.0       1.3       0.0
 5 C  pz              9.6       0.0       0.0      11.5       0.0      19.6
 5 C  px              0.0       0.0       6.3       0.0       1.0       0.0
 5 C  py              0.0       0.5       3.3       0.0       0.1       0.0
 5 C  dxz             0.0       0.0       0.0       0.6       0.0       0.2
 5 C  dyz             0.1       0.0       0.0       0.0       0.0       0.1
 5 C  dx2y2           0.0       0.0       0.5       0.0       0.0       0.0
 5 C  dxy             0.0       0.0       0.5       0.0       0.8       0.0
 6 N  s               0.0       0.3       0.0       0.0       5.9       0.0
 6 N  pz              4.9       0.0       0.0      35.8       0.0       0.7
 6 N  px              0.0       0.1       6.8       0.0      11.4       0.0
 6 N  py              0.0       0.2       3.8       0.0      26.7       0.0
 6 N  dxz             0.1       0.0       0.0       0.1       0.0       0.3
 6 N  dyz             0.0       0.0       0.0       0.0       0.0       0.1
 6 N  dx2y2           0.0       0.0       0.2       0.0       0.0       0.0
 7 H  s              10.3       3.9       2.9       0.9       0.2       2.2
 8 H  s               0.0      28.0       0.4       0.0       0.3       0.0
 9 H  s              10.5       3.2       2.6       1.0       0.1       2.4
10 H  s               0.0       1.0       5.8       0.0       0.2       0.0
11 H  s               0.0       0.2       6.0       0.0       0.3       0.0
12 H  s               0.0       0.3       7.8       0.0       0.3       0.0

                     24        25        26        27        28        29   
                  -0.19925  -0.07682  -0.05747   0.05205   0.06826   0.07377
                   2.00000   0.00000   0.00000   0.00000   0.00000   0.00000
                  --------  --------  --------  --------  --------  --------
 0 C  s               0.5       0.0       0.0      17.3       1.1       0.0
 0 C  pz              0.0       0.2       0.1       0.0       0.0       6.6
 0 C  px              1.9       0.0       0.0       4.8       0.0       0.0
 0 C  py              0.1       0.0       0.0       0.9       1.0       0.0
 0 C  dxz             0.0       0.1       0.8       0.0       0.0       0.7
 0 C  dyz             0.0       0.0       0.2       0.0       0.0       0.5
 1 C  s               0.2       0.0       0.0       0.2       0.4       0.0
 1 C  pz              0.0       6.0      25.4       0.0       0.0       8.2
 1 C  px              0.7       0.0       0.0       0.5       0.0       0.0
 1 C  py              4.7       0.0       0.0       0.4       0.4       0.0
 1 C  dz2             0.0       0.0       0.0       0.3       0.2       0.0
 1 C  dxz             0.0       0.0       0.2       0.0       0.0       0.9
 1 C  dyz             0.0       1.5       0.2       0.0       0.0       0.0
 1 C  dx2y2           0.8       0.0       0.0       0.1       0.0       0.0
 1 C  dxy             0.2       0.0       0.0       0.1       0.1       0.0
 2 C  s               0.1       0.0       0.0       3.0       0.3       0.0
 2 C  pz              0.0      13.1      19.2       0.0       0.0       8.7
 2 C  px              2.7       0.0       0.0       0.8       0.2       0.0
 2 C  py              2.5       0.0       0.0       2.1       0.0       0.0
 2 C  dxz             0.0       1.3       0.2       0.0       0.0       0.2
 2 C  dyz             0.0       0.1       0.6       0.0       0.0       0.2
 2 C  dxy             1.1       0.0       0.0       0.0       0.0       0.0
 3 N  s               5.2       0.0       0.0       0.0       0.0       0.0
 3 N  pz              0.0      29.3       0.2       0.0       0.0      11.2
 3 N  px              7.8       0.0       0.0       0.2       0.1       0.0
 3 N  py             19.8       0.0       0.0       0.1       0.5       0.0
 3 N  dxz             0.0       0.1       0.7       0.0       0.0       0.0
 3 N  dyz             0.0       0.0       0.3       0.0       0.0       0.2
 3 N  dx2y2           0.0       0.0       0.0       0.0       0.2       0.0
 3 N  dxy             0.1       0.0       0.0       0.2       0.2       0.0
 4 C  s               0.1       0.0       0.0       0.5       4.0       0.0
 4 C  pz              0.0       5.8      25.2       0.0       0.0      14.5
 4 C  px              0.7       0.0       0.0       0.3       8.6       0.0
 4 C  py              4.6       0.0       0.0       0.0       0.2       0.0
 4 C  dxz             0.0       0.0       0.3       0.0       0.0       0.5
 4 C  dyz             0.0       1.5       0.2       0.0       0.0       0.0
 4 C  dx2y2           0.8       0.0       0.0       0.1       0.7       0.0
 4 C  dxy             0.3       0.0       0.0       0.0       0.0       0.0
 5 C  s               0.1       0.0       0.0       0.0       4.7       0.0
 5 C  pz              0.0      11.6      19.8       0.0       0.0      15.3
 5 C  px              2.7       0.0       0.0       0.2       1.3       0.0
 5 C  py              2.5       0.0       0.0       0.1       8.3       0.0
 5 C  dz2             0.0       0.0       0.0       0.0       0.1       0.0
 5 C  dxz             0.0       1.2       0.2       0.0       0.0       0.2
 5 C  dyz             0.0       0.1       0.5       0.0       0.0       0.5
 5 C  dx2y2           0.1       0.0       0.0       0.1       0.4       0.0
 5 C  dxy             1.0       0.0       0.0       0.0       0.3       0.0
 6 N  s               4.7       0.0       0.0       0.8       0.1       0.0
 6 N  pz              0.0      27.7       0.3       0.0       0.0      11.7
 6 N  px              7.2       0.0       0.0       0.1       0.6       0.0
 6 N  py             18.6       0.0       0.0       0.1       0.0       0.0
 6 N  dxz             0.0       0.1       0.8       0.0       0.0       0.1
 6 N  dyz             0.0       0.0       0.4       0.0       0.0       0.1
 6 N  dxy             0.1       0.0       0.0       0.0       0.5       0.0
 7 H  s               0.0       0.2       2.0      21.2       2.0       9.4
 8 H  s               0.6       0.0       0.0       8.4       0.4       0.0
 9 H  s               0.0       0.2       2.1      20.7       2.5      10.3
10 H  s               2.6       0.0       0.0      14.1       0.1       0.0
11 H  s               2.3       0.0       0.0       1.7      27.9       0.0
12 H  s               2.4       0.0       0.0       0.5      32.0       0.0

                     30        31        32        33        34        35   
                   0.09388   0.10433   0.11129   0.12946   0.15415   0.19140
                   0.00000   0.00000   0.00000   0.00000   0.00000   0.00000
                  --------  --------  --------  --------  --------  --------
 0 C  s               7.3       0.1       0.2       0.0       0.1       2.1
 0 C  pz              0.0       0.0       0.0      21.3       0.0       0.0
 0 C  px              0.5       1.0       0.0       0.0       0.4      35.7
 0 C  py              0.9      16.4       1.7       0.0       5.5       0.0
 0 C  dz2             0.0       0.7       0.1       0.0       0.1       2.4
 0 C  dyz             0.0       0.0       0.0       0.7       0.0       0.0
 0 C  dx2y2           0.0       0.8       0.0       0.0       0.1       7.8
 0 C  dxy             0.0       0.9       0.0       0.0       0.1       0.1
 1 C  s               0.4       1.8       0.3       0.0       4.6      16.1
 1 C  pz              0.0       0.0       0.0       8.1       0.0       0.0
 1 C  px              1.3       0.3       0.2       0.0       0.9      10.7
 1 C  py              0.9       1.2       0.1       0.0       0.6       0.8
 1 C  dz2             0.0       0.4       0.1       0.0       1.1       1.7
 1 C  dxz             0.0       0.0       0.0       0.1       0.0       0.0
 1 C  dx2y2           1.1       0.0       0.3       0.0       0.3       1.4
 1 C  dxy             0.3       2.0       0.1       0.0       0.2       0.3
 2 C  s               5.1       2.7       0.1       0.0       2.9       2.9
 2 C  pz              0.0       0.0       0.0       8.1       0.0       0.0
 2 C  px              2.4       1.7       1.1       0.0       6.3       0.1
 2 C  py             11.0       0.8       0.1       0.0       0.2       0.2
 2 C  dz2             0.2       0.6       0.0       0.0       0.5       0.4
 2 C  dyz             0.0       0.0       0.0       0.4       0.0       0.0
 2 C  dx2y2           0.6       0.3       0.3       0.0       2.0       0.9
 2 C  dxy             0.1       0.0       0.1       0.0       0.4       0.9
 3 N  s               0.0       1.1       0.6       0.0      11.3       0.9
 3 N  pz              0.0       0.0       0.0       4.0       0.0       0.0
 3 N  px              0.6       0.5       0.1       0.0       0.1       1.3
 3 N  py              0.0       0.2       0.8       0.0       1.5       0.3
 3 N  dz2             0.0       0.0       0.1       0.0       0.2       0.1
 3 N  dxz             0.0       0.0       0.0       0.1       0.0       0.0
 3 N  dx2y2           0.0       0.0       0.0       0.0       0.0       0.4
 3 N  dxy             0.5       0.0       0.2       0.0       0.2       0.0
 4 C  s               0.3       0.8       7.4       0.0       5.5       0.5
 4 C  pz              0.0       0.0       0.0       2.8       0.0       0.0
 4 C  px              0.1       2.0       4.8       0.0       1.7       0.4
 4 C  py              0.4       0.6       0.1       0.0       6.9       1.2
 4 C  dz2             0.0       0.0       0.5       0.0       1.4       0.0
 4 C  dxz             0.0       0.0       0.0       0.2       0.0       0.0
 4 C  dx2y2           0.0       0.0       0.2       0.0       0.9       0.0
 4 C  dxy             0.1       0.3       0.0       0.0       2.3       0.6
 5 C  s               0.0       0.4       7.4       0.0       6.0       0.5
 5 C  pz              0.0       0.0       0.0       2.3       0.0       0.0
 5 C  px              0.4       0.7       1.6       0.0       8.5       0.4
 5 C  py              0.6       0.0       3.7       0.0       0.3       0.5
 5 C  dz2             0.0       0.2       0.3       0.0       1.3       0.0
 5 C  dx2y2           0.0       0.4       0.0       0.0       3.2       0.0
 5 C  dxy             0.1       0.0       0.2       0.0       0.0       0.4
 6 N  s               0.0       1.1       0.2       0.0       8.4       0.0
 6 N  pz              0.0       0.0       0.0       3.8       0.0       0.0
 6 N  px              0.2       0.2       0.5       0.0       1.5       0.2
 6 N  py              1.3       1.4       0.2       0.0       0.6       0.5
 6 N  dz2             0.0       0.0       0.0       0.0       0.1       0.0
 6 N  dyz             0.0       0.0       0.0       0.2       0.0       0.0
 6 N  dx2y2           0.1       0.0       0.1       0.0       0.0       0.0
 6 N  dxy             0.0       0.1       0.0       0.0       0.1       0.5
 7 H  s               2.2       5.8       0.4      24.3       1.7       1.8
 8 H  s              11.0      35.9       3.7       0.0       7.0       0.6
 9 H  s               2.8       4.9       0.4      23.4       2.2       1.7
10 H  s              44.7       4.2       0.5       0.0       0.3       2.5
11 H  s               0.2       7.3      29.6       0.0       0.1       0.0
12 H  s               2.1       0.1      31.7       0.0       0.3       0.2

                     36        37        38        39        40        41   
                   0.24291   0.27215   0.28614   0.30101   0.33022   0.36414
                   0.00000   0.00000   0.00000   0.00000   0.00000   0.00000
                  --------  --------  --------  --------  --------  --------
 0 C  s               0.1       1.4       0.1       0.0       0.2       1.0
 0 C  px              1.1       4.8       1.4       0.3       3.9      11.9
 0 C  py              5.6       0.5       0.2       1.4       1.5       0.1
 0 C  dz2             0.8       0.6       0.1       0.2       0.0       0.0
 0 C  dx2y2           0.2       0.1       0.2       0.3       0.4       0.4
 0 C  dxy             0.0       0.1       0.9       0.7       1.9       0.1
 1 C  s               8.2       3.4       5.9       0.7      12.7      11.5
 1 C  px              3.2       5.3       1.9       0.0       0.3       0.2
 1 C  py              0.4       0.9       5.4       9.1       4.8       0.5
 1 C  dz2             1.9       1.2       0.6       0.0       1.8       2.2
 1 C  dx2y2           2.3       0.1       0.0       0.0       0.0       0.8
 1 C  dxy             0.0       0.1       1.4       0.7       4.4       0.2
 2 C  s               0.6      18.2       0.9      11.4       7.9      12.7
 2 C  px             14.3       1.0       3.5       3.5       1.6       0.0
 2 C  py              2.0       1.4       2.2       2.3       3.9       0.5
 2 C  dz2             0.1       6.4       0.2       1.3       0.2       2.2
 2 C  dx2y2           5.1       0.0       0.0       0.3       0.8       0.5
 2 C  dxy             0.4       0.4       1.7       2.1       0.3       0.2
 3 N  s               0.4       5.4       4.5       3.0       0.1       0.0
 3 N  px              4.8       1.3       2.3       1.3       2.6       0.7
 3 N  py              3.2       0.7       1.3       0.3       0.1       0.3
 3 N  dz2             0.0       0.1       0.0       1.3       0.1       0.0
 3 N  dx2y2           0.1       1.2       1.4       0.3       0.3       0.3
 3 N  dxy             0.0       0.1       0.6       1.3       0.2       0.1
 4 C  s               2.3       3.9      12.6       7.7       7.6      13.3
 4 C  px              0.9       1.6       3.8       0.7       0.2       0.4
 4 C  py              6.6       3.4       2.5      15.3       2.0       0.0
 4 C  dz2             0.3       0.0       4.2       1.3       1.3       2.9
 4 C  dx2y2           1.5       0.6       0.7       0.0       0.0       0.7
 4 C  dxy             1.4       0.6       0.0       6.7       0.2       0.1
 5 C  s               4.2       0.6      11.1       4.6      16.6       9.9
 5 C  px              6.4      11.2       0.1       3.2       3.6       0.8
 5 C  py              0.3       2.3       2.0       5.7       2.4       0.4
 5 C  dz2             1.1       0.0       4.4       0.4       0.8       1.7
 5 C  dx2y2           2.5       2.2       0.7       0.1       1.3       0.8
 5 C  dxy             0.0       1.3       0.3       2.8       0.8       0.1
 6 N  s               0.4       5.7       6.1       2.5       0.9       0.0
 6 N  px              5.6       0.4       0.2       1.2       0.3       0.3
 6 N  py              2.5       0.6       0.2       0.9       0.2       0.2
 6 N  dz2             0.1       0.1       0.1       0.3       1.6       0.0
 6 N  dx2y2           1.5       0.5       0.5       0.0       0.6       0.3
 6 N  dxy             0.0       0.2       0.0       1.5       0.6       0.1
 7 H  s               0.4       0.4       0.5       0.3       0.7       0.2
 8 H  s               3.3       0.0       1.2       0.4       4.8       0.7
 9 H  s               0.5       0.4       0.4       0.3       0.5       0.2
10 H  s               1.1       6.4       1.0       0.2       0.4       6.8
11 H  s               1.8       2.3       2.5       0.7       2.2       8.4
12 H  s               0.4       0.4       8.2       1.0       0.5       5.5

                     42        43        44        45        46        47   
                   0.38440   0.41623   0.42348   0.43047   0.45631   0.49339
                   0.00000   0.00000   0.00000   0.00000   0.00000   0.00000
                  --------  --------  --------  --------  --------  --------
 0 C  s               1.9       0.0       1.7       0.0       2.0       0.0
 0 C  pz              0.0      11.4       0.0      24.6       0.0       3.7
 0 C  px              3.4       0.0       6.5       0.0      13.1       0.1
 0 C  py              1.1       0.0      11.1       0.0       0.9       1.0
 0 C  dz2             0.1       0.0       2.6       0.1       0.0       0.1
 0 C  dxz             0.0       0.5       0.0       0.9       0.0       0.0
 0 C  dyz             0.0       2.9       0.1       5.5       0.0       0.6
 0 C  dx2y2           0.0       0.0       0.1       0.0       0.8       0.0
 0 C  dxy             0.9       0.0       0.9       0.0       0.0       0.0
 1 C  s               2.7       0.0       0.8       0.0       5.0       0.1
 1 C  pz              0.0      24.5       0.0       1.2       0.0       0.3
 1 C  px              0.1       0.0       2.4       0.0       2.7       0.1
 1 C  py              7.1       0.0       3.2       0.0       2.8       0.3
 1 C  dz2             2.9       0.0       0.0       0.0       0.3       0.0
 1 C  dxz             0.0       0.5       0.0       1.0       0.0       0.0
 1 C  dx2y2           0.4       0.0       2.4       0.0       1.1       0.0
 1 C  dxy             0.9       0.0       1.0       0.0       0.1       0.1
 2 C  s               1.1       0.0       1.2       0.0       2.2       0.0
 2 C  pz              0.0      19.5       0.0       1.7       0.0      51.6
 2 C  px             11.7       0.0       7.0       0.0       3.9       0.0
 2 C  py              3.9       0.0       2.6       0.0       1.7       0.0
 2 C  dz2             0.7       0.0       0.4       0.0       0.5       0.0
 2 C  dxz             0.0       0.0       0.0       0.0       0.0       0.2
 2 C  dyz             0.0       0.3       0.0       0.4       0.0       0.3
 2 C  dx2y2           0.0       0.0       0.7       0.0       0.0       0.0
 2 C  dxy             0.5       0.0       0.1       0.0       2.0       0.0
 3 N  s               0.0       0.0       0.1       0.0       1.2       0.0
 3 N  pz              0.0       0.8       0.0       0.5       0.0       1.9
 3 N  px              2.9       0.0       2.5       0.0       0.3       0.2
 3 N  py              2.1       0.0       0.4       0.0       1.0       0.4
 3 N  dz2             0.0       0.0       0.1       0.0       0.8       0.0
 3 N  dx2y2           0.1       0.0       0.9       0.0       0.7       0.1
 3 N  dxy             0.0       0.0       0.0       0.0       1.2       0.1
 4 C  s               0.6       0.0       3.3       0.0       1.5       0.2
 4 C  pz              0.0      13.4       0.0      23.0       0.0       0.1
 4 C  px              0.1       0.0       0.2       0.0       2.1       0.1
 4 C  py             14.1       0.0       3.6       0.0       1.6       1.6
 4 C  dz2             0.5       0.0       1.1       0.0       0.2       0.0
 4 C  dx2y2           0.0       0.0       0.5       0.0       2.5       0.1
 4 C  dxy             1.0       0.0       0.3       0.0       0.4       0.0
 5 C  s               5.4       0.0       0.3       0.0       2.5       0.0
 5 C  pz              0.0      13.0       0.0      22.6       0.0      31.3
 5 C  px              4.7       0.0      18.1       0.0       1.4       0.6
 5 C  py              1.1       0.0       3.2       0.0       1.7       0.3
 5 C  dz2             2.7       0.0       0.2       0.0       0.9       0.0
 5 C  dxz             0.0       0.0       0.0       0.0       0.0       0.2
 5 C  dyz             0.0       0.0       0.0       0.1       0.0       0.4
 5 C  dx2y2           0.4       0.0       0.0       0.0       0.4       0.0
 5 C  dxy             0.0       0.0       1.0       0.0       2.3       0.1
 6 N  s               0.2       0.0       0.0       0.0       0.8       0.0
 6 N  pz              0.0       1.6       0.0       0.1       0.0       1.8
 6 N  px              7.2       0.0       2.5       0.0       0.1       0.1
 6 N  py              5.4       0.0       1.0       0.0       0.6       0.3
 6 N  dz2             0.1       0.0       0.1       0.0       1.0       0.0
 6 N  dxz             0.0       0.0       0.0       0.0       0.0       0.1
 6 N  dyz             0.0       0.1       0.0       0.2       0.0       0.0
 6 N  dx2y2           0.4       0.0       3.2       0.0       0.1       0.0
 6 N  dxy             0.3       0.0       0.2       0.0       1.6       0.0
 7 H  s               0.3       5.2       4.0       8.5       0.3       0.8
 8 H  s               0.7       0.0       4.9       0.0       2.8       0.0
 9 H  s               0.3       6.0       2.5       9.4       0.5       0.4
10 H  s               4.4       0.0       0.6       0.0       8.0       0.0
11 H  s               2.8       0.0       0.5       0.0       9.0       0.1
12 H  s               3.0       0.0       0.2       0.0      13.3       0.0

                     48        49        50        51        52        53   
                   0.49762   0.52213   0.54385   0.56354   0.59596   0.59867
                   0.00000   0.00000   0.00000   0.00000   0.00000   0.00000
                  --------  --------  --------  --------  --------  --------
 0 C  s               0.2       0.0       2.3       1.0       2.9       0.8
 0 C  pz              0.2       4.5       0.0       0.0       1.0       2.9
 0 C  px              1.6       0.0       1.8       0.7       2.0       0.9
 0 C  py             13.4       0.0       0.3       5.1      12.4       4.7
 0 C  dz2             2.5       0.0       0.2       0.1       1.0       0.2
 0 C  dyz             0.0       1.0       0.0       0.0       0.4       1.8
 0 C  dx2y2           0.5       0.0       0.1       0.1       0.3       0.0
 0 C  dxy             0.3       0.0       0.8       2.1       0.9       0.3
 1 C  s               1.7       0.0      11.6       3.2       1.7       0.8
 1 C  pz              0.0       8.1       0.0       0.0      15.7      45.2
 1 C  px              1.2       0.0       0.4       3.2       4.6       1.8
 1 C  py              3.1       0.0       3.0       2.5      13.0       4.0
 1 C  dz2             0.0       0.0       0.3       0.0       0.0       0.0
 1 C  dxz             0.0       0.0       0.0       0.0       0.0       0.1
 1 C  dx2y2           0.8       0.0       0.1       0.1       0.2       0.1
 1 C  dxy             0.7       0.0       0.2       0.5       0.1       0.1
 2 C  s               0.3       0.0       9.6       4.8       0.6       0.3
 2 C  pz              3.4       9.0       0.0       0.0       2.2       7.2
 2 C  px              0.3       0.0       1.7      15.9       2.5       0.9
 2 C  py              0.4       0.0       0.3       1.2       0.9       0.2
 2 C  dz2             0.0       0.0       0.7       0.1       0.1       0.0
 2 C  dyz             0.0       0.0       0.0       0.0       0.2       0.8
 2 C  dx2y2           0.8       0.0       1.1       1.1       0.4       0.1
 2 C  dxy             0.4       0.0       0.2       0.5       0.4       0.1
 3 N  s               0.3       0.0       0.3       0.0       0.3       0.1
 3 N  pz              0.2       0.9       0.0       0.0       0.1       0.3
 3 N  px              2.7       0.0       0.0      10.3       0.6       0.2
 3 N  py              6.8       0.0       2.7       2.0       2.8       0.8
 3 N  dz2             0.7       0.0       1.4       0.8       0.0       0.0
 3 N  dx2y2           0.9       0.0       0.1       2.8       0.2       0.0
 3 N  dxy             1.0       0.0       0.7       0.2       0.1       0.0
 4 C  s               2.5       0.0      13.6       0.8       0.4       0.1
 4 C  pz              0.0      58.8       0.0       0.0       0.3       1.1
 4 C  px              1.9       0.0       1.0       1.0       0.1       0.0
 4 C  py             22.8       0.0       1.0       5.1       1.5       0.4
 4 C  dz2             0.1       0.0       0.7       0.6       0.0       0.0
 4 C  dxz             0.0       0.9       0.0       0.0       0.0       0.0
 4 C  dx2y2           1.5       0.0       0.2       0.2       0.1       0.0
 4 C  dxy             0.0       0.0       0.0       0.2       0.3       0.1
 5 C  s               0.0       0.0       5.5       1.1       2.8       1.3
 5 C  pz              2.3      13.6       0.0       0.0       3.8      10.4
 5 C  px              8.7       0.0       2.8       6.7       0.9       0.2
 5 C  py              4.5       0.0       1.5       0.1       3.1       1.1
 5 C  dz2             0.1       0.0       0.4       0.3       0.4       0.1
 5 C  dyz             0.0       0.0       0.0       0.0       0.2       0.4
 5 C  dx2y2           0.2       0.0       0.0       1.7       0.0       0.0
 5 C  dxy             0.9       0.0       0.2       0.1       0.2       0.1
 6 N  s               0.3       0.0       0.0       0.1       0.2       0.1
 6 N  pz              0.1       1.4       0.0       0.0       0.6       1.4
 6 N  px              1.0       0.0       3.4       4.5       2.7       0.9
 6 N  py              4.6       0.0       5.6       0.8       2.5       0.7
 6 N  dz2             0.1       0.0       1.6       0.0       0.5       0.2
 6 N  dx2y2           0.1       0.0       0.1       1.2       0.1       0.0
 6 N  dxy             0.0       0.0       0.0       0.3       0.4       0.1
 7 H  s               0.5       0.8       0.5       1.2       4.3       0.1
 8 H  s               1.1       0.0       6.9       3.5       0.8       0.3
 9 H  s               0.8       0.8       0.6       0.9       0.6       3.9
10 H  s               0.3       0.0       9.0       1.8       0.1       0.0
11 H  s               0.8       0.0       4.8       4.5       0.0       0.0
12 H  s               0.4       0.0       0.5       4.8       5.3       1.9

                     54        55        56        57        58        59   
                   0.61206   0.63059   0.64644   0.64783   0.65852   0.66755
                   0.00000   0.00000   0.00000   0.00000   0.00000   0.00000
                  --------  --------  --------  --------  --------  --------
 0 C  s               1.5      28.6       8.2       0.1       6.5       0.5
 0 C  pz              0.0       0.0       0.0      57.0       0.4       0.0
 0 C  px              4.5       8.0       9.7       0.1       9.4       1.4
[...]
 6 N  s               1.9       0.0       0.1       0.0       0.0       1.7
 6 N  pz              0.0       0.9       0.0       0.1       1.3       0.0
 6 N  px              1.1       0.0       0.9       0.0       0.0       0.5
 6 N  py              2.4       0.0       0.2       0.0       0.0       0.8
 6 N  dz2             6.6       0.0       1.2       0.0       0.0      13.1
 6 N  dxz             0.0       8.5       0.0      34.2       1.5       0.0
 6 N  dyz             0.0      21.0       0.0       3.0      31.7       0.0
 6 N  dx2y2           3.4       0.0       2.4       0.0       0.0       0.3
 6 N  dxy             0.3       0.0       2.1       0.0       0.0       5.5
 7 H  s               1.0       0.0       0.0       0.0       0.0       0.0
 8 H  s               0.5       0.0       0.0       0.0       0.0       0.0
 9 H  s               1.0       0.0       0.0       0.0       0.0       0.0
10 H  s               0.0       0.0       0.0       0.0       0.0       0.5
11 H  s               0.0       0.0       0.4       0.0       0.0       0.0
12 H  s               0.1       0.0       0.4       0.0       0.0       0.2

                    102       103       104       105       106       107   
                   2.61767   2.67132   2.72239   2.79710   2.88186   3.05870
                   0.00000   0.00000   0.00000   0.00000   0.00000   0.00000
                  --------  --------  --------  --------  --------  --------
 0 C  s               0.0       0.0       0.8       0.0       0.1       0.1
 0 C  px              0.0       0.1       1.8       0.0       0.2       0.0
 0 C  dz2             0.1       0.0       1.7       0.0       0.1       0.0
 0 C  dyz             0.0       0.0       0.0       0.3       0.0       0.0
 0 C  dx2y2           0.1       0.4       7.3       0.0       0.6       0.0
 0 C  dxy             1.4       3.9       0.1       0.0       0.7       0.3
 1 C  s               3.8       0.1       1.8       0.0       0.1       1.6
 1 C  px              0.7       0.1       0.4       0.0       0.1       0.8
 1 C  py              0.4       0.7       1.3       0.0       1.6       0.9
 1 C  dz2             5.4       0.1       3.1       0.0       0.2       0.1
 1 C  dyz             0.0       0.0       0.0      10.8       0.0       0.0
 1 C  dx2y2           0.7       4.0      20.8       0.0       4.7       0.1
 1 C  dxy             8.4      16.9       0.6       0.0       1.0       2.9
 2 C  s               3.4       0.0       0.0       0.0       0.6       2.5
 2 C  px              0.1       0.5       0.5       0.0       1.5       2.1
 2 C  py              1.5       0.6       0.1       0.0       0.2       0.1
 2 C  dz2             5.5       0.0       0.0       0.0       1.2       0.3
 2 C  dxz             0.0       0.0       0.0       9.6       0.0       0.0
 2 C  dyz             0.0       0.0       0.0       1.6       0.0       0.0
 2 C  dx2y2           1.0      13.8       4.2       0.0       0.4       2.1
 2 C  dxy             4.6       0.7       6.0       0.0       2.8       0.8
 3 N  s               1.1       1.5       0.4       0.0       2.0       0.0
 3 N  px              0.5       0.9       0.5       0.0       0.0       2.8
 3 N  py              0.6       0.4       0.4       0.0       0.2       1.0
 3 N  dz2            13.8       3.5       2.9       0.0      10.3       0.0
 3 N  dxz             0.0       0.0       0.0      20.0       0.0       0.0
 3 N  dyz             0.0       0.0       0.0       7.8       0.0       0.0
 3 N  dx2y2           0.4       1.3       0.4       0.0       3.6      32.0
 3 N  dxy             0.1       0.1       0.2       0.0      22.4       6.6
 4 C  s               0.4       0.4       0.4       0.0       0.6       2.0
 4 C  px              0.3       0.4       0.1       0.0       0.0       0.6
 4 C  py              0.6       2.3       0.0       0.0       1.9       1.3
 4 C  dz2             0.3       0.1       0.8       0.0       1.0       0.2
 4 C  dyz             0.0       0.0       0.0      11.1       0.0       0.0
 4 C  dx2y2          14.1       3.4       5.1       0.0       4.1       0.1
 4 C  dxy             1.8       9.4       0.1       0.0       0.2       3.1
 5 C  s               0.1       0.1       1.8       0.0       0.2       1.7
 5 C  px              0.8       2.6       0.3       0.0       1.3       1.2
 5 C  py              0.1       1.0       0.1       0.0       0.2       0.1
 5 C  dz2             0.1       0.0       2.6       0.0       0.5       0.1
 5 C  dxz             0.0       0.0       0.0       9.7       0.0       0.0
 5 C  dyz             0.0       0.0       0.0       1.7       0.0       0.0
 5 C  dx2y2          14.3       2.0       4.0       0.0       0.1       1.1
 5 C  dxy             2.2      12.7       1.4       0.0       2.5       0.6
 6 N  s               1.1       2.1       3.0       0.0       1.6       0.0
 6 N  px              0.8       0.5       1.4       0.0       0.1       1.8
 6 N  py              0.3       1.5       0.6       0.0       0.1       0.9
 6 N  dz2             6.9       8.6      21.0       0.0       6.1       0.0
 6 N  dxz             0.0       0.0       0.0      19.9       0.0       0.0
 6 N  dyz             0.0       0.0       0.0       7.4       0.0       0.0
 6 N  dx2y2           0.0       1.2       0.7       0.0       4.6      22.5
 6 N  dxy             0.0       1.4       0.1       0.0      20.2       5.5
 8 H  s               0.0       0.1       0.1       0.0       0.0       0.0
10 H  s               0.0       0.1       0.6       0.0       0.0       0.0
11 H  s               1.1       0.2       0.1       0.0       0.1       0.0
12 H  s               1.0       0.2       0.1       0.0       0.0       0.0

                    108       109   
                   3.22043   3.44252
                   0.00000   0.00000
                  --------  --------
 0 C  px              0.0       0.3
 0 C  dx2y2           0.0       0.7
 0 C  dxy             1.1       0.0
 1 C  s               0.6       0.6
 1 C  px              0.1       0.2
 1 C  py              2.4       0.0
 1 C  dz2             0.1       0.4
 1 C  dx2y2           0.4      13.0
 1 C  dxy             9.3       0.3
 2 C  s               0.4       0.9
 2 C  px              2.4       0.0
 2 C  py              0.2       0.0
 2 C  dz2             0.1       0.7
 2 C  dx2y2           5.1       3.5
 2 C  dxy             1.1       7.4
 3 N  s               0.0       1.3
 3 N  px              2.3       0.0
 3 N  py              0.9       0.1
 3 N  dz2             0.0       2.0
 3 N  dx2y2          18.9       3.1
 3 N  dxy             3.5      15.1
 4 C  s               0.4       1.1
 4 C  py              2.1       0.0
 4 C  dz2             0.1       0.8
 4 C  dx2y2           0.2      10.3
 4 C  dxy             4.5       0.1
 5 C  s               0.6       1.0
 5 C  px              2.6       0.1
 5 C  py              0.1       0.0
 5 C  dz2             0.1       0.8
 5 C  dx2y2           4.3       3.6
 5 C  dxy             1.2       7.3
 6 N  s               0.0       1.4
 6 N  px              2.8       0.1
 6 N  py              1.3       0.1
 6 N  dz2             0.0       2.0
 6 N  dx2y2          25.0       4.2
 6 N  dxy             5.5      16.3
10 H  s               0.0       0.3
11 H  s               0.0       0.3
12 H  s               0.0       0.3


                      *****************************
                      * MAYER POPULATION ANALYSIS *
                      *****************************

  NA   - Mulliken gross atomic population
  ZA   - Total nuclear charge
  QA   - Mulliken gross atomic charge
  VA   - Mayer's total valence
  BVA  - Mayer's bonded valence
  FA   - Mayer's free valence

  ATOM       NA         ZA         QA         VA         BVA        FA
  0 C      6.2015     6.0000    -0.2015     3.8598     3.8598     0.0000
  1 C      6.1016     6.0000    -0.1016     4.1850     4.1850    -0.0000
  2 C      6.0683     6.0000    -0.0683     3.9730     3.9730     0.0000
  3 N      7.0411     7.0000    -0.0411     3.2249     3.2249     0.0000
  4 C      6.0604     6.0000    -0.0604     3.9768     3.9768    -0.0000
  5 C      6.0480     6.0000    -0.0480     3.9714     3.9714     0.0000
  6 N      7.0494     7.0000    -0.0494     3.2271     3.2271     0.0000
  7 H      0.8796     1.0000     0.1204     0.9551     0.9551     0.0000
  8 H      0.8853     1.0000     0.1147     0.9919     0.9919     0.0000
  9 H      0.8781     1.0000     0.1219     0.9547     0.9547     0.0000
 10 H      0.9388     1.0000     0.0612     0.9676     0.9676    -0.0000
 11 H      0.9234     1.0000     0.0766     0.9583     0.9583    -0.0000
 12 H      0.9244     1.0000     0.0756     0.9577     0.9577     0.0000

  Mayer bond orders larger than 0.100000
B(  0-C ,  1-C ) :   1.0964 B(  0-C ,  7-H ) :   0.9341 B(  0-C ,  8-H ) :   0.9352 
B(  0-C ,  9-H ) :   0.9329 B(  1-C ,  2-C ) :   1.3183 B(  1-C ,  4-C ) :   0.1042 
B(  1-C ,  6-N ) :   1.5784 B(  2-C ,  3-N ) :   1.5770 B(  2-C ,  5-C ) :   0.1005 
B(  2-C , 10-H ) :   0.9530 B(  3-N ,  4-C ) :   1.5284 B(  4-C ,  5-C ) :   1.3702 
B(  4-C , 11-H ) :   0.9476 B(  5-C ,  6-N ) :   1.5240 B(  5-C , 12-H ) :   0.9459 


-------
TIMINGS
-------

Total SCF time: 0 days 0 hours 0 min 4 sec 

Total time                  ....       4.365 sec
Sum of individual times     ....       4.003 sec  ( 91.7%)

SCF preparation             ....       0.148 sec  (  3.4%)
Fock matrix formation       ....       3.311 sec  ( 75.8%)
  Startup                   ....       0.045 sec  (  1.4% of F)
  Split-RI-J                ....       0.993 sec  ( 30.0% of F)
  XC integration            ....       1.892 sec  ( 57.2% of F)
    Basis function eval.    ....       0.582 sec  ( 30.8% of XC)
    Density eval.           ....       0.275 sec  ( 14.5% of XC)
    XC-Functional eval.     ....       0.168 sec  (  8.9% of XC)
    XC-Potential eval.      ....       0.431 sec  ( 22.8% of XC)
Diagonalization             ....       0.000 sec  (  0.0%)
Density matrix formation    ....       0.133 sec  (  3.0%)
Total Energy calculation    ....       0.025 sec  (  0.6%)
Population analysis         ....       0.052 sec  (  1.2%)
Orbital Transformation      ....       0.042 sec  (  1.0%)
Orbital Orthonormalization  ....       0.000 sec  (  0.0%)
DIIS solution               ....       0.237 sec  (  5.4%)
  MO trafo                  ....       0.000 sec  (  0.0 % of DIIS)
  Orb grad                  ....       0.000 sec  (  0.0 % of DIIS)
  Energy W gradient         ....       0.000 sec  (  0.0 % of DIIS)
  DIIS error                ....       0.002 sec  (  0.8 % of DIIS)
  DIIS work                 ....       0.197 sec  ( 83.2 % of DIIS)
  Form Q                    ....       0.000 sec  (  0.0 % of DIIS)
  Form QpQm                 ....       0.000 sec  (  0.0 % of DIIS)
  Exp/Cayley                ....       0.000 sec  (  0.0 % of DIIS)
  Orb update                ....       0.000 sec  (  0.0 % of DIIS)
  Wake-sleep                ....       0.013 sec  (  5.6 % of DIIS)
SOSCF solution              ....       0.057 sec  (  1.3%)
  MO trafo                  ....       0.034 sec  ( 59.6 % of SOSCF)
  Orb grad                  ....       0.001 sec  (  2.1 % of SOSCF)
  Rot update                ....       0.010 sec  ( 16.8 % of SOSCF)
  Step                      ....       0.012 sec  ( 21.4 % of SOSCF)
Finished LeanSCF after   4.4 sec

Maximum memory used throughout the entire LEANSCF-calculation: 10.1 MB


-------------------------------------------------------------------------------
                          DFT DISPERSION CORRECTION                            
                                                                               
                                DFTD4 V3.4.0                                   
-------------------------------------------------------------------------------
The PBE functional is recognized
Active option DFTDOPT                   ...         5   

-------------------------   ----------------
Dispersion correction           -0.011959223
-------------------------   ----------------

------------------   -----------------
gCP correction             0.050385466
------------------   -----------------

-------------------------   --------------------
FINAL SINGLE POINT ENERGY      -302.985526054679
-------------------------   --------------------


------------------------------------------------------------------------------
                              ORCA PROPERTY CALCULATIONS
------------------------------------------------------------------------------

GBWName                                 ... sp.gbw
Number of atoms                         ...     13
Number of basis functions               ...    110
Max core memory                         ...   1024 MB

Electric properties:
Dipole moment                           ... YES
Quadrupole moment                       ...  NO
Static polarizability (Dipole/Dipole)   ...  NO
Static polarizability (Dipole/Quad.)    ...  NO
Static polarizability (Quad./Quad.)     ...  NO
Static polarizability (Velocity)        ...  NO

Atomic electric properties:
Dipole moment                           ...  NO
Quadrupole moment                       ...  NO
Static polarizability                   ...  NO

Choice of electric origin               ... Center of mass
Position of electric origin             ...     0.000004     0.000000    -0.000000

General magnetic properties:
Magnetizability                         ...  NO

EPR properties:
g-Tensor (aka g-matrix)                 ...  NO
Zero-Field splitting spin-orbit         ...  NO
Zero-field splitting spin-spin          ...  NO
Hyperfine couplings                     ...  NO (   0 nuclei)
Quadrupole couplings                    ...  NO (   0 nuclei)
Contact density                         ...  NO (   0 nuclei)

NMR properties:
Chemical shifts                         ...  NO (   0 nuclei)
Spin-rotation constants                 ...  NO (   0 nuclei)
Spin-spin couplings                     ...  NO (   0 nuclei,    0 pairs)

Choice of magnetic origin               ... GIAO
Position of magnetic origin             ...     0.000000     0.000000     0.000000

Properties with geometric perturbations:
SCF Hessian                             ...  NO
IR spectrum                             ...  NO
VCD spectrum                            ...  NO
X-ray spectroscopy properties:
SCF XES/XAS/RIXS spectra                ...  NO


-------------
DIPOLE MOMENT
-------------

Method             : SCF
Type of density    : Electron Density
Multiplicity       :   1
Irrep              :   0
Energy             :  -303.0239522983143274 Eh
Relativity type    : 
Basis              : AO
                                X                 Y                 Z
Electronic contribution:     -4.032214001      -0.129979496       0.002320317
Nuclear contribution   :      4.271880057       0.134636965      -0.005551677
                        -----------------------------------------
Total Dipole Moment    :      0.239666056       0.004657470      -0.003231360
                        -----------------------------------------
Magnitude (a.u.)       :      0.239733085
Magnitude (Debye)      :      0.609353077



--------------------
Rotational spectrum 
--------------------
 
Rotational constants in cm-1:             0.198397             0.090939             0.063086 
Rotational constants in MHz :          5947.795524          2726.287854          1891.261281 

Dipole components along the rotational axes: 
x,y,z [a.u.] :    -0.239666     0.004657    -0.003231 
x,y,z [Debye]:    -0.609183     0.011837    -0.008213 

 

Dipole moment calculation done in   0.0 sec 

Maximum memory used throughout the entire PROP-calculation: 6.5 MB

--------------------------------
SUGGESTED CITATIONS FOR THIS RUN
--------------------------------

Below you find a list of papers that are relevant to this ORCA run
We neither can nor want to force you to cite these papers, but we appreciate if you do
You receive ORCA, which is the product of decades of hard work by many enthusiastic individuals, for free
The only thing we kindly ask in return is that you cite our papers,
We deeply appreciate it, if you show your appreciation for ORCA by not just citing the generic ORCA reference.

Please note that relegating all ORCA citations to the supporting information does *not* help us.
SI sections are not indexed - citations you put there will not count into any citation statistics
But we need these citations in order to attract the funding resources that allow us to do what we are doing

Therefore, if you are a happy ORCA user, please consider citing a few of the papers listed below in the main body of your paper

In addition to the list printed below, the program has created the file sp.bibtex that contains the list in bibtex format
You can import this file easily into all common literature databanks and citation aid programs


List of essential papers. We consider these as the minimum necessary citations

  1. Neese,F.
     Software update: the ORCA program system, version 5.0
     WIRES Comput. Molec. Sci., 2022 12(1)e1606
     doi.org/10.1002/wcms.1606

List of papers to cite with high priority. The work reported in these papers was absolutely
necessary for this run to complete.
Our perspective: the developers of density functionals and basis sets usually get cited in chemistry papers
Good! But without the algorithms to do something with them, the functionals or basis sets would not do anything.
Hence, in our opinion, the algorithm design and method developments papers are equally worthy of getting cited

  1. Neese,F.
     An improvement of the resolution of the identity approximation for the formation of the Coulomb matrix
     J. Comp. Chem., 2003 24(14)1740-1747
     doi.org/10.1002/jcc.10318
  2. Neese,F.
     The SHARK Integral Generation and Digestion System
     J. Comp. Chem., 2022  1-16
     doi.org/10.1002/jcc.26942
  3. Caldeweyher,E.; Bannwarth,C.; Grimme,S.
     Extension of the D3 dispersion coefficient model
     J. Chem. Phys., 2017 147 034112-XXXX
     doi.org/10.1063/1.4993215
  4. Caldeweyher,E.; Ehlert,S.; Hansen,A.; Neugebauer,H.; Spicher,S.; Bannwarth,C.; Grimme,S.
     A generally applicable atomic-charge dependent London dispersion correction
     J. Chem. Phys., 2019 150 154122-XXXX
     doi.org/10.1063/1.5090222
  5. Caldeweyher,E.; Mewes,J.; Ehlert,S.; Grimme,S.
     Extension and evaluation of the D4 London-dispersion model for periodic systems
     Phys. Chem. Chem. Phys., 2020 22(16)8499-8512
     doi.org/10.1039/D0CP00502A

List of suggested additional citations. These are papers that are important in the 'surrounding' of 
of this run, or papers that preceded the highly important papers. If you like your results we are grateful for a citation.

  1. Neese,F.
     The ORCA program system
     WIRES Comput. Molec. Sci., 2012 2(1)73-78
     doi.org/10.1002/wcms.81
  2. Neese,F.
     Software update: the ORCA program system, version 4.0
     WIRES Comput. Molec. Sci., 2018 8(1)1-6
     doi.org/10.1002/wcms.1327
  3. Neese,F.; Wennmohs,F.; Becker,U.; Riplinger,C.
     The ORCA quantum chemistry program package
     J. Chem. Phys., 2020 152 Art. No. L224108
     doi.org/10.1063/5.0004608

List of optional additional citations

  1. Neese,F.
     Approximate second-order SCF convergence for spin unrestricted wavefunctions
     Chem. Phys. Lett., 2000 325(1-3)93-98
     doi.org/10.1016/s0009-2614(00)00662-x

Timings for individual modules:

Sum of individual times          ...        5.587 sec (=   0.093 min)
Startup calculation              ...        0.532 sec (=   0.009 min)   9.5 %
SCF iterations                   ...        4.956 sec (=   0.083 min)  88.7 %
Property calculations            ...        0.098 sec (=   0.002 min)   1.8 %
                             ****ORCA TERMINATED NORMALLY****
TOTAL RUN TIME: 0 days 0 hours 0 minutes 6 seconds 181 msec
