
                                 *****************
                                 * O   R   C   A *
                                 *****************

                                            #,                                       
                                            ###                                      
                                            ####                                     
                                            #####                                    
                                            ######                                   
                                           ########,                                 
                                     ,,################,,,,,                         
                               ,,#################################,,                 
                          ,,##########################################,,             
                       ,#########################################, ''#####,          
                    ,#############################################,,   '####,        
                  ,##################################################,,,,####,       
                ,###########''''           ''''###############################       
              ,#####''   ,,,,##########,,,,          '''####'''          '####       
            ,##' ,,,,###########################,,,                        '##       
           ' ,,###''''                  '''############,,,                           
         ,,##''                                '''############,,,,        ,,,,,,###''
      ,#''                                            '''#######################'''  
     '                                                          ''''####''''         
             ,#######,   #######,   ,#######,      ##                                
            ,#'     '#,  ##    ##  ,#'     '#,    #''#        ,####,   ,####,        
            ##       ##  ##   ,#'  ##            #'  '#       #'       #'  '#        
            ##       ##  #######   ##           ,######,      #####,   #    #        
            '#,     ,#'  ##    ##  '#,     ,#' ,#      #,     #,   #   #,  ,#        
             '#######'   ##     ##  '#######'  #'      '#     '####' # '####'        



                #########################################################
                #                        -***-                          #
                #          Department of theory and spectroscopy        #
                #                                                       #
                #                      Frank Neese                      #
                #                                                       #
                #     Directorship, Architecture, Infrastructure        #
                #                    SHARK, DRIVERS                     #
                #        Core code/Algorithms in most modules           #
                #                                                       #
                #        Max Planck Institute fuer Kohlenforschung      #
                #                Kaiser Wilhelm Platz 1                 #
                #                 D-45470 Muelheim/Ruhr                 #
                #                      Germany                          #
                #                                                       #
                #                  All rights reserved                  #
                #                        -***-                          #
                #########################################################


                         Program Version 6.0.0  -   RELEASE  -


 With contributions from (in alphabetic order):
   Daniel Aravena         : Magnetic Suceptibility
   Michael Atanasov       : Ab Initio Ligand Field Theory (pilot matlab implementation)
   Alexander A. Auer      : GIAO ZORA, VPT2 properties, NMR spectrum
   Ute Becker             : All parallelization in ORCA, NUMFREQ, NUMCALC
   Giovanni Bistoni       : ED, misc. LED, open-shell LED, HFLD
   Martin Brehm           : Molecular dynamics
   Dmytro Bykov           : pre 5.0 version of the SCF Hessian
   Marcos Casanova-Páez   : Triplet and SCS-CIS(D). UHF-(DLPNO)-IP/EA/STEOM-CCSD. UHF-CVS-IP/STEOM-CCSD
   Vijay G. Chilkuri      : MRCI spin determinant printing, contributions to CSF-ICE
   Pauline Colinet        : FMM embedding
   Dipayan Datta          : RHF DLPNO-CCSD density
   Achintya Kumar Dutta   : EOM-CC, STEOM-CC
   Nicolas Foglia         : Exact transition moments, OPA infrastructure, MCD improvements
   Dmitry Ganyushin       : Spin-Orbit,Spin-Spin,Magnetic field MRCI
   Miquel Garcia          : C-PCM and meta-GGA Hessian, CCSD/C-PCM, Gaussian charge scheme
   Tiago L. C. Gouveia    : GS-ROHF, GS-ROCIS
   Yang Guo               : DLPNO-NEVPT2, F12-NEVPT2, CIM, IAO-localization
   Andreas Hansen         : Spin unrestricted coupled pair/coupled cluster methods
   Ingolf Harden          : AUTO-CI MPn and infrastructure 
   Benjamin Helmich-Paris : MC-RPA, TRAH-(SCF,CASSCF), AVAS, COSX integrals, SCF dyn. polar.
   Lee Huntington         : MR-EOM, pCC
   Robert Izsak           : Overlap fitted RIJCOSX, COSX-SCS-MP3, EOM
   Riya Kayal             : Wick's Theorem for AUTO-CI, AUTO-CI UHF-CCSDT
   Emily Kempfer          : AUTO-CI, RHF CISDT and CCSDT
   Christian Kollmar      : KDIIS, OOCD, Brueckner-CCSD(T), CCSD density, CASPT2, CASPT2-K, improved NEVPT2
   Axel Koslowski         : Symmetry handling
   Simone Kossmann        : Meta GGA functionals, TD-DFT gradient, OOMP2, (MP2 Hessian; deprecated post 5.0)
   Lucas Lang             : DCDCAS
   Marvin Lechner         : AUTO-CI (C++ implementation), FIC-MRCC
   Spencer Leger          : CASSCF response
   Dagmar Lenk            : GEPOL surface, SMD, ORCA-2-JSON
   Dimitrios Liakos       : Extrapolation schemes; Compound Job, initial MDCI parallelization
   Dimitrios Manganas     : Further ROCIS development; embedding schemes. LFT, Crystal Embedding
   Dimitrios Pantazis     : SARC Basis sets
   Anastasios Papadopoulos: AUTO-CI, single reference methods and gradients
   Taras Petrenko         : pre 6.0 DFT Hessian and TD-DFT gradient, (ASA, deprecated), ECA, 1-Electron XAS/XES, NRVS
   Peter Pinski           : DLPNO-MP2, DLPNO-MP2 Gradient
   Christoph Reimann      : Effective Core Potentials
   Marius Retegan         : Local ZFS, SOC
   Christoph Riplinger    : Optimizer, TS searches, QM/MM, DLPNO-CCSD(T), (RO)-DLPNO pert. Triples
   Michael Roemelt        : Original ROCIS implementation
   Masaaki Saitow         : Open-shell DLPNO-CCSD energy and density
   Barbara Sandhoefer     : DKH picture change effects
   Kantharuban Sivalingam : CASSCF convergence/infrastructure, NEVPT2 and variants, FIC-MRCI
   Bernardo de Souza      : ESD, SOC TD-DFT
   Georgi Stoychev        : AutoAux, RI-MP2 NMR, DLPNO-MP2 response, X2C
   Van Anh Tran           : RI-MP2 g-tensors
   Willem Van den Heuvel  : Paramagnetic NMR
   Zikuan Wang            : NOTCH, Electric field optimization 
   Frank Wennmohs         : Technical directorship and infrastructure
   Hang Xu                : AUTO-CI-Response properties 


 We gratefully acknowledge several colleagues who have allowed us to
 interface, adapt or use parts of their codes:
   Stefan Grimme, W. Hujo, H. Kruse, P. Pracht,  : VdW corrections, initial TS optimization,
                  C. Bannwarth, S. Ehlert,         DFT functionals, gCP, sTDA/sTD-DF
                  L. Wittmann, M. Mueller
   Ed Valeev, F. Pavosevic, A. Kumar             : LibInt (2-el integral package), F12 methods
   Garnet Chan, S. Sharma, J. Yang, R. Olivares  : DMRG
   Ulf Ekstrom                                   : XCFun DFT Library
   Mihaly Kallay                                 : mrcc  (arbitrary order and MRCC methods)
   Frank Weinhold                                : gennbo (NPA and NBO analysis)
   Simon Mueller                                 : openCOSMO-RS
   Christopher J. Cramer and Donald G. Truhlar   : smd solvation model
   Lars Goerigk                                  : TD-DFT with DH, B97 family of functionals
   V. Asgeirsson, H. Jonsson                     : NEB implementation
   FAccTs GmbH                                   : IRC, NEB, NEB-TS, DLPNO-Multilevel, CI-OPT
                                                   MM, QMMM, 2- and 3-layer-ONIOM, Crystal-QMMM,
                                                   LR-CPCM, SF, NACMEs, symmetry and pop. for TD-DFT,
                                                   nearIR, NL-DFT gradient (VV10), updates on ESD,
                                                   ML-optimized integration grids, MBIS, APM,
                                                   GOAT, DOCKER, SOLVATOR, interface openCOSMO-RS
   S Lehtola, MJT Oliveira, MAL Marques          : LibXC Library
   Liviu Ungur et al                             : ANISO software


 Your calculation uses the libint2 library for the computation of 2-el integrals
 For citations please refer to: http://libint.valeyev.net

 Your ORCA version has been built with support for libXC version: 6.2.2
 For citations please refer to: https://libxc.gitlab.io

 This ORCA versions uses:
   CBLAS   interface :  Fast vector & matrix operations
   LAPACKE interface :  Fast linear algebra routines
   SCALAPACK package :  Parallel linear algebra routines
   Shared memory     :  Shared parallel matrices
   BLAS/LAPACK       :  OpenBLAS 0.3.27  USE64BITINT DYNAMIC_ARCH NO_AFFINITY SkylakeX SINGLE_THREADED
        Core in use  :  SkylakeX
   Copyright (c) 2011-2014, The OpenBLAS Project


Your calculation utilizes the geometrical counterpoise correction gCP
Please cite in your paper:
H.Kruse, S. Grimme J.Chem.Phys., 136, (2012), 154101 
   

Your calculation utilizes the atom-pairwise dispersion correction
based on EEQ partial charges (D4)


================================================================================

----- Orbital basis set information -----
Your calculation utilizes the basis: def2-mTZVPP
   Stefan Grimme, Andreas Hansen, Sebastian Ehlert, and Jan-Michael Mewes 
   J. Chem. Phys. 154, 064103 (2021). DOI: 10.1063/5.0040021

----- AuxJ basis set information -----
Your calculation utilizes the auxiliary basis: def2/J
   F. Weigend, Phys. Chem. Chem. Phys. 8, 1057 (2006).

================================================================================
                                        WARNINGS
                       Please study these warnings very carefully!
================================================================================

Using LibXC functional ID 497 : Re-regularized SCAN exchange by Furness et al
[ 1]  J. W. Furness, A. D. Kaplan, J. Ning, J. P. Perdew, and J. Sun.,  J. Phys. Chem. Lett. 11, 8208-8215 (2020)
[ 2]  J. W. Furness, A. D. Kaplan, J. Ning, J. P. Perdew, and J. Sun.,  J. Phys. Chem. Lett. 11, 9248-9248 (2020)
Using LibXC functional ID 498 : Re-regularized SCAN correlation by Furness et al
[ 1]  J. W. Furness, A. D. Kaplan, J. Ning, J. P. Perdew, and J. Sun.,  J. Phys. Chem. Lett. 11, 8208-8215 (2020)
[ 2]  J. W. Furness, A. D. Kaplan, J. Ning, J. P. Perdew, and J. Sun.,  J. Phys. Chem. Lett. 11, 9248-9248 (2020)
Using LibXC functional ID 497 : Re-regularized SCAN exchange by Furness et al
[ 1]  J. W. Furness, A. D. Kaplan, J. Ning, J. P. Perdew, and J. Sun.,  J. Phys. Chem. Lett. 11, 8208-8215 (2020)
[ 2]  J. W. Furness, A. D. Kaplan, J. Ning, J. P. Perdew, and J. Sun.,  J. Phys. Chem. Lett. 11, 9248-9248 (2020)
Using LibXC functional ID 498 : Re-regularized SCAN correlation by Furness et al
[ 1]  J. W. Furness, A. D. Kaplan, J. Ning, J. P. Perdew, and J. Sun.,  J. Phys. Chem. Lett. 11, 8208-8215 (2020)
[ 2]  J. W. Furness, A. D. Kaplan, J. Ning, J. P. Perdew, and J. Sun.,  J. Phys. Chem. Lett. 11, 9248-9248 (2020)

================================================================================
                                       INPUT FILE
================================================================================
NAME = sp_gas.inp
|  1> ! r2scan-3c def2/J RI DEFGRID2 scfconv6 printgap
|  2> %output
|  3>     printlevel normal
|  4> end
|  5> * xyz 0 1
|  6> C -1.9464718733 -0.1007945054 -0.0376157525
|  7> C -0.5623961327 0.5334757377 0.0108198183
|  8> C 0.5440580795 -0.5192289071 0.0154304484
|  9> N 1.8529581817 0.1206068312 -0.0395915419
| 10> H -2.0998784332 -0.7486878033 0.8228627353
| 11> H -2.7154906557 0.6670101382 -0.0322389568
| 12> H -2.0599952546 -0.6971442686 -0.9397529397
| 13> H -0.4720454359 1.1494229441 0.9087022233
| 14> H -0.4176100205 1.1823899548 -0.8535745681
| 15> H 0.4183401981 -1.1690281853 0.8997498172
| 16> H 0.4497018618 -1.1489344769 -0.8742320005
| 17> H 2.5814043106 -0.58419569 -0.0267768725
| 18> H 1.9791045551 0.7044838347 0.7808711244
| 19> *
| 20> 
| 21>                          ****END OF INPUT****
================================================================================

                       ****************************
                       * Single Point Calculation *
                       ****************************

---------------------------------
CARTESIAN COORDINATES (ANGSTROEM)
---------------------------------
  C     -1.946472   -0.100795   -0.037616
  C     -0.562396    0.533476    0.010820
  C      0.544058   -0.519229    0.015430
  N      1.852958    0.120607   -0.039592
  H     -2.099878   -0.748688    0.822863
  H     -2.715491    0.667010   -0.032239
  H     -2.059995   -0.697144   -0.939753
  H     -0.472045    1.149423    0.908702
  H     -0.417610    1.182390   -0.853575
  H      0.418340   -1.169028    0.899750
  H      0.449702   -1.148934   -0.874232
  H      2.581404   -0.584196   -0.026777
  H      1.979105    0.704484    0.780871

----------------------------
CARTESIAN COORDINATES (A.U.)
----------------------------
  NO LB      ZA    FRAG     MASS         X           Y           Z
   0 C     6.0000    0    12.011   -3.678299   -0.190474   -0.071083
   1 C     6.0000    0    12.011   -1.062775    1.008123    0.020446
   2 C     6.0000    0    12.011    1.028121   -0.981200    0.029159
   3 N     7.0000    0    14.007    3.501584    0.227914   -0.074817
   4 H     1.0000    0     1.008   -3.968195   -1.414815    1.554985
   5 H     1.0000    0     1.008   -5.131534    1.260466   -0.060923
   6 H     1.0000    0     1.008   -3.892827   -1.317412   -1.775876
   7 H     1.0000    0     1.008   -0.892037    2.172095    1.717198
   8 H     1.0000    0     1.008   -0.789169    2.234393   -1.613022
   9 H     1.0000    0     1.008    0.790548   -2.209143    1.700281
  10 H     1.0000    0     1.008    0.849813   -2.171172   -1.652059
  11 H     1.0000    0     1.008    4.878147   -1.103970   -0.050601
  12 H     1.0000    0     1.008    3.739966    1.331282    1.475633

--------------------------------
INTERNAL COORDINATES (ANGSTROEM)
--------------------------------
 C      0   0   0     0.000000000000     0.00000000     0.00000000
 C      1   0   0     1.523256512055     0.00000000     0.00000000
 C      2   1   0     1.527235820294   111.80002176     0.00000000
 N      3   2   1     1.457956333009   110.35280695   175.73552186
 H      1   2   3     1.087990131412   110.54405630    59.51878065
 H      1   2   3     1.086711906786   110.40437897   179.56197003
 H      1   2   3     1.087369349715   110.46322341   299.60313475
 H      2   1   3     1.092587306668   109.63397858   238.95590043
 H      2   1   3     1.090518378882   110.07237831   120.59181669
 H      3   2   1     1.104565450160   108.99323238   300.36333960
 H      3   2   1     1.094043634157   109.37802899    57.77158841
 H      4   3   2     1.013678732317   109.84861778   179.43545758
 H      4   3   2     1.014881396780   109.48507456    61.62299785

---------------------------
INTERNAL COORDINATES (A.U.)
---------------------------
 C      0   0   0     0.000000000000     0.00000000     0.00000000
 C      1   0   0     2.878537639496     0.00000000     0.00000000
 C      2   1   0     2.886057442270   111.80002176     0.00000000
 N      3   2   1     2.755138184603   110.35280695   175.73552186
 H      1   2   3     2.056003384778   110.54405630    59.51878065
 H      1   2   3     2.053587890296   110.40437897   179.56197003
 H      1   2   3     2.054830277381   110.46322341   299.60313475
 H      2   1   3     2.064690787002   109.63397858   238.95590043
 H      2   1   3     2.060781080096   110.07237831   120.59181669
 H      3   2   1     2.087326197794   108.99323238   300.36333960
 H      3   2   1     2.067442847116   109.37802899    57.77158841
 H      4   3   2     1.915575191859   109.84861778   179.43545758
 H      4   3   2     1.917847898326   109.48507456    61.62299785

---------------------
BASIS SET INFORMATION
---------------------
There are 3 groups of distinct atoms

 Group   1 Type C   : 11s6p1d contracted to 5s3p1d pattern {62111/411/1}
 Group   2 Type N   : 11s6p2d contracted to 5s3p2d pattern {62111/411/11}
 Group   3 Type H   : 4s1p contracted to 2s1p pattern {31/1}

Atom   0C    basis set group =>   1
Atom   1C    basis set group =>   1
Atom   2C    basis set group =>   1
Atom   3N    basis set group =>   2
Atom   4H    basis set group =>   3
Atom   5H    basis set group =>   3
Atom   6H    basis set group =>   3
Atom   7H    basis set group =>   3
Atom   8H    basis set group =>   3
Atom   9H    basis set group =>   3
Atom  10H    basis set group =>   3
Atom  11H    basis set group =>   3
Atom  12H    basis set group =>   3
---------------------------------
AUXILIARY/J BASIS SET INFORMATION
---------------------------------
There are 3 groups of distinct atoms

 Group   1 Type C   : 12s5p4d2f1g contracted to 6s4p3d1f1g pattern {711111/2111/211/2/1}
 Group   2 Type N   : 12s5p4d2f1g contracted to 6s4p3d1f1g pattern {711111/2111/211/2/1}
 Group   3 Type H   : 5s2p1d contracted to 3s1p1d pattern {311/2/1}

Atom   0C    basis set group =>   1
Atom   1C    basis set group =>   1
Atom   2C    basis set group =>   1
Atom   3N    basis set group =>   2
Atom   4H    basis set group =>   3
Atom   5H    basis set group =>   3
Atom   6H    basis set group =>   3
Atom   7H    basis set group =>   3
Atom   8H    basis set group =>   3
Atom   9H    basis set group =>   3
Atom  10H    basis set group =>   3
Atom  11H    basis set group =>   3
Atom  12H    basis set group =>   3

Checking for AutoStart:
The File: sp_gas.gbw exists
Trying to determine its content:
     ... Fine, the file contains calculation information
     ... Fine, the calculation information was read
     ... Fine, the file contains a basis set
     ... Fine, the basis set was read
     ... Fine, the file contains a geometry
     ... Fine, the geometry was read
     ... Fine, the file contains a set of orbitals
     ... Fine, the orbitals can be read
     => possible old guess file was deleted
     => GBW file was renamed to GES file
     => GES file is set as startup file
     => Guess is set to MORead
     ... now leaving AutoStart

------------------------------------------------------------------------------
                             ORCA STARTUP CALCULATIONS
                           -- RI-GTO INTEGRALS CHOSEN --
------------------------------------------------------------------------------
------------------------------------------------------------------------------
                   ___                                                        
                  /   \      - P O W E R E D   B Y -                         
                 /     \                                                     
                 |  |  |   _    _      __       _____    __    __             
                 |  |  |  | |  | |    /  \     |  _  \  |  |  /  |          
                  \  \/   | |  | |   /    \    | | | |  |  | /  /          
                 / \  \   | |__| |  /  /\  \   | |_| |  |  |/  /          
                |  |  |   |  __  | /  /__\  \  |    /   |      \           
                |  |  |   | |  | | |   __   |  |    \   |  |\   \          
                \     /   | |  | | |  |  |  |  | |\  \  |  | \   \       
                 \___/    |_|  |_| |__|  |__|  |_| \__\ |__|  \__/        
                                                                              
                      - O R C A' S   B I G   F R I E N D -                    
                                      &                                       
                       - I N T E G R A L  F E E D E R -                       
                                                                              
 v1 FN, 2020, v2 2021, v3 2022-2024                                           
------------------------------------------------------------------------------


----------------------
SHARK INTEGRAL PACKAGE
----------------------

Number of atoms                             ...     13
Number of basis functions                   ...    126
Number of shells                            ...     64
Maximum angular momentum                    ...      2
Integral batch strategy                     ... SHARK/LIBINT Hybrid
RI-J (if used) integral strategy            ... SPLIT-RIJ (Revised 2003 algorithm where possible)
Printlevel                                  ...      1
Contraction scheme used                     ... SEGMENTED contraction
Prescreening option                         ... SCHWARTZ
   Thresh                                   ... 1.000e-10
   Tcut                                     ... 1.000e-11
   Tpresel                                  ... 1.000e-11 
Coulomb Range Separation                    ... NOT USED
Exchange Range Separation                   ... NOT USED
Multipole approximations                    ... NOT USED
Finite Nucleus Model                        ... NOT USED
CABS basis                                  ... NOT available
Auxiliary Coulomb fitting basis             ... AVAILABLE
   # of basis functions in Aux-J            ...    295
   # of shells in Aux-J                     ...    105
   Maximum angular momentum in Aux-J        ...      4
Auxiliary J/K fitting basis                 ... NOT available
Auxiliary Correlation fitting basis         ... NOT available
Auxiliary 'external' fitting basis          ... NOT available

Checking pre-screening integrals            ... done (  0.0 sec) Dimension = 64
Check shell pair data                       ... done (  0.0 sec)
Shell pair information
Shell pair cut-off parameter TPreSel        ...   1.0e-11
Total number of shell pairs                 ...      2080
Shell pairs after pre-screening             ...      1993
Total number of primitive shell pairs       ...      7136
Primitive shell pairs kept                  ...      5391
          la=0 lb=0:    705 shell pairs
          la=1 lb=0:    766 shell pairs
          la=1 lb=1:    221 shell pairs
          la=2 lb=0:    185 shell pairs
          la=2 lb=1:    101 shell pairs
          la=2 lb=2:     15 shell pairs

Calculating one electron integrals          ... done (  0.0 sec)
Calculating RI/J V-Matrix + Cholesky decomp.... done (  0.0 sec)
Calculating Nuclear repulsion               ... done (  0.0 sec) ENN=    131.759329990276 Eh

Diagonalization of the overlap matrix:
Smallest eigenvalue                        ... 2.999e-04
Time for diagonalization                   ...    0.001 sec
Threshold for overlap eigenvalues          ... 1.000e-07
Number of eigenvalues below threshold      ... 0
Time for construction of square roots      ...    0.012 sec
Total time needed                          ...    0.021 sec

-------------------
DFT GRID GENERATION
-------------------

General Integration Accuracy     IntAcc      ... 4.388
Radial Grid Type                 RadialGrid  ... OptM3 with GC (2021)
Angular Grid (max. ang.)         AngularGrid ... 4 (Lebedev-302)
Angular grid pruning method      GridPruning ... 4 (adaptive)
Weight generation scheme         WeightScheme... mBecke (2022)
Basis function cutoff            BFCut       ... 1.0000e-10
Integration weight cutoff        WCut        ... 1.0000e-14
Partially contracted basis set               ... off
Rotationally invariant grid construction     ... off
Angular grids for H and He will be reduced by one unit

Total number of grid points                  ...    53232
Total number of batches                      ...      838
Average number of points per batch           ...       63
Average number of grid points per atom       ...     4095
Initializing property integral containers    ... done (  0.0 sec)

SHARK setup successfully completed in   0.6 seconds

Maximum memory used throughout the entire STARTUP-calculation: 22.1 MB
-------------------------------------------------------------------------------
                                 ORCA GUESS
                   Start orbitals & Density for SCF / CASSCF
-------------------------------------------------------------------------------

------------
SCF SETTINGS
------------
Hamiltonian:
 Density Functional     Method          .... DFT(GTOs)
  Functional kind                       .... Exchange
  Functional name                       .... Re-regularized SCAN exchange by Furness et al
  Functional family                     .... MGGA
  Functional refs                              
    [ 0] J. W. Furness, A. D. Kaplan, J. Ning, J. P. Perdew, and J. Sun.,  J. Phys. Chem. Lett. 11, 8208-8215 (2020), doi: 10.1021/acs.jpclett.0c02405
    [ 1] J. W. Furness, A. D. Kaplan, J. Ning, J. P. Perdew, and J. Sun.,  J. Phys. Chem. Lett. 11, 9248-9248 (2020), doi: 10.1021/acs.jpclett.0c03077
  Functional external parameters        .... 6
    Parameter  0 _c1        =  6.670000e-01 : c1 parameter        
    Parameter  1 _c2        =  8.000000e-01 : c2 parameter        
    Parameter  2 _d         =  1.240000e+00 : d parameter         
    Parameter  3 _k1        =  6.500000e-02 : k1 parameter        
    Parameter  4 _eta       =  1.000000e-03 : eta parameter       
    Parameter  5 _dp2       =  3.610000e-01 : dp2 parameter       
  Functional kind                       .... Correlation
  Functional name                       .... Re-regularized SCAN correlation by Furness et al
  Functional family                     .... MGGA
  Functional refs                              
    [ 0] J. W. Furness, A. D. Kaplan, J. Ning, J. P. Perdew, and J. Sun.,  J. Phys. Chem. Lett. 11, 8208-8215 (2020), doi: 10.1021/acs.jpclett.0c02405
    [ 1] J. W. Furness, A. D. Kaplan, J. Ning, J. P. Perdew, and J. Sun.,  J. Phys. Chem. Lett. 11, 9248-9248 (2020), doi: 10.1021/acs.jpclett.0c03077
  Functional external parameters        .... 1
    Parameter  0 _eta       =  1.000000e-03 : Regularization parameter
 Gradients option       PostSCFGGA      .... off
 RI-approximation to the Coulomb term is turned on
   Number of AuxJ basis functions       .... 295


General Settings:
 Integral files         IntName         .... sp_gas
 Hartree-Fock type      HFTyp           .... RHF
 Total Charge           Charge          ....    0
 Multiplicity           Mult            ....    1
 Number of Electrons    NEL             ....   34
 Basis Dimension        Dim             ....  126
 Nuclear Repulsion      ENuc            ....    131.7593299903 Eh

Convergence Acceleration:
 AO-DIIS                CNVDIIS         .... on
   Start iteration      DIISMaxIt       ....    12
   Startup error        DIISStart       ....  0.200000
   # of expansion vecs  DIISMaxEq       ....     5
   Bias factor          DIISBfac        ....   1.050
   Max. coefficient     DIISMaxC        ....  10.000
 MO-DIIS                CNVKDIIS        .... off
 Trust-Rad. Augm. Hess. CNVTRAH         .... auto
   Auto Start mean grad. ratio tolernc. ....  1.125000
   Auto Start start iteration           ....     1
   Auto Start num. interpolation iter.  ....    10
   Max. Number of Micro iterations      ....    24
   Max. Number of Macro iterations      .... Maxiter - #DIIS iter
   Number of Davidson start vectors     ....     2
   Converg. threshold    (grad. norm)   ....   3.330e-04
   Grad. Scal. Fac. for Micro threshold ....   0.100
   Minimum threshold for Micro iter.    ....   1.000e-02
   NR start threshold (gradient norm)   ....   1.000e-04
   Initial trust radius                 ....   0.400
   Minimum AH scaling param. (alpha)    ....   1.000
   Maximum AH scaling param. (alpha)    .... 1000.000
   Quad. conv. algorithm                .... NR
   White noise on init. David. guess    .... on
   Maximum white noise                  ....   0.010
   Pseudo random numbers                .... off
   Inactive MOs                         .... canonical
   Orbital update algorithm             .... Taylor
   Preconditioner                       .... Diag
   Full preconditioner red. dimension   ....   250
   COSX micro iterations for RIJONX calc.... off
 SOSCF                  CNVSOSCF        .... on
   Start iteration      SOSCFMaxIt      ....   150
   Startup grad/error   SOSCFStart      ....  0.003300
   Hessian update       SOSCFHessUp     .... L-BFGS
 Level Shifting         CNVShift        .... on
   Level shift para.    LevelShift      ....    0.2500
   Turn off err/grad.   ShiftErr        ....    0.0010
 Zerner damping         CNVZerner       .... off
 Static damping         CNVDamp         .... on
   Fraction old density DampFac         ....    0.7000
   Max. Damping (<1)    DampMax         ....    0.9800
   Min. Damping (>=0)   DampMin         ....    0.0000
   Turn off err/grad.   DampErr         ....    0.1000

SCF Procedure:
 Maximum # iterations   MaxIter         ....   125
 SCF integral mode      SCFMode         .... Direct
   Integral package                     .... SHARK and LIBINT hybrid scheme
 Reset frequency        DirectResetFreq ....    20
 Integral Threshold     Thresh          ....  1.000e-10 Eh
 Primitive CutOff       TCut            ....  1.000e-11 Eh

Convergence Tolerance:
 Convergence Check Mode ConvCheckMode   .... Total+1el-Energy
 Convergence forced     ConvForced      .... 0
 Energy Change          TolE            ....  1.000e-06 Eh
 1-El. energy change                    ....  1.000e-03 Eh
 Orbital Gradient       TolG            ....  3.330e-04
 Orbital Rotation angle TolX            ....  3.330e-04
 DIIS Error             TolErr          ....  1.000e-06

---------------------
INITIAL GUESS: MOREAD
---------------------
Guess MOs are being read from file: sp_gas.ges
Input Geometry matches current geometry (good)
Atom 0: N(Shells)= 9 and 6 - projection required
Input basis set needs projection
NBasis(read)= 74
NBasis(calc)= 126
Basis set overlap was calculated
Using GuessMode=FMatrix for the initial guess
C*T matrix was formed
Effective Fockian was calculated
Effective Fockian was diagonalized
Initial density was built
                      ------------------
                      INITIAL GUESS DONE (   0.0 sec)
                      ------------------
             **** ENERGY FILE WAS UPDATED (sp_gas.en.tmp) ****
Finished Guess after   0.2 sec
Maximum memory used throughout the entire GUESS-calculation: 8.9 MB

-------------------------------------------------------------------------------------------
                                      ORCA LEAN-SCF
                              memory conserving SCF solver
-------------------------------------------------------------------------------------------

----------------------------------------D-I-I-S--------------------------------------------
Iteration    Energy (Eh)           Delta-E    RMSDP     MaxDP     DIISErr   Damp  Time(sec)
-------------------------------------------------------------------------------------------
               ***  Starting incremental Fock matrix formation  ***
    1    -174.3243852836344843     0.00e+00  3.72e-03  8.49e-02  4.45e-01  0.700   1.1
    2    -174.3558739214386435    -3.15e-02  3.10e-03  7.14e-02  3.12e-01  0.700   1.0
    3    -174.3782750413875249    -2.24e-02  2.30e-03  5.25e-02  2.19e-01  0.700   1.0
                               ***Turning on AO-DIIS***
    4    -174.3940277667500425    -1.58e-02  1.68e-03  3.80e-02  1.53e-01  0.700   1.0
    5    -174.4050901565384777    -1.11e-02  1.20e-03  2.70e-02  1.07e-01  0.700   1.0
    6    -174.4128559227005724    -7.77e-03  8.54e-04  1.90e-02  7.50e-02  0.700   1.0
    7    -174.4183040405960980    -5.45e-03  2.01e-03  4.45e-02  5.25e-02  0.000   1.0
                              *** Initializing SOSCF ***
---------------------------------------S-O-S-C-F--------------------------------------
Iteration    Energy (Eh)           Delta-E    RMSDP     MaxDP     MaxGrad    Time(sec)
--------------------------------------------------------------------------------------
    8    -174.4310547601721453    -1.28e-02  1.77e-05  2.47e-04  2.12e-04     1.0
               *** Restarting incremental Fock matrix formation ***
    9    -174.4310548959768141    -1.36e-07  1.03e-05  1.67e-04  4.31e-05     1.0
                  *** Gradient check signals convergence ***

               *****************************************************
               *                     SUCCESS                       *
               *           SCF CONVERGED AFTER   9 CYCLES          *
               *****************************************************

             **** ENERGY FILE WAS UPDATED (sp_gas.en.tmp) ****

----------------
TOTAL SCF ENERGY
----------------

Total Energy       :       -174.43105489597681 Eh           -4746.51031 eV

Components:
Nuclear Repulsion  :        131.75932999027614 Eh            3585.35364 eV
Electronic Energy  :       -306.19038488625290 Eh           -8331.86396 eV
One Electron Energy:       -494.83503928635395 Eh          -13465.14597 eV
Two Electron Energy:        188.64465440010102 Eh            5133.28202 eV

Virial components:
Potential Energy   :       -348.05188035457326 Eh           -9470.97316 eV
Kinetic Energy     :        173.62082545859644 Eh            4724.46285 eV
Virial Ratio       :          2.00466666043800

DFT components:
N(Alpha)           :       16.999943311483 electrons
N(Beta)            :       16.999943311483 electrons
N(Total)           :       33.999886622967 electrons
E(X)               :      -25.458298085763 Eh       
E(C)               :       -1.047282998537 Eh       
E(XC)              :      -26.505581084300 Eh       

---------------
SCF CONVERGENCE
---------------

  Last Energy change         ...    1.3580e-07  Tolerance :   1.0000e-06
  Last MAX-Density change    ...    1.6710e-04  Tolerance :   1.0000e-05
  Last RMS-Density change    ...    1.0333e-05  Tolerance :   1.0000e-06
  Last DIIS Error            ...    2.1220e-04  Tolerance :   1.0000e-06
  Last Orbital Gradient      ...    4.3082e-05  Tolerance :   3.3300e-04
  Last Orbital Rotation      ...    5.5837e-05  Tolerance :   3.3300e-04


----------------
ORBITAL ENERGIES
----------------

  NO   OCC          E(Eh)            E(eV) 
   0   2.0000     -14.133189      -384.5836 
   1   2.0000     -10.047057      -273.3943 
   2   2.0000     -10.021551      -272.7003 
   3   2.0000     -10.016111      -272.5522 
   4   2.0000      -0.844602       -22.9828 
   5   2.0000      -0.732944       -19.9444 
   6   2.0000      -0.623481       -16.9658 
   7   2.0000      -0.549443       -14.9511 
   8   2.0000      -0.452163       -12.3040 
   9   2.0000      -0.431026       -11.7288 
  10   2.0000      -0.410374       -11.1669 
  11   2.0000      -0.374548       -10.1920 
  12   2.0000      -0.347507        -9.4561 
  13   2.0000      -0.320819        -8.7299 
  14   2.0000      -0.302162        -8.2222 
  15   2.0000      -0.298234        -8.1154 
  16   2.0000      -0.203685        -5.5425 
  17   0.0000       0.076552         2.0831 
  18   0.0000       0.102247         2.7823 
  19   0.0000       0.129502         3.5239 
  20   0.0000       0.143682         3.9098 
  21   0.0000       0.148543         4.0421 
  22   0.0000       0.163129         4.4390 
  23   0.0000       0.173575         4.7232 
  24   0.0000       0.190701         5.1892 
  25   0.0000       0.202335         5.5058 
  26   0.0000       0.215952         5.8764 
  27   0.0000       0.218321         5.9408 
*Only the first 10 virtual orbitals were printed.

                    ********************************
                    * MULLIKEN POPULATION ANALYSIS *
                    ********************************

-----------------------
MULLIKEN ATOMIC CHARGES
-----------------------
   0 C :   -0.471733
   1 C :   -0.204482
   2 C :   -0.205474
   3 N :   -0.546609
   4 H :    0.139375
   5 H :    0.145789
   6 H :    0.142078
   7 H :    0.122837
   8 H :    0.151540
   9 H :    0.117711
  10 H :    0.134442
  11 H :    0.237716
  12 H :    0.236810
Sum of atomic charges:    0.0000000

--------------------------------
MULLIKEN REDUCED ORBITAL CHARGES
--------------------------------
  0 C s       :     3.319184  s :     3.319184
      pz      :     1.078429  p :     3.125527
      px      :     0.982408
      py      :     1.064690
      dz2     :     0.004859  d :     0.027022
      dxz     :     0.002686
      dyz     :     0.007327
      dx2y2   :     0.004331
      dxy     :     0.007818

  1 C s       :     3.165138  s :     3.165138
      pz      :     1.100998  p :     3.002850
      px      :     0.917935
      py      :     0.983916
      dz2     :     0.005622  d :     0.036495
      dxz     :     0.004041
      dyz     :     0.010178
      dx2y2   :     0.006764
      dxy     :     0.009890

  2 C s       :     3.303947  s :     3.303947
      pz      :     1.072450  p :     2.851687
      px      :     0.820831
      py      :     0.958407
      dz2     :     0.006713  d :     0.049840
      dxz     :     0.007565
      dyz     :     0.012378
      dx2y2   :     0.010047
      dxy     :     0.013137

  3 N s       :     3.551687  s :     3.551687
      pz      :     1.540871  p :     3.960170
      px      :     1.097358
      py      :     1.321941
      dz2     :     0.007692  d :     0.034753
      dxz     :     0.004206
      dyz     :     0.007162
      dx2y2   :     0.002971
      dxy     :     0.012723

  4 H s       :     0.842329  s :     0.842329
      pz      :     0.008142  p :     0.018296
      px      :     0.003807
      py      :     0.006347

  5 H s       :     0.835833  s :     0.835833
      pz      :     0.003751  p :     0.018377
      px      :     0.007433
      py      :     0.007193

  6 H s       :     0.839637  s :     0.839637
      pz      :     0.008634  p :     0.018284
      px      :     0.003695
      py      :     0.005956

  7 H s       :     0.859205  s :     0.859205
      pz      :     0.008435  p :     0.017958
      px      :     0.003507
      py      :     0.006016

  8 H s       :     0.830657  s :     0.830657
      pz      :     0.008127  p :     0.017803
      px      :     0.003501
      py      :     0.006174

  9 H s       :     0.865117  s :     0.865117
      pz      :     0.008056  p :     0.017173
      px      :     0.003008
      py      :     0.006109

 10 H s       :     0.848078  s :     0.848078
      pz      :     0.008548  p :     0.017480
      px      :     0.002930
      py      :     0.006001

 11 H s       :     0.730083  s :     0.730083
      pz      :     0.008796  p :     0.032201
      px      :     0.011511
      py      :     0.011895

 12 H s       :     0.731275  s :     0.731275
      pz      :     0.015154  p :     0.031916
      px      :     0.005079
      py      :     0.011682


------------------------
MULLIKEN OVERLAP CHARGES
------------------------
B(  0-C ,  1-C ) :   0.4614 B(  0-C ,  2-C ) :  -0.1576 B(  0-C ,  4-H ) :   0.8417 
B(  0-C ,  5-H ) :   0.8016 B(  0-C ,  6-H ) :   0.8582 B(  0-C ,  8-H ) :  -0.0540 
B(  1-C ,  2-C ) :   0.5283 B(  1-C ,  3-N ) :  -0.1571 B(  1-C ,  4-H ) :  -0.0826 
B(  1-C ,  5-H ) :  -0.0715 B(  1-C ,  6-H ) :  -0.1041 B(  1-C ,  7-H ) :   0.7971 
B(  1-C ,  8-H ) :   0.8333 B(  1-C ,  9-H ) :  -0.1328 B(  1-C , 10-H ) :  -0.0683 
B(  2-C ,  3-N ) :   0.3929 B(  2-C ,  8-H ) :  -0.0774 B(  2-C ,  9-H ) :   0.8601 
B(  2-C , 10-H ) :   0.8897 B(  2-C , 12-H ) :  -0.0544 B(  3-N ,  9-H ) :  -0.0957 
B(  3-N , 10-H ) :  -0.1445 B(  3-N , 11-H ) :   0.6598 B(  3-N , 12-H ) :   0.6751 
B(  4-H ,  6-H ) :  -0.0528 B(  9-H , 10-H ) :  -0.0841 


                     *******************************
                     * LOEWDIN POPULATION ANALYSIS *
                     *******************************

----------------------
LOEWDIN ATOMIC CHARGES
----------------------
   0 C :   -0.425145
   1 C :   -0.292652
   2 C :   -0.076522
   3 N :   -0.748280
   4 H :    0.149377
   5 H :    0.151191
   6 H :    0.150358
   7 H :    0.148588
   8 H :    0.159144
   9 H :    0.145393
  10 H :    0.168787
  11 H :    0.235294
  12 H :    0.234468

-------------------------------
LOEWDIN REDUCED ORBITAL CHARGES
-------------------------------
  0 C s       :     2.972571  s :     2.972571
      pz      :     1.156511  p :     3.389038
      px      :     1.088921
      py      :     1.143605
      dz2     :     0.012298  d :     0.063536
      dxz     :     0.004928
      dyz     :     0.018390
      dx2y2   :     0.009372
      dxy     :     0.018548

  1 C s       :     2.940477  s :     2.940477
      pz      :     1.143776  p :     3.273557
      px      :     1.033475
      py      :     1.096305
      dz2     :     0.013271  d :     0.078619
      dxz     :     0.006591
      dyz     :     0.023734
      dx2y2   :     0.013705
      dxy     :     0.021317

  2 C s       :     2.874639  s :     2.874639
      pz      :     1.093364  p :     3.090472
      px      :     0.952747
      py      :     1.044361
      dz2     :     0.015469  d :     0.111411
      dxz     :     0.015159
      dyz     :     0.029578
      dx2y2   :     0.020533
      dxy     :     0.030672

  3 N s       :     3.250192  s :     3.250192
      pz      :     1.578427  p :     4.184222
      px      :     1.216866
      py      :     1.388929
      dz2     :     0.040008  d :     0.313866
      dxz     :     0.054677
      dyz     :     0.049942
      dx2y2   :     0.066384
      dxy     :     0.102855

  4 H s       :     0.807264  s :     0.807264
      pz      :     0.019937  p :     0.043358
      px      :     0.008468
      py      :     0.014954

  5 H s       :     0.805287  s :     0.805287
      pz      :     0.008126  p :     0.043522
      px      :     0.017794
      py      :     0.017602

  6 H s       :     0.806348  s :     0.806348
      pz      :     0.021210  p :     0.043294
      px      :     0.008180
      py      :     0.013904

  7 H s       :     0.808777  s :     0.808777
      pz      :     0.020432  p :     0.042635
      px      :     0.008018
      py      :     0.014186

  8 H s       :     0.797632  s :     0.797632
      pz      :     0.020167  p :     0.043224
      px      :     0.007978
      py      :     0.015080

  9 H s       :     0.814172  s :     0.814172
      pz      :     0.019184  p :     0.040435
      px      :     0.007248
      py      :     0.014002

 10 H s       :     0.791507  s :     0.791507
      pz      :     0.020258  p :     0.039707
      px      :     0.006510
      py      :     0.012939

 11 H s       :     0.679258  s :     0.679258
      pz      :     0.022485  p :     0.085448
      px      :     0.031108
      py      :     0.031855

 12 H s       :     0.680407  s :     0.680407
      pz      :     0.042557  p :     0.085125
      px      :     0.013059
      py      :     0.029509


---------------------------------
LOEWDIN BOND ORDERS (THRESH 0.050000)
---------------------------------
B(  0-C ,  1-C ) :   1.1424 B(  0-C ,  2-C ) :   0.0775 B(  0-C ,  4-H ) :   0.9294 
B(  0-C ,  5-H ) :   0.9297 B(  0-C ,  6-H ) :   0.9295 B(  1-C ,  2-C ) :   1.0382 
B(  1-C ,  3-N ) :   0.1741 B(  1-C ,  7-H ) :   0.8937 B(  1-C ,  8-H ) :   0.8913 
B(  2-C ,  3-N ) :   1.4114 B(  2-C ,  9-H ) :   0.8400 B(  2-C , 10-H ) :   0.8340 
B(  3-N ,  9-H ) :   0.1057 B(  3-N , 10-H ) :   0.0976 B(  3-N , 11-H ) :   0.9403 
B(  3-N , 12-H ) :   0.9417 

------------------------------------------
LOEWDIN REDUCED ORBITAL POPULATIONS PER MO
-------------------------------------------
THRESHOLD FOR PRINTING IS 0.1%%
                      0         1         2         3         4         5   
                 -14.13319 -10.04706 -10.02155 -10.01611  -0.84460  -0.73294
                   2.00000   2.00000   2.00000   2.00000   2.00000   2.00000
                  --------  --------  --------  --------  --------  --------
 0 C  s               0.0       0.0       0.0      99.7       0.6      23.0
 0 C  px              0.0       0.0       0.1       0.0       0.5       2.4
 0 C  py              0.0       0.0       0.0       0.0       0.0       0.4
 1 C  s               0.0       0.0      99.7       0.0       3.5      26.4
 1 C  px              0.0       0.0       0.0       0.1       1.5       1.7
 1 C  py              0.0       0.0       0.0       0.0       0.6       0.9
 2 C  s               0.0      99.4       0.0       0.0      16.1       3.7
 2 C  px              0.0       0.0       0.0       0.0       4.3       8.1
 2 C  py              0.0       0.0       0.0       0.0       1.7       0.5
 2 C  dz2             0.0       0.0       0.0       0.0       0.1       0.0
 2 C  dx2y2           0.0       0.0       0.0       0.0       0.1       0.0
 2 C  dxy             0.0       0.0       0.0       0.0       0.1       0.2
 3 N  s              99.8       0.0       0.0       0.0      44.4       5.2
 3 N  pz              0.0       0.0       0.0       0.0       0.9       0.2
 3 N  px              0.0       0.1       0.0       0.0       0.9       1.6
 3 N  py              0.0       0.0       0.0       0.0       0.9       0.0
 3 N  dz2             0.0       0.1       0.0       0.0       0.2       0.2
 3 N  dx2y2           0.0       0.1       0.0       0.0       0.2       0.3
 3 N  dxy             0.0       0.1       0.0       0.0       0.1       0.0
 4 H  s               0.0       0.0       0.0       0.0       0.1       3.6
 4 H  pz              0.0       0.0       0.0       0.0       0.0       0.2
 4 H  py              0.0       0.0       0.0       0.0       0.0       0.1
 5 H  s               0.0       0.0       0.0       0.0       0.1       3.5
 5 H  px              0.0       0.0       0.0       0.0       0.0       0.2
 5 H  py              0.0       0.0       0.0       0.0       0.0       0.1
 6 H  s               0.0       0.0       0.0       0.0       0.1       3.6
 6 H  pz              0.0       0.0       0.0       0.0       0.0       0.2
 7 H  s               0.0       0.0       0.0       0.0       0.3       4.0
 7 H  pz              0.0       0.0       0.0       0.0       0.0       0.2
 7 H  py              0.0       0.0       0.0       0.0       0.0       0.1
 8 H  s               0.0       0.0       0.0       0.0       0.3       3.8
 8 H  pz              0.0       0.0       0.0       0.0       0.0       0.2
 8 H  py              0.0       0.0       0.0       0.0       0.0       0.1
 9 H  s               0.0       0.0       0.0       0.0       1.6       0.6
10 H  s               0.0       0.0       0.0       0.0       1.6       0.6
11 H  s               0.0       0.0       0.0       0.0       8.2       1.6
11 H  px              0.0       0.0       0.0       0.0       0.7       0.1
11 H  py              0.0       0.0       0.0       0.0       0.5       0.1
12 H  s               0.0       0.0       0.0       0.0       8.3       1.3
12 H  pz              0.0       0.0       0.0       0.0       0.6       0.1
12 H  py              0.0       0.0       0.0       0.0       0.5       0.1

                      6         7         8         9        10        11   
                  -0.62348  -0.54944  -0.45216  -0.43103  -0.41037  -0.37455
                   2.00000   2.00000   2.00000   2.00000   2.00000   2.00000
                  --------  --------  --------  --------  --------  --------
 0 C  s              19.6       4.3       0.1       0.2       0.1       0.0
 0 C  pz              0.0       0.0       2.7       7.5       6.9      11.7
 0 C  px              2.5       3.7       0.7       3.3       8.4       2.2
 0 C  py              0.0       3.7       1.8       0.1       6.8      19.6
 0 C  dz2             0.0       0.1       0.0       0.0       0.0       0.1
 0 C  dxy             0.0       0.1       0.0       0.0       0.0       0.1
 1 C  s               1.6      13.1       0.8       0.5       0.1       0.1
 1 C  pz              0.0       0.1       8.3      13.0       7.7       2.3
 1 C  px             11.4       0.2       1.4       2.3       0.1       2.0
 1 C  py              0.2       9.8       1.6       0.4      10.0       3.4
 1 C  dz2             0.0       0.1       0.0       0.0       0.0       0.0
 1 C  dxy             0.3       0.0       0.0       0.0       0.0       0.0
 2 C  s              14.4       7.6       0.2       0.2       0.1       0.5
 2 C  pz              0.0       0.2      14.1       8.2       0.6       5.6
 2 C  px              1.8       0.5       0.7       2.6      13.7       0.1
 2 C  py              0.1      10.6       1.4       8.9       0.9       9.3
 2 C  dz2             0.0       0.1       0.0       0.1       0.0       0.2
 2 C  dxy             0.1       0.1       0.0       0.1       0.1       0.0
 3 N  s               4.4       0.6       0.1       0.3       0.1       0.6
 3 N  pz              0.6       1.0      13.2       0.2       2.8       7.0
 3 N  px              8.2       2.1       5.1      18.8      12.0       0.3
 3 N  py              0.5       4.3      17.1       6.6       6.3       0.4
 3 N  dz2             0.4       0.1       0.4       0.1       0.1       0.1
 3 N  dxz             0.0       0.0       0.4       0.3       0.2       0.1
 3 N  dyz             0.0       0.0       0.0       0.2       0.1       0.0
 3 N  dx2y2           0.6       0.0       0.0       0.1       0.0       0.2
 3 N  dxy             0.8       1.3       0.3       0.1       0.1       0.5
 4 H  s               5.1       2.8       2.0       0.5       0.6      11.9
 4 H  pz              0.3       0.1       0.0       0.0       0.0       0.2
 4 H  py              0.1       0.0       0.0       0.0       0.1       0.0
 5 H  s               6.1       1.5       0.0       0.8       6.3       8.0
 5 H  px              0.2       0.0       0.0       0.0       0.1       0.2
 5 H  py              0.3       0.1       0.0       0.0       0.1       0.0
 6 H  s               5.1       2.9       0.0       3.2       3.2       0.1
 6 H  pz              0.3       0.2       0.0       0.0       0.0       0.0
 6 H  px              0.0       0.0       0.0       0.0       0.1       0.0
 6 H  py              0.1       0.0       0.0       0.1       0.0       0.2
 7 H  s               0.4       7.7       0.2       3.3       4.9       0.1
 7 H  pz              0.0       0.4       0.0       0.0       0.1       0.0
 7 H  py              0.0       0.1       0.0       0.1       0.0       0.0
 8 H  s               0.4       6.6       4.2       2.2       0.1       1.4
 8 H  pz              0.0       0.4       0.1       0.0       0.0       0.0
 9 H  s               3.7       4.3       2.5       6.2       0.0       8.3
 9 H  pz              0.2       0.3       0.0       0.1       0.0       0.2
 9 H  py              0.1       0.0       0.1       0.0       0.0       0.0
10 H  s               4.1       5.8       2.9       0.1       0.8       0.1
10 H  pz              0.2       0.3       0.0       0.0       0.0       0.1
10 H  px              0.0       0.0       0.0       0.0       0.1       0.0
10 H  py              0.1       0.1       0.1       0.1       0.0       0.1
11 H  s               2.6       0.0       8.2       7.9       0.3       0.2
11 H  pz              0.0       0.0       0.1       0.0       0.0       0.1
11 H  px              0.1       0.0       0.3       0.1       0.1       0.0
11 H  py              0.3       0.1       0.1       0.2       0.1       0.0
12 H  s               2.3       2.1       7.8       0.4       4.6       1.7
12 H  pz              0.2       0.1       0.2       0.0       0.1       0.0
12 H  px              0.0       0.0       0.1       0.2       0.1       0.0
12 H  py              0.1       0.0       0.0       0.0       0.0       0.0

                     12        13        14        15        16        17   
                  -0.34751  -0.32082  -0.30216  -0.29823  -0.20368   0.07655
                   2.00000   2.00000   2.00000   2.00000   2.00000   0.00000
                  --------  --------  --------  --------  --------  --------
 0 C  s               0.0       0.9       0.0       0.0       0.0       1.3
 0 C  pz             16.7       0.0       5.8       6.4       0.1       0.0
 0 C  px              0.1      25.5       3.2       1.8       0.2       1.7
 0 C  py              8.9       7.4       6.3       2.2       0.0       0.9
 0 C  dz2             0.1       0.1       0.1       0.1       0.0       0.1
 0 C  dxz             0.0       0.0       0.1       0.1       0.0       0.0
 0 C  dyz             0.2       0.0       0.2       0.3       0.0       0.0
 0 C  dx2y2           0.0       0.2       0.1       0.0       0.0       0.0
 0 C  dxy             0.0       0.1       0.3       0.1       0.0       0.0
 1 C  s               0.1       0.4       0.2       0.2       0.3       1.9
 1 C  pz              0.1       0.0       9.8      15.9       0.0       0.3
 1 C  px              1.3      21.3       4.2       3.2       0.8       6.0
 1 C  py              0.2      10.4      11.3       5.4       0.5       0.9
 1 C  dz2             0.0       0.2       0.1       0.1       0.0       0.0
 1 C  dxz             0.2       0.0       0.0       0.0       0.0       0.0
 1 C  dyz             0.0       0.0       0.3       0.7       0.1       0.0
 1 C  dx2y2           0.0       0.4       0.0       0.0       0.0       0.5
 1 C  dxy             0.0       0.1       0.4       0.1       0.0       0.3
 2 C  s               0.1       0.4       0.4       0.3       0.3      10.2
 2 C  pz             15.9       0.3       0.7       6.2       2.7       0.8
 2 C  px              1.8       3.5       7.7       2.6       0.1      15.6
 2 C  py              2.8       1.0       7.6       6.0       1.3       2.2
 2 C  dz2             0.1       0.1       0.0       0.1       0.0       0.5
 2 C  dxz             0.0       0.0       0.1       0.0       0.5       0.0
 2 C  dyz             0.2       0.0       0.1       0.4       0.7       0.0
 2 C  dx2y2           0.1       0.4       0.0       0.0       0.1       0.5
 2 C  dxy             0.0       0.1       0.2       0.2       0.2       0.4
 3 N  s               0.2       0.6       0.2       0.0       6.1      14.3
 3 N  pz              0.2       0.0       3.1       0.0      49.7       1.8
 3 N  px              0.8       8.2       2.0       0.6       0.2       2.3
 3 N  py             10.1       0.4       0.1       1.5      21.1       0.3
 3 N  dz2             0.1       0.1       0.1       0.1       0.0       0.7
 3 N  dxz             1.0       0.0       0.0       0.1       0.5       0.0
 3 N  dyz             0.9       0.0       0.1       0.7       0.3       0.8
 3 N  dx2y2           0.1       0.1       0.9       0.7       0.1       1.1
 3 N  dxy             0.5       0.2       0.3       0.5       0.2       2.2
 4 H  s               1.0       2.9       8.4       1.6       0.0       0.1
 4 H  px              0.0       0.2       0.0       0.0       0.0       0.0
 4 H  py              0.2       0.0       0.0       0.1       0.0       0.0
 5 H  s               3.3       1.0       6.8       2.9       0.0       0.2
 5 H  pz              0.1       0.0       0.1       0.1       0.0       0.0
 5 H  px              0.1       0.1       0.0       0.0       0.0       0.1
 5 H  py              0.0       0.2       0.0       0.0       0.0       0.0
 6 H  s              13.2       1.4       0.5       7.2       0.0       0.0
 6 H  pz              0.2       0.0       0.0       0.0       0.0       0.0
 6 H  px              0.0       0.2       0.0       0.0       0.0       0.1
 7 H  s               0.3       3.0       0.7      15.4       0.1       0.7
 7 H  pz              0.0       0.1       0.0       0.1       0.0       0.3
 7 H  px              0.0       0.2       0.0       0.0       0.0       0.4
 7 H  py              0.0       0.0       0.2       0.0       0.0       0.0
 8 H  s               0.1       3.8      12.7       3.9       0.3       0.3
 8 H  pz              0.0       0.1       0.1       0.0       0.0       0.1
 8 H  px              0.0       0.2       0.1       0.0       0.0       0.2
 8 H  py              0.0       0.0       0.0       0.2       0.0       0.0
 9 H  s               1.7       0.4       2.4       1.1       7.9       2.0
 9 H  pz              0.0       0.0       0.0       0.0       0.0       1.0
 9 H  px              0.0       0.0       0.1       0.0       0.0       0.3
 9 H  py              0.1       0.0       0.0       0.1       0.0       0.1
10 H  s              11.8       1.7       0.0       8.4       1.5       1.5
10 H  pz              0.1       0.0       0.0       0.0       0.0       0.7
10 H  px              0.0       0.0       0.1       0.0       0.0       0.3
11 H  s               0.8       1.2       1.0       1.1       0.8       8.7
11 H  pz              0.0       0.0       0.0       0.0       0.8       0.0
11 H  px              0.1       0.0       0.0       0.0       0.1       1.5
11 H  py              0.0       0.1       0.0       0.0       0.2       1.7
12 H  s               3.4       0.2       0.3       0.8       0.9       8.3
12 H  pz              0.2       0.0       0.0       0.0       0.5       1.9
12 H  px              0.0       0.1       0.0       0.0       0.0       0.0
12 H  py              0.0       0.0       0.0       0.0       0.6       1.4

                     18        19        20        21        22        23   
                   0.10225   0.12950   0.14368   0.14854   0.16313   0.17358
                   0.00000   0.00000   0.00000   0.00000   0.00000   0.00000
                  --------  --------  --------  --------  --------  --------
 0 C  s              25.8       0.4       9.4       0.2       4.1       0.8
 0 C  pz              0.0       1.4       0.0       9.6       2.8       2.2
 0 C  px              1.6       0.5      23.5       2.4      19.2       0.7
 0 C  py              0.3       4.8       2.7       4.8       3.8       1.6
 0 C  dz2             0.1       0.1       0.1       0.7       0.8       0.5
 0 C  dxz             0.0       0.0       0.0       0.2       0.1       0.1
 0 C  dyz             0.0       0.1       0.0       0.3       0.0       0.0
 0 C  dx2y2           0.1       0.0       0.2       0.1       0.4       1.1
 0 C  dxy             0.6       0.1       2.1       0.0       0.0       0.4
 1 C  s              13.9       2.6       6.4       4.5       1.9       1.2
 1 C  pz              0.1       2.5       0.1       8.0       1.0       0.9
 1 C  px              2.5       0.6       4.4       0.2       1.0       7.7
 1 C  py              1.9       2.3      16.5       0.1      13.1      11.4
 1 C  dz2             0.3       0.2       0.7       0.0       0.1       1.2
 1 C  dyz             0.0       0.2       0.0       1.4       0.3       0.3
 1 C  dx2y2           0.3       0.1       0.1       0.0       0.4       0.3
 1 C  dxy             0.1       0.0       0.5       0.0       0.0       1.8
 2 C  s               5.2       4.9       0.4       0.6       3.5      11.2
 2 C  pz              0.2       5.5       0.0      19.2       2.4       0.6
 2 C  px              8.9       0.0       4.6       0.5       1.0       0.6
 2 C  py              1.4      29.1       2.0       9.3       3.5       2.4
 2 C  dz2             0.1       0.3       0.3       0.8       0.8       0.2
 2 C  dyz             0.0       0.2       0.0       1.0       0.1       0.1
 2 C  dx2y2           0.4       0.3       0.0       0.0       0.2       0.4
 2 C  dxy             0.8       0.1       0.4       0.0       0.2       0.2
 3 N  s               0.6       0.4       0.4       0.4       1.7       2.3
 3 N  pz              0.0       2.3       0.1       1.1       0.6       0.4
 3 N  px              0.9       2.0       1.0       1.3       1.7       2.4
 3 N  py              1.3       3.5       1.7       0.2       0.2       4.0
 3 N  dz2             2.6       2.7       0.9       0.2       1.4       5.1
 3 N  dxz             0.0       0.2       0.1       0.7       0.2       0.1
 3 N  dyz             0.0       1.4       0.0       0.2       0.8       0.7
 3 N  dx2y2           0.0       0.2       0.4       0.9       2.4       4.4
 3 N  dxy             0.6       6.2       2.7       0.6       0.0       0.2
 4 H  s               3.2       0.3       1.9       0.8       0.7       3.0
 4 H  pz              1.4       0.0       1.0       0.0       0.3       0.7
 4 H  px              0.1       0.0       0.9       0.1       0.0       0.1
 4 H  py              0.5       0.0       0.1       0.9       0.0       0.2
 5 H  s               4.1       0.9       3.8       1.7       4.0       2.3
 5 H  px              0.4       0.0       0.1       0.4       1.6       0.9
 5 H  py              1.9       0.1       0.2       0.0       0.4       0.1
 6 H  s               2.8       0.6       2.4       3.4       0.4       1.5
 6 H  pz              1.3       0.1       1.1       0.7       0.0       0.2
 6 H  px              0.2       0.0       0.8       0.0       0.2       0.0
 6 H  py              0.4       0.4       0.1       0.1       0.3       0.0
 7 H  s               2.8       2.7       0.2       1.6       0.5       0.2
 7 H  pz              1.4       1.2       0.0       0.0       0.1       0.1
 7 H  px              0.0       0.0       0.5       0.0       0.0       0.5
 7 H  py              0.3       0.3       1.2       0.4       0.0       0.7
 8 H  s               1.8       0.1       0.1       5.3       1.1       4.3
 8 H  pz              1.1       0.2       0.0       1.6       0.0       0.6
 8 H  px              0.0       0.0       0.4       0.0       0.0       0.4
 8 H  py              0.2       0.0       1.0       0.9       0.5       0.0
 9 H  s               1.7       0.3       0.5       2.7       6.3       0.2
 9 H  pz              0.6       0.0       0.4       0.2       2.5       0.1
 9 H  px              0.5       0.0       0.2       0.1       0.1       0.0
 9 H  py              0.0       0.5       0.0       2.1       0.3       0.1
10 H  s               1.3       3.4       0.3       4.9       1.7       1.2
10 H  pz              0.5       0.6       0.3       1.2       1.0       0.5
10 H  px              0.5       0.1       0.2       0.0       0.1       0.0
10 H  py              0.0       1.8       0.0       0.1       0.0       0.7
11 H  s               0.1       2.9       0.3       0.0       2.6       9.9
11 H  px              0.1       0.3       0.0       0.1       0.2       3.0
11 H  py              0.0       0.4       0.0       0.1       0.7       0.5
12 H  s               0.1       5.3       0.1       0.9       3.3       0.4
12 H  pz              0.0       1.2       0.0       0.1       0.4       0.1
12 H  px              0.1       0.3       0.1       0.0       0.0       0.0
12 H  py              0.0       0.4       0.0       0.0       0.7       0.0

                     24        25        26        27        28        29   
                   0.19070   0.20233   0.21595   0.21832   0.22467   0.24540
                   0.00000   0.00000   0.00000   0.00000   0.00000   0.00000
                  --------  --------  --------  --------  --------  --------
 0 C  s               0.0       0.1       2.5       1.2       0.6       0.1
 0 C  pz             10.4      18.5       1.9       5.8       0.4      53.7
 0 C  px              1.7       0.3       6.0       3.1       3.0       0.4
 0 C  py             16.2       5.4      10.4       0.7      24.2       2.0
 0 C  dz2             0.3       0.2       1.6       0.1       1.0       0.0
 0 C  dxz             0.1       0.0       0.2       0.5       0.0       0.0
 0 C  dyz             0.7       5.4       0.1       0.0       0.1       0.1
 0 C  dx2y2           0.4       0.0       0.4       0.1       0.0       0.0
 0 C  dxy             0.0       0.0       0.6       0.2       0.6       0.0
 1 C  s               2.6       0.4       1.2       1.1       1.1       0.1
 1 C  pz              1.3       0.3       4.0      13.6       1.1       6.1
 1 C  px              0.6       0.5       9.5       3.6       5.2       0.9
 1 C  py              6.8       1.4       2.5       0.9       1.1       0.6
 1 C  dz2             1.0       0.2       0.0       0.1       0.0       0.0
 1 C  dxz             0.2       1.3       0.2       0.2       0.0       0.0
 1 C  dyz             0.4       0.0       0.4       0.6       0.0       1.4
 1 C  dx2y2           0.1       0.0       0.3       0.3       0.0       0.0
 1 C  dxy             0.3       0.1       0.4       0.3       0.0       0.1
 2 C  s               0.6       0.5       1.7       0.1       2.9       0.0
 2 C  pz              1.8       1.6       7.1      20.7       0.1       1.0
 2 C  px              2.7       0.3       2.8       2.2       2.3       0.2
 2 C  py              1.9       0.8       3.1       0.1       3.3       0.3
 2 C  dz2             0.1       0.0       0.4       0.0       0.5       0.0
 2 C  dxz             0.2       0.0       0.3       0.3       0.0       0.2
 2 C  dyz             0.4       0.8       0.1       0.1       0.0       1.0
 2 C  dx2y2           0.0       0.0       0.2       0.1       0.1       0.0
 2 C  dxy             0.1       0.0       0.7       0.4       0.1       0.0
 3 N  s               0.5       0.3       0.4       0.4       0.6       0.3
 3 N  pz              2.7       0.2       0.5       0.2       0.0       0.7
 3 N  px              0.2       0.3       1.0       2.1       2.7       0.2
 3 N  py              4.1       1.4       1.0       1.3       1.3       0.7
 3 N  dz2             3.4       1.8       1.9       0.1       1.7       0.0
 3 N  dxz             0.3       1.9       1.5       3.4       0.1       0.0
 3 N  dyz             4.2       0.1       0.2       1.3       0.9       0.1
 3 N  dx2y2           0.8       0.3       0.2       0.0       3.7       0.0
 3 N  dxy             0.5       0.3       0.7       0.9       4.2       0.1
 4 H  s               2.2      21.8       1.5       0.6       1.4       3.2
 4 H  pz              0.0       1.6       0.9       0.6       1.1       1.0
 4 H  px              0.0       0.0       0.6       0.0       0.1       0.1
 4 H  py              1.3       1.7       0.1       0.0       0.1       0.5
 5 H  s               0.2       0.4       0.8       1.1      13.1       0.0
 5 H  pz              0.6       2.6       0.0       0.2       0.0       0.1
 5 H  px              0.4       0.0       0.0       0.0       2.1       0.0
 5 H  py              0.0       0.0       1.0       0.4       2.7       0.0
 6 H  s               1.9      12.8       6.8       1.3       4.9       1.9
 6 H  pz              0.0       0.3       2.4       0.2       2.0       0.9
 6 H  px              0.0       0.0       0.1       0.4       0.3       0.0
 6 H  py              0.0       3.9       0.0       0.0       0.0       0.2
 7 H  s               7.4       0.8       6.1       1.5       1.1       7.1
 7 H  pz              2.0       0.2       1.1       0.1       0.4       0.7
 7 H  px              0.1       0.5       0.1       0.2       0.1       0.0
 7 H  py              0.1       0.0       1.1       0.7       0.0       1.2
 8 H  s               0.7       0.5       0.2       9.2       1.1       6.3
 8 H  pz              0.8       0.2       0.0       1.9       0.2       0.4
 8 H  px              0.3       0.2       0.3       0.1       0.2       0.3
 8 H  py              0.3       0.0       0.1       1.7       0.0       1.7
 9 H  s               0.2       2.7       0.1       4.1       1.3       1.3
 9 H  pz              0.0       0.3       0.0       1.1       0.7       0.0
 9 H  px              0.2       0.0       0.0       0.3       0.3       0.0
 9 H  py              0.3       0.2       0.6       0.5       0.0       0.3
10 H  s               2.1       1.0       4.7       2.4       1.4       1.9
10 H  pz              0.3       0.0       1.5       0.5       0.6       0.1
10 H  px              0.1       0.0       0.3       0.0       0.1       0.1
10 H  py              0.1       0.5       0.1       0.9       0.0       0.2
11 H  s               0.8       0.2       1.0       1.8       0.3       0.1
11 H  pz              0.2       0.0       0.0       0.2       0.0       0.0
11 H  px              0.1       0.0       0.1       0.2       0.1       0.0
11 H  py              0.1       0.0       0.1       0.3       0.2       0.0
12 H  s               7.2       1.7       1.5       1.1       0.4       0.1
12 H  pz              1.7       0.5       0.1       0.1       0.1       0.0
12 H  px              0.1       0.1       0.5       0.0       0.2       0.0
12 H  py              0.5       0.1       0.2       0.2       0.2       0.0

                     30        31        32        33        34        35   
                   0.25199   0.25624   0.27109   0.29565   0.31214   0.32729
                   0.00000   0.00000   0.00000   0.00000   0.00000   0.00000
                  --------  --------  --------  --------  --------  --------
 0 C  s               0.7       0.6       0.9       0.4       0.1       1.7
 0 C  pz              0.9       0.6       2.9       0.5       2.0       0.3
 0 C  px              1.3       3.8      11.6       8.5       0.4       4.8
 0 C  py              3.6       8.8       0.1      11.4       0.0       5.0
 0 C  dz2             0.0       0.2       0.0       0.4       0.0       0.1
 0 C  dxz             0.1       0.1       0.1       0.0       0.9       0.1
 0 C  dyz             0.1       0.1       0.1       0.0       0.1       0.0
 0 C  dx2y2           0.0       0.0       0.0       0.0       0.0       0.5
 0 C  dxy             0.3       0.6       0.0       0.5       0.0       0.3
 1 C  s               2.0       0.8       0.7       0.3       0.1       0.6
 1 C  pz              7.1       9.6      18.3       4.7      17.7       2.6
 1 C  px              1.1      10.3       3.0       1.8       0.0       1.6
 1 C  py             23.9       4.6       1.7       4.1       0.0       1.8
 1 C  dz2             0.4       0.0       0.4       1.3       0.0       0.0
 1 C  dxz             0.0       0.0       0.0       0.0       0.5       0.1
 1 C  dyz             0.7       0.8       0.6       0.2       0.6       0.0
 1 C  dx2y2           0.4       0.1       0.5       0.1       0.0       0.0
 1 C  dxy             0.0       1.6       0.7       0.0       0.0       0.0
 2 C  s               0.6       0.5       0.5       1.4       0.3       0.5
 2 C  pz              1.2       1.3      15.5       2.3      14.8       0.6
 2 C  px              3.8       5.6       1.6       6.9       2.8      13.1
 2 C  py              5.4      16.4       2.2       2.5       1.0      12.8
 2 C  dz2             0.0       0.3       0.7       0.3       0.1       0.0
 2 C  dxz             0.1       0.1       0.0       0.0       0.5       0.0
 2 C  dyz             0.3       0.3       0.8       0.2       1.3       0.1
 2 C  dx2y2           0.1       0.0       0.5       0.1       0.0       0.1
 2 C  dxy             1.3       0.1       0.0       0.5       0.0       1.0
 3 N  s               0.1       1.3       0.2       0.4       0.7       0.3
 3 N  pz              0.7       1.1       0.5       0.0      19.7       4.5
 3 N  px              7.2       0.9       4.1       6.7       1.0       4.9
 3 N  py              1.5       2.5       0.9       1.3       1.1       8.4
 3 N  dz2             0.0       1.0       2.6       1.7       1.3       3.2
 3 N  dxz             0.3       0.4       1.6       0.0       3.1       0.1
 3 N  dyz             2.7       4.2       0.4       1.8       6.6       0.1
 3 N  dx2y2           0.2       1.0       0.9       1.8       0.6       7.7
 3 N  dxy             4.3       0.7       0.8       9.3       0.3       0.2
 4 H  s               1.0       0.2       1.5       0.5       0.3       1.5
 4 H  pz              0.0       0.0       0.2       0.1       0.0       0.2
 4 H  px              0.4       0.0       0.3       0.3       0.4       0.2
 4 H  py              0.0       0.3       0.4       0.3       0.1       1.3
 5 H  s               2.2       4.3       0.3       2.6       0.0       4.7
 5 H  pz              0.0       0.0       0.0       0.0       1.0       0.1
 5 H  px              0.6       0.5       0.1       0.0       0.0       0.0
 5 H  py              0.2       0.1       0.0       0.0       0.0       1.3
 6 H  s               0.2       1.3       0.7       0.4       1.4       0.9
 6 H  pz              0.0       0.0       0.1       0.0       0.3       0.1
 6 H  px              0.0       0.6       0.3       0.0       0.4       0.0
 6 H  py              0.0       0.0       0.1       0.4       0.3       0.8
 7 H  s               0.9       2.2       3.0       3.1       0.9       1.3
 7 H  pz              0.0       0.0       0.1       2.4       0.0       0.1
 7 H  px              0.1       0.7       0.6       0.0       0.3       0.0
 7 H  py              0.7       0.0       0.0       0.0       0.1       0.1
 8 H  s               3.5       0.9       0.4       5.6       1.2       0.4
 8 H  pz              0.0       0.0       0.5       1.0       0.0       0.3
 8 H  px              0.1       0.7       0.1       0.1       0.3       0.1
 8 H  py              0.1       0.2       0.2       0.0       0.1       0.0
 9 H  s               3.0       1.5       0.2       6.7       8.1       0.0
 9 H  pz              0.3       0.0       1.0       0.4       0.4       0.0
 9 H  px              0.7       0.0       0.0       0.2       1.1       0.3
 9 H  py              0.8       0.0       0.2       0.2       0.9       0.2
10 H  s               0.4       1.0       8.0       0.7       1.8       1.0
10 H  pz              0.1       0.0       0.2       0.6       0.1       0.1
10 H  px              0.1       0.2       0.1       0.2       0.7       1.0
10 H  py              0.0       1.0       0.3       0.1       0.5       1.0
11 H  s               7.7       1.5       0.6       1.2       0.1       0.2
11 H  pz              0.1       0.2       0.0       0.1       0.0       0.0
11 H  px              1.1       0.7       0.0       0.2       0.1       0.4
11 H  py              1.7       0.0       0.3       0.2       0.0       0.3
12 H  s               0.7       1.0       3.9       0.5       1.0       3.5
12 H  pz              0.2       0.1       0.6       0.2       0.1       0.6
12 H  px              0.5       0.0       0.2       0.5       0.2       0.5
12 H  py              0.2       0.0       0.2       0.0       0.0       0.4

                     36        37        38        39        40        41   
                   0.37610   0.38886   0.41691   0.44512   0.46962   0.49574
                   0.00000   0.00000   0.00000   0.00000   0.00000   0.00000
                  --------  --------  --------  --------  --------  --------
 0 C  s               0.8       7.6       0.3       6.0      14.9       6.2
 0 C  pz              0.6       0.1       0.8       0.0       0.1       0.1
 0 C  px              1.6      12.4       0.3       0.3       1.4       8.1
 0 C  py              4.2       1.6       0.2       0.5       1.3       2.1
 0 C  dz2             0.0       0.2       0.0       0.1       0.2       0.3
 0 C  dxz             0.1       0.0       0.2       0.0       0.0       0.1
 0 C  dyz             0.1       0.0       0.1       0.0       0.0       0.0
 0 C  dx2y2           0.1       0.7       0.0       0.0       0.3       0.5
 0 C  dxy             0.3       0.2       0.0       0.1       0.0       1.1
 1 C  s               1.7       7.8       0.3       2.1       1.9      20.1
 1 C  pz              5.0       0.6       4.7       0.2       0.1       0.3
 1 C  px              4.9       2.1       0.9      31.3       5.2       7.1
 1 C  py              0.2       6.5       0.6       6.4       5.9       5.2
 1 C  dz2             0.0       0.7       0.0       0.1       0.0       0.3
 1 C  dxz             0.0       0.0       0.1       0.0       0.0       0.1
 1 C  dyz             0.0       0.0       0.2       0.0       0.0       0.0
 1 C  dx2y2           0.3       0.7       0.0       0.0       0.1       0.0
 1 C  dxy             0.1       0.1       0.2       1.8       0.5       0.1
 2 C  s               3.7       5.9       1.5       3.4       0.2       1.7
 2 C  pz              0.3       0.4       5.5       0.2       0.0       0.4
 2 C  px              4.5       6.2       0.1       4.8       0.8      10.4
 2 C  py              1.8       1.8       0.6       9.8       2.5       0.0
 2 C  dz2             0.4       0.0       0.0       1.0       0.1       0.1
 2 C  dxz             0.1       0.0       0.1       0.0       0.0       0.1
 2 C  dyz             0.0       0.1       0.4       0.0       0.0       0.1
 2 C  dx2y2           0.6       0.4       0.0       0.0       0.0       0.1
 2 C  dxy             0.4       0.5       0.0       0.7       0.0       0.6
 3 N  s               3.4       0.5       0.7       2.1       0.3       1.4
 3 N  pz              3.3       0.6      27.3       0.2       0.2       0.1
 3 N  px             15.0       2.2       0.5       7.0       4.3      17.0
 3 N  py             12.0       1.0       2.2       0.8       6.9       2.3
 3 N  dz2             2.6      10.2       0.0       1.0       8.6       2.2
 3 N  dxz             0.0       0.2      36.9       0.9       0.4       0.1
 3 N  dyz            17.2       0.7       5.2       0.3       1.8       1.2
 3 N  dx2y2           0.2       4.2       0.0       1.0      19.7       0.3
 3 N  dxy             0.3       0.6       0.3       0.1       0.2       3.9
 4 H  s               0.7       0.9       0.6       2.0       4.5       0.1
 4 H  pz              0.1       0.2       0.2       0.4       1.6       0.0
 4 H  px              0.0       0.2       0.1       0.0       0.3       0.3
 4 H  py              0.0       0.1       0.2       0.3       0.1       0.0
 5 H  s               0.5       1.6       0.1       5.2       1.4       1.0
 5 H  pz              0.2       0.1       0.3       0.0       0.0       0.0
 5 H  px              0.0       0.6       0.0       2.0       0.4       0.1
 5 H  py              0.1       0.0       0.0       0.5       0.1       0.3
 6 H  s               0.2       1.8       0.1       1.6       5.6       0.1
 6 H  pz              0.1       0.4       0.0       0.3       2.0       0.1
 6 H  px              0.5       0.0       0.0       0.0       0.1       0.6
 6 H  py              0.1       0.2       0.1       0.1       0.1       0.0
 7 H  s               1.6       1.6       0.3       0.2       0.4       0.1
 7 H  pz              0.2       0.4       0.0       0.0       0.0       0.1
 7 H  px              0.0       0.0       0.0       0.1       0.5       0.0
 7 H  py              0.1       0.1       0.0       0.0       0.3       0.0
 8 H  s               1.3       2.7       0.1       0.4       0.4       0.0
 8 H  pz              1.1       0.3       0.0       0.0       0.0       0.2
 8 H  px              0.0       0.3       0.3       0.0       0.3       0.1
 8 H  py              0.0       0.2       0.0       0.1       0.2       0.0
 9 H  s               1.0       2.6       0.9       1.1       0.0       0.1
 9 H  pz              0.1       1.4       0.1       0.1       0.1       0.1
 9 H  px              0.1       0.0       0.0       0.0       0.0       0.3
 9 H  py              0.0       0.0       0.0       0.2       0.2       0.0
10 H  s               0.0       4.2       1.4       1.3       0.0       0.4
[...]
 2 C  px              1.0       1.0       0.5       2.4       0.1       0.0
 2 C  py              0.5       3.4       0.6       0.1       0.6       5.7
 2 C  dz2             0.1       2.5       0.4       0.1       0.7       6.5
 2 C  dxz             0.0       0.0       0.2       0.0       0.8       0.0
 2 C  dyz             0.2       0.2       6.9       6.8       9.2       2.6
 2 C  dx2y2           0.1       0.8       0.1       0.1       0.1       1.8
 2 C  dxy             1.7       2.7       0.1       1.4       0.1       0.7
 3 N  s               1.1       0.2       2.6       2.7       0.4       8.1
 3 N  pz              0.1       0.0       0.6       0.1       0.1       0.6
 3 N  px              0.1       0.0       0.2       0.2       0.0       1.0
 3 N  py              0.3       0.0       0.0       0.6       0.0       0.1
 3 N  dz2             0.9       0.0       0.1       1.3       0.0       1.8
 3 N  dxz             0.1       0.1       0.4       0.0       0.8       0.0
 3 N  dyz             0.8       0.0       1.1       2.3       0.2       5.9
 3 N  dx2y2           0.1       0.1       0.3       0.0       0.1       0.4
 3 N  dxy             0.1       0.5       0.2       0.0       0.0       0.8
 4 H  s               7.2       0.2       0.0       3.4       0.8       0.2
 4 H  pz             10.8       1.0       0.0       6.2       1.0       0.4
 4 H  px              0.1       0.2       0.0       0.6       0.2       0.0
 4 H  py              6.9       0.1       0.3       2.1       0.7       0.3
 5 H  s               0.8       1.9       4.0       2.7       0.0       0.0
 5 H  pz              1.0       0.0       0.0       0.0       0.0       0.0
 5 H  px              1.0       1.9       5.0       3.8       0.0       0.2
 5 H  py              0.7       5.4       4.2       2.5       0.0       0.0
 6 H  s               2.2       1.0       5.4       0.0       1.1       0.1
 6 H  pz              2.2       3.2      10.4       0.2       1.7       0.3
 6 H  px              0.0       0.2       0.5       0.0       0.2       0.0
 6 H  py              3.1       1.0       2.7       0.0       1.0       0.2
 7 H  s               1.2       0.1       0.8       0.0       5.3       0.7
 7 H  pz              0.8       0.5       1.0       0.0       8.3       2.3
 7 H  px              0.1       0.8       0.1       0.1       0.1       0.1
 7 H  py              2.2       0.0       1.0       0.1       4.6       0.3
 8 H  s               2.8       0.5       0.2       2.7       3.0       2.0
 8 H  pz              4.5       1.3       0.2       4.6       3.4       4.6
 8 H  px              0.1       0.5       0.4       0.4       0.0       0.1
 8 H  py              2.4       0.2       0.1       2.5       3.3       1.4
 9 H  s               0.1       1.1       1.0       2.0       1.4       3.8
 9 H  pz              0.0       3.1       0.7       2.5       1.5       7.6
 9 H  px              0.0       0.3       0.2       0.0       0.0       0.2
 9 H  py              0.2       0.4       1.4       2.4       2.0       2.8
10 H  s               0.5       0.2       3.2       2.4       3.6       0.1
10 H  pz              0.7       1.3       5.5       2.7       5.8       0.8
10 H  px              0.3       0.1       0.0       0.8       0.0       0.0
10 H  py              0.4       0.0       2.8       2.5       3.4       0.0
11 H  s               0.2       0.1       0.2       0.4       0.0       0.9
11 H  pz              0.0       0.0       0.1       0.1       0.1       0.1
11 H  px              0.2       0.0       0.5       0.8       0.0       2.3
11 H  py              0.2       0.1       0.6       0.4       0.1       1.8
12 H  s               0.0       0.0       0.5       0.1       0.2       1.2
12 H  pz              0.5       0.0       0.7       0.9       0.2       2.7
12 H  px              0.0       0.3       0.0       0.0       0.0       0.2
12 H  py              0.1       0.0       0.8       0.2       0.2       0.8

                    120       121       122       123       124       125   
                   4.09142   4.32813  21.89765  21.97958  21.99890  31.84358
                   0.00000   0.00000   0.00000   0.00000   0.00000   0.00000
                  --------  --------  --------  --------  --------  --------
 0 C  s               0.2       0.0      73.3      25.7       0.7       0.0
 0 C  px              0.4       0.0       0.0       0.0       0.0       0.0
 1 C  s               0.0       0.0      14.3      53.8      31.6       0.0
 1 C  px              0.2       0.2       0.0       0.0       0.0       0.0
 1 C  dxy             0.2       0.0       0.0       0.0       0.0       0.0
 2 C  s               1.6       0.0      11.9      20.2      67.4       0.1
 2 C  px              5.7       0.1       0.0       0.0       0.0       0.0
 2 C  py              1.8       0.0       0.0       0.0       0.0       0.0
 2 C  dz2             3.2       0.1       0.0       0.0       0.0       0.0
 2 C  dyz             0.0       0.1       0.0       0.0       0.0       0.0
 2 C  dx2y2           3.9       0.0       0.0       0.0       0.0       0.0
 2 C  dxy             3.9       0.1       0.0       0.0       0.0       0.0
 3 N  s               1.3       0.0       0.0       0.1       0.1      99.7
 3 N  pz              1.3       3.9       0.0       0.0       0.0       0.0
 3 N  px             16.9       1.8       0.0       0.0       0.0       0.0
 3 N  py              1.2      10.0       0.0       0.0       0.0       0.0
 3 N  dz2             3.0      17.9       0.0       0.0       0.0       0.0
 3 N  dxz             1.5       0.2       0.0       0.0       0.0       0.0
 3 N  dyz             4.5      11.9       0.0       0.0       0.0       0.0
 3 N  dx2y2           5.2       1.0       0.0       0.0       0.0       0.0
 3 N  dxy            22.5      14.1       0.0       0.0       0.0       0.0
 9 H  s               0.3       0.0       0.0       0.0       0.0       0.0
 9 H  pz              0.4       0.0       0.0       0.0       0.0       0.0
 9 H  px              0.1       0.0       0.0       0.0       0.0       0.0
10 H  s               0.4       0.1       0.0       0.0       0.0       0.0
10 H  pz              0.8       0.1       0.0       0.0       0.0       0.0
10 H  px              0.1       0.0       0.0       0.0       0.0       0.0
11 H  s               3.4       7.7       0.0       0.0       0.0       0.0
11 H  pz              0.1       0.0       0.0       0.0       0.0       0.0
11 H  px              2.2       6.4       0.0       0.0       0.0       0.0
11 H  py              4.3       4.3       0.0       0.0       0.0       0.0
12 H  s               2.7       8.1       0.0       0.0       0.0       0.0
12 H  pz              3.3       7.3       0.0       0.0       0.0       0.0
12 H  px              0.1       0.4       0.0       0.0       0.0       0.0
12 H  py              2.2       3.9       0.0       0.0       0.0       0.0



                      *****************************
                      * MAYER POPULATION ANALYSIS *
                      *****************************

  NA   - Mulliken gross atomic population
  ZA   - Total nuclear charge
  QA   - Mulliken gross atomic charge
  VA   - Mayer's total valence
  BVA  - Mayer's bonded valence
  FA   - Mayer's free valence

  ATOM       NA         ZA         QA         VA         BVA        FA
  0 C      6.4717     6.0000    -0.4717     3.8330     3.8330     0.0000
  1 C      6.2045     6.0000    -0.2045     3.6349     3.6349    -0.0000
  2 C      6.2055     6.0000    -0.2055     3.7922     3.7922     0.0000
  3 N      7.5466     7.0000    -0.5466     2.7170     2.7170     0.0000
  4 H      0.8606     1.0000     0.1394     0.9655     0.9655     0.0000
  5 H      0.8542     1.0000     0.1458     0.9623     0.9623    -0.0000
  6 H      0.8579     1.0000     0.1421     0.9652     0.9652     0.0000
  7 H      0.8772     1.0000     0.1228     0.9651     0.9651    -0.0000
  8 H      0.8485     1.0000     0.1515     0.9619     0.9619    -0.0000
  9 H      0.8823     1.0000     0.1177     0.9530     0.9530     0.0000
 10 H      0.8656     1.0000     0.1344     0.9563     0.9563     0.0000
 11 H      0.7623     1.0000     0.2377     0.9322     0.9322     0.0000
 12 H      0.7632     1.0000     0.2368     0.9345     0.9345     0.0000

  Mayer bond orders larger than 0.100000
B(  0-C ,  1-C ) :   0.9096 B(  0-C ,  4-H ) :   0.9793 B(  0-C ,  5-H ) :   0.9716 
B(  0-C ,  6-H ) :   0.9837 B(  1-C ,  2-C ) :   0.9316 B(  1-C ,  7-H ) :   0.9549 
B(  1-C ,  8-H ) :   0.9658 B(  2-C ,  3-N ) :   0.9299 B(  2-C ,  9-H ) :   0.9686 
B(  2-C , 10-H ) :   0.9859 B(  3-N , 11-H ) :   0.9203 B(  3-N , 12-H ) :   0.9213 


-------
TIMINGS
-------

Total SCF time: 0 days 0 hours 0 min 9 sec 

Total time                  ....       9.340 sec
Sum of individual times     ....       8.973 sec  ( 96.1%)

SCF preparation             ....       0.143 sec  (  1.5%)
Fock matrix formation       ....       8.044 sec  ( 86.1%)
  Startup                   ....       0.046 sec  (  0.6% of F)
  Split-RI-J                ....       0.915 sec  ( 11.4% of F)
  XC integration            ....       6.646 sec  ( 82.6% of F)
    Basis function eval.    ....       1.106 sec  ( 16.6% of XC)
    Density eval.           ....       1.935 sec  ( 29.1% of XC)
    XC-Functional eval.     ....       1.158 sec  ( 17.4% of XC)
    XC-Potential eval.      ....       1.721 sec  ( 25.9% of XC)
Diagonalization             ....       0.000 sec  (  0.0%)
Density matrix formation    ....       0.169 sec  (  1.8%)
Total Energy calculation    ....       0.039 sec  (  0.4%)
Population analysis         ....       0.058 sec  (  0.6%)
Orbital Transformation      ....       0.041 sec  (  0.4%)
Orbital Orthonormalization  ....       0.000 sec  (  0.0%)
DIIS solution               ....       0.445 sec  (  4.8%)
  MO trafo                  ....       0.000 sec  (  0.0 % of DIIS)
  Orb grad                  ....       0.000 sec  (  0.0 % of DIIS)
  Energy W gradient         ....       0.000 sec  (  0.0 % of DIIS)
  DIIS error                ....       0.003 sec  (  0.7 % of DIIS)
  DIIS work                 ....       0.396 sec  ( 89.0 % of DIIS)
  Form Q                    ....       0.000 sec  (  0.0 % of DIIS)
  Form QpQm                 ....       0.000 sec  (  0.0 % of DIIS)
  Exp/Cayley                ....       0.000 sec  (  0.0 % of DIIS)
  Orb update                ....       0.000 sec  (  0.0 % of DIIS)
  Wake-sleep                ....       0.024 sec  (  5.5 % of DIIS)
SOSCF solution              ....       0.035 sec  (  0.4%)
  MO trafo                  ....       0.028 sec  ( 79.0 % of SOSCF)
  Orb grad                  ....       0.001 sec  (  1.5 % of SOSCF)
  Rot update                ....       0.000 sec  (  0.0 % of SOSCF)
  Step                      ....       0.007 sec  ( 19.3 % of SOSCF)
Finished LeanSCF after   9.4 sec

Maximum memory used throughout the entire LEANSCF-calculation: 13.1 MB


-------------------------------------------------------------------------------
                          DFT DISPERSION CORRECTION                            
                                                                               
                                DFTD4 V3.4.0                                   
-------------------------------------------------------------------------------
The R2SCAN3C composite method is recognized
Using three-body term ABC
Active option DFTDOPT                   ...         5   

-------------------------   ----------------
Dispersion correction           -0.002375650
-------------------------   ----------------

------------------   -----------------
gCP correction             0.009151674
------------------   -----------------

-------------------------   --------------------
FINAL SINGLE POINT ENERGY      -174.424278871533
-------------------------   --------------------


------------------------------------------------------------------------------
                              ORCA PROPERTY CALCULATIONS
------------------------------------------------------------------------------

GBWName                                 ... sp_gas.gbw
Number of atoms                         ...     13
Number of basis functions               ...    126
Max core memory                         ...   1024 MB

Electric properties:
Dipole moment                           ... YES
Quadrupole moment                       ...  NO
Static polarizability (Dipole/Dipole)   ...  NO
Static polarizability (Dipole/Quad.)    ...  NO
Static polarizability (Quad./Quad.)     ...  NO
Static polarizability (Velocity)        ...  NO

Atomic electric properties:
Dipole moment                           ...  NO
Quadrupole moment                       ...  NO
Static polarizability                   ...  NO

Choice of electric origin               ... Center of mass
Position of electric origin             ...    -0.000003    -0.000001     0.000001

General magnetic properties:
Magnetizability                         ...  NO

EPR properties:
g-Tensor (aka g-matrix)                 ...  NO
Zero-Field splitting spin-orbit         ...  NO
Zero-field splitting spin-spin          ...  NO
Hyperfine couplings                     ...  NO (   0 nuclei)
Quadrupole couplings                    ...  NO (   0 nuclei)
Contact density                         ...  NO (   0 nuclei)

NMR properties:
Chemical shifts                         ...  NO (   0 nuclei)
Spin-rotation constants                 ...  NO (   0 nuclei)
Spin-spin couplings                     ...  NO (   0 nuclei,    0 pairs)

Choice of magnetic origin               ... GIAO
Position of magnetic origin             ...     0.000000     0.000000     0.000000

Properties with geometric perturbations:
SCF Hessian                             ...  NO
IR spectrum                             ...  NO
VCD spectrum                            ...  NO
X-ray spectroscopy properties:
SCF XES/XAS/RIXS spectra                ...  NO


-------------
DIPOLE MOMENT
-------------

Method             : SCF
Type of density    : Electron Density
Multiplicity       :   1
Irrep              :   0
Energy             :  -174.4310548959768141 Eh
Relativity type    : 
Basis              : AO
                                X                 Y                 Z
Electronic contribution:      2.170461474       0.364829935      -0.241956225
Nuclear contribution   :     -2.181801046      -0.604159155       0.643001946
                        -----------------------------------------
Total Dipole Moment    :     -0.011339572      -0.239329220       0.401045721
                        -----------------------------------------
Magnitude (a.u.)       :      0.467166706
Magnitude (Debye)      :      1.187443400



--------------------
Rotational spectrum 
--------------------
 
Rotational constants in cm-1:             0.839072             0.125841             0.117568 
Rotational constants in MHz :         25154.738565          3772.611633          3524.590770 

Dipole components along the rotational axes: 
x,y,z [a.u.] :     0.001057     0.215155    -0.414671 
x,y,z [Debye]:     0.002688     0.546881    -1.054009 

 

Dipole moment calculation done in   0.0 sec 

Maximum memory used throughout the entire PROP-calculation: 7.1 MB

--------------------------------
SUGGESTED CITATIONS FOR THIS RUN
--------------------------------

Below you find a list of papers that are relevant to this ORCA run
We neither can nor want to force you to cite these papers, but we appreciate if you do
You receive ORCA, which is the product of decades of hard work by many enthusiastic individuals, for free
The only thing we kindly ask in return is that you cite our papers,
We deeply appreciate it, if you show your appreciation for ORCA by not just citing the generic ORCA reference.

Please note that relegating all ORCA citations to the supporting information does *not* help us.
SI sections are not indexed - citations you put there will not count into any citation statistics
But we need these citations in order to attract the funding resources that allow us to do what we are doing

Therefore, if you are a happy ORCA user, please consider citing a few of the papers listed below in the main body of your paper

In addition to the list printed below, the program has created the file sp_gas.bibtex that contains the list in bibtex format
You can import this file easily into all common literature databanks and citation aid programs


List of essential papers. We consider these as the minimum necessary citations

  1. Neese,F.
     Software update: the ORCA program system, version 5.0
     WIRES Comput. Molec. Sci., 2022 12(1)e1606
     doi.org/10.1002/wcms.1606
  2. Grimme,S.; Hansen,A.; Ehlert,S.; Mewes,J.
     r2SCAN-3c: A 'Swiss army knife' composite electronic-structure method
     J. Chem. Phys., 2021 154 064103
     doi.org/10.1063/5.0040021

List of papers to cite with high priority. The work reported in these papers was absolutely
necessary for this run to complete.
Our perspective: the developers of density functionals and basis sets usually get cited in chemistry papers
Good! But without the algorithms to do something with them, the functionals or basis sets would not do anything.
Hence, in our opinion, the algorithm design and method developments papers are equally worthy of getting cited

  1. Neese,F.
     An improvement of the resolution of the identity approximation for the formation of the Coulomb matrix
     J. Comp. Chem., 2003 24(14)1740-1747
     doi.org/10.1002/jcc.10318
  2. Neese,F.
     The SHARK Integral Generation and Digestion System
     J. Comp. Chem., 2022  1-16
     doi.org/10.1002/jcc.26942
  3. Lehtola,S.; Steigemann,C.; Oliveira,M.; Marques,M.
     Recent developments in Libxc - A comprehensive library of functionals for density functional theory
     Software X, 2018 7 
     doi.org/10.1016/j.softx.2017.11.002
  4. Caldeweyher,E.; Bannwarth,C.; Grimme,S.
     Extension of the D3 dispersion coefficient model
     J. Chem. Phys., 2017 147 034112-XXXX
     doi.org/10.1063/1.4993215
  5. Caldeweyher,E.; Ehlert,S.; Hansen,A.; Neugebauer,H.; Spicher,S.; Bannwarth,C.; Grimme,S.
     A generally applicable atomic-charge dependent London dispersion correction
     J. Chem. Phys., 2019 150 154122-XXXX
     doi.org/10.1063/1.5090222
  6. Caldeweyher,E.; Mewes,J.; Ehlert,S.; Grimme,S.
     Extension and evaluation of the D4 London-dispersion model for periodic systems
     Phys. Chem. Chem. Phys., 2020 22(16)8499-8512
     doi.org/10.1039/D0CP00502A

List of suggested additional citations. These are papers that are important in the 'surrounding' of 
of this run, or papers that preceded the highly important papers. If you like your results we are grateful for a citation.

  1. Neese,F.
     The ORCA program system
     WIRES Comput. Molec. Sci., 2012 2(1)73-78
     doi.org/10.1002/wcms.81
  2. Neese,F.
     Software update: the ORCA program system, version 4.0
     WIRES Comput. Molec. Sci., 2018 8(1)1-6
     doi.org/10.1002/wcms.1327
  3. Neese,F.; Wennmohs,F.; Becker,U.; Riplinger,C.
     The ORCA quantum chemistry program package
     J. Chem. Phys., 2020 152 Art. No. L224108
     doi.org/10.1063/5.0004608

List of optional additional citations

  1. Neese,F.
     Approximate second-order SCF convergence for spin unrestricted wavefunctions
     Chem. Phys. Lett., 2000 325(1-3)93-98
     doi.org/10.1016/s0009-2614(00)00662-x

Timings for individual modules:

Sum of individual times          ...       10.359 sec (=   0.173 min)
Startup calculation              ...        0.629 sec (=   0.010 min)   6.1 %
SCF iterations                   ...        9.636 sec (=   0.161 min)  93.0 %
Property calculations            ...        0.094 sec (=   0.002 min)   0.9 %
                             ****ORCA TERMINATED NORMALLY****
TOTAL RUN TIME: 0 days 0 hours 0 minutes 10 seconds 994 msec
