20
 energy: -19.996855765230 gnorm: 0.022096090802 xtb: 6.7.1 (edcfbbe)
C           -2.17528919404016        0.00776741100479        0.00000621564680
C           -0.87921909520084        0.81533215105904        0.00002615576585
C            0.43177451884341        0.00055568848445       -0.00000037611584
C            1.60485916048283        0.98863365077179        0.00002169797597
C            0.52224365286803       -0.88056842734609       -1.25192852486969
C            0.52225510900840       -0.88065551169533        1.25186040329573
H           -2.25765305492642       -0.63085346082864        0.88553327770020
H           -3.04105704923490        0.67848033447363       -0.00033705500676
H           -2.25732088112355       -0.63132800813735       -0.88520966891339
H           -0.86842924693519        1.47409232680854        0.87939118990863
H           -0.86842057702184        1.47413431905126       -0.87930599980697
H            1.57557319824340        1.63346493087512       -0.88646798918686
H            2.56380737998124        0.45762519549423       -0.00003727685671
H            1.57562448871788        1.63336679441254        0.88658381935312
H            0.40956391926441       -0.28088649131799       -2.16322503657259
H            1.49512167171059       -1.38367579526342       -1.29709649082047
H           -0.25149742939172       -1.65522909036141       -1.25751770936360
H            1.49497757201014       -1.38408557080437        1.29678415371739
H           -0.25174268155230       -1.65505818201366        1.25757902318924
H            0.40997545154642       -0.28098074752798        2.16320950100316
20
 energy: -19.997549958729 gnorm: 0.006951506649 xtb: 6.7.1 (edcfbbe)
C           -2.16989857576215        0.00792222696213        0.00000921544412
C           -0.87919301403159        0.81595456073986        0.00002402802116
C            0.42700251074792       -0.00234148691103       -0.00000438247101
C            1.59916803276879        0.98390792225170        0.00002125200690
C            0.52289760508629       -0.88016833505005       -1.24965416720388
C            0.52290070596964       -0.88025262338301        1.24958207081028
H           -2.24369702003552       -0.62339272820374        0.88405710718807
H           -3.02551653549147        0.68299347700744       -0.00030140052108
H           -2.24340163863239       -0.62383125763356       -0.88374902967758
H           -0.87538074379647        1.46655010166336        0.88066036674965
H           -0.87537938516860        1.46658318950343       -0.88058734246774
H            1.56741624594870        1.62268589921142       -0.88256029364924
H            2.55035877492016        0.45236566842887       -0.00002363683879
H            1.56745275426531        1.62259999592423        0.88266598968508
H            0.40999934388104       -0.27944869364687       -2.15215514871430
H            1.49227066537915       -1.37661328753275       -1.29026369705428
H           -0.24706336029797       -1.64950182937867       -1.24971193875102
H            1.49213340109831       -1.37699057232558        1.28996232405386
H           -0.24729622270897       -1.64934952355116        1.24976344829607
H            0.41037336910966       -0.27954118693689        2.15213454513695
20
 energy: -19.997597643625 gnorm: 0.001368760588 xtb: 6.7.1 (edcfbbe)
C           -2.16925951123670        0.00637557940322        0.00001324507594
C           -0.87801115331918        0.81596230476058        0.00001796021564
C            0.42718620800478       -0.00192637241674       -0.00000641008042
C            1.59998293959074        0.98448410061396        0.00002188435338
C            0.52130884648854       -0.87997147834684       -1.24940738311124
C            0.52130992895948       -0.88005356737447        1.24933381153890
H           -2.24013669358238       -0.62261182368704        0.88317497237306
H           -3.02211138229515        0.68186641275027       -0.00025893806477
H           -2.23988270758155       -0.62300395245250       -0.88288779180515
H           -0.87401012736370        1.46402013125709        0.88037356580280
H           -0.87401462379384        1.46404387410667       -0.88032050947068
H            1.56628027613332        1.62068735133673       -0.88169656948978
H            2.54780612591373        0.45109186180053       -0.00000909387174
H            1.56630037228426        1.62061690350536        0.88179197738771
H            0.40806494146977       -0.27893192044683       -2.14893813937221
H            1.48996825122986       -1.37321350156029       -1.28758054748108
H           -0.24683241441140       -1.64842598930903       -1.24698316478234
H            1.48984374951214       -1.37355893309145        1.28729950564933
H           -0.24704422608716       -1.64829507023187        1.24701746939957
H            0.40839811333425       -0.27902439347822        2.14891346577632
20
 energy: -19.997599774125 gnorm: 0.000307850907 xtb: 6.7.1 (edcfbbe)
C           -2.16959807651238        0.00617258090004        0.00001722599559
C           -0.87800192761016        0.81728722610765        0.00001432156879
C            0.42644785790490       -0.00177394920078       -0.00000833989632
C            1.60045977939018        0.98426817255652        0.00002102566336
C            0.52145469839119       -0.88016208747957       -1.24987471842507
C            0.52145246151519       -0.88024096177695        1.24980012693886
H           -2.23912597601065       -0.62254794268210        0.88333234828574
H           -3.02243035836882        0.68150443948058       -0.00021298905463
H           -2.23891664194131       -0.62288771534131       -0.88307104255318
H           -0.87461780193561        1.46499338850731        0.88040844009605
H           -0.87462703160458        1.46500593516298       -0.88037080508096
H            1.56642160894633        1.62013599830697       -0.88185454753550
H            2.54778410024352        0.44999188499861        0.00000378185446
H            1.56642507444776        1.62008123932547        0.88193630356140
H            0.40658165905050       -0.27910254177195       -2.14915823055661
H            1.49062761827224       -1.37255070127096       -1.28843504698641
H           -0.24619324302675       -1.64904778636765       -1.24610152137925
H            1.49051661291525       -1.37285841601444        1.28817832708794
H           -0.24638024903159       -1.64894218052675        1.24611481199752
H            0.40686674821461       -0.27919506577451        2.14912983846146
20
 energy: -19.997600182161 gnorm: 0.000201744588 xtb: 6.7.1 (edcfbbe)
C           -2.16973301280019        0.00616034751733        0.00002006354817
C           -0.87775192725825        0.81707409384895        0.00001075717285
C            0.42673867646463       -0.00159325489991       -0.00000934644672
C            1.60099639602503        0.98445761484126        0.00002013305314
C            0.52105597809679       -0.88014793950231       -1.24992397220558
C            0.52105270334493       -0.88022405263499        1.24984972872586
H           -2.23905416137628       -0.62257499748531        0.88336465808029
H           -3.02265513532871        0.68144869399453       -0.00017347674963
H           -2.23888305957591       -0.62286734816216       -0.88312870626262
H           -0.87450449120175        1.46480037834935        0.88040387627771
H           -0.87451724426921        1.46480573213312       -0.88037867243389
H            1.56720184146813        1.62037599656880       -0.88190465720947
H            2.54821504616273        0.44994284318105        0.00001275835652
H            1.56719399574206        1.62033431016544        0.88197477097794
H            0.40512269416955       -0.27928629207104       -2.14928453518246
H            1.49068487838143       -1.37163287090874       -1.28908546560287
H           -0.24590366593830       -1.64986891769598       -1.24565864791725
H            1.49058841469622       -1.37190613876025        1.28885288125337
H           -0.24606573126229       -1.64978686632100        1.24565329877757
H            0.40536471770920       -0.27937981501899        2.14925386383030
20
 energy: -19.997600444384 gnorm: 0.000113949625 xtb: 6.7.1 (edcfbbe)
C           -2.16953318918870        0.00621709516605        0.00002243987031
C           -0.87764796870893        0.81716762799815        0.00000802759320
C            0.42668817634533       -0.00159339889359       -0.00001034239681
C            1.60102694976853        0.98423562929990        0.00001859366252
C            0.52092523885080       -0.88009560268067       -1.24988969980132
C            0.52092101553294       -0.88016823317146        1.24981632003917
H           -2.23897721898110       -0.62256285560531        0.88332815026371
H           -3.02242741569393        0.68152650459166       -0.00013164797025
H           -2.23884633749194       -0.62280274070190       -0.88312202744206
H           -0.87437661965874        1.46494691302159        0.88040563184639
H           -0.87439244458114        1.46494575778833       -0.88039060208338
H            1.56740995296566        1.62018957486731       -0.88189817204469
H            2.54818812263656        0.44960580795263        0.00001990341058
H            1.56739255441846        1.62016003224954        0.88195608749564
H            0.40374965776104       -0.27943830380977       -2.14923666780465
H            1.49096237313376       -1.37070463840198       -1.28984943338791
H           -0.24530457557905       -1.65054127515162       -1.24505050325421
H            1.49088270597359       -1.37093800547844        1.28964404437680
H           -0.24543778820244       -1.65048574696499        1.24502526278444
H            0.40394372394912       -0.27953262493628        2.14920394488574
20
 energy: -19.997600577447 gnorm: 0.000036289088 xtb: 6.7.1 (edcfbbe)
C           -2.16942585613875        0.00640732314381        0.00002380550528
C           -0.87762685050454        0.81728104845778        0.00000595150869
C            0.42665096713537       -0.00166522053218       -0.00001120248502
C            1.60099320656043        0.98403747484707        0.00001622387200
C            0.52090730633979       -0.88012983410677       -1.24987466143270
C            0.52090299140728       -0.88019794368306        1.24980316118133
H           -2.23883441707025       -0.62243760007780        0.88329461839815
H           -3.02235414012224        0.68168554156689       -0.00008716065394
H           -2.23874601161999       -0.62261817498808       -0.88312486299591
H           -0.87429642354379        1.46508815465933        0.88038573397077
H           -0.87431487004851        1.46508312788552       -0.88037764921733
H            1.56737686861999        1.61999048722177       -0.88188915316359
H            2.54816042657562        0.44942057465842        0.00002358581917
H            1.56735338745636        1.61997056067013        0.88193516497579
H            0.40270393041215       -0.27961622543460       -2.14916864543354
H            1.49126565158341       -1.37005131495992       -1.29042223227858
H           -0.24476052168903       -1.65109669513775       -1.24450771841726
H            1.49120624991901       -1.37023748443062        1.29024891894784
H           -0.24485893352708       -1.65107132102807        1.24446131602109
H            0.40284395150460       -0.27971096159273        2.14913411592098
20
 energy: -19.997600610014 gnorm: 0.000114573260 xtb: 6.7.1 (edcfbbe)
C           -2.16931852308881        0.00659755112158        0.00002517114025
C           -0.87760573230016        0.81739446891741        0.00000387542418
C            0.42661375792542       -0.00173704217078       -0.00001206257323
C            1.60095946335232        0.98383932039424        0.00001385408148
C            0.52088937382878       -0.88016406553287       -1.24985962306407
C            0.52088496728162       -0.88022765419465        1.24979000232350
H           -2.23869161515941       -0.62231234455029        0.88326108653259
H           -3.02228086455055        0.68184457854211       -0.00004267333762
H           -2.23864568574805       -0.62243360927426       -0.88312769854976
H           -0.87421622742883        1.46522939629707        0.88036583609514
H           -0.87423729551587        1.46522049798271       -0.88036469635129
H            1.56734378427432        1.61979139957623       -0.88188013428248
H            2.54813273051469        0.44923534136421        0.00002726822776
H            1.56731422049425        1.61978108909073        0.88191424245594
H            0.40165820306327       -0.27979414705942       -2.14910062306242
H            1.49156893003306       -1.36939799151787       -1.29099503116926
H           -0.24421646779900       -1.65165211512388       -1.24396493358032
H            1.49152979386443       -1.36953696338280        1.29085379351887
H           -0.24428007885172       -1.65165689509115        1.24389736925775
H            0.40174417906008       -0.27988929824918        2.14906428695623
