      -----------------------------------------------------------      
     |                   =====================                   |     
     |                           x T B                           |     
     |                   =====================                   |     
     |                         S. Grimme                         |     
     |          Mulliken Center for Theoretical Chemistry        |     
     |                    University of Bonn                     |     
      -----------------------------------------------------------      

   * xtb version 6.7.1 (edcfbbe) compiled by 'albert@albert-system' on 2024-07-22

   xtb is free software: you can redistribute it and/or modify it under
   the terms of the GNU Lesser General Public License as published by
   the Free Software Foundation, either version 3 of the License, or
   (at your option) any later version.
   
   xtb is distributed in the hope that it will be useful,
   but WITHOUT ANY WARRANTY; without even the implied warranty of
   MERCHANTABILITY or FITNESS FOR A PARTICULAR PURPOSE.  See the
   GNU Lesser General Public License for more details.
   
   Cite this work as:
   * C. Bannwarth, E. Caldeweyher, S. Ehlert, A. Hansen, P. Pracht,
     J. Seibert, S. Spicher, S. Grimme, WIREs Comput. Mol. Sci., 2020, 11,
     e01493. DOI: 10.1002/wcms.1493
   
   for GFN2-xTB:
   * C. Bannwarth, S. Ehlert and S. Grimme., J. Chem. Theory Comput., 2019,
     15, 1652-1671. DOI: 10.1021/acs.jctc.8b01176
   for GFN1-xTB:
   * S. Grimme, C. Bannwarth, P. Shushkov, J. Chem. Theory Comput., 2017,
     13, 1989-2009. DOI: 10.1021/acs.jctc.7b00118
   for GFN0-xTB:
   * P. Pracht, E. Caldeweyher, S. Ehlert, S. Grimme, ChemRxiv, 2019, preprint.
     DOI: 10.26434/chemrxiv.8326202.v1
   for GFN-FF:
   * S. Spicher and S. Grimme, Angew. Chem. Int. Ed., 2020, 59, 15665-15673.
     DOI: 10.1002/anie.202004239
   
   for ALPB and GBSA implicit solvation:
   * S. Ehlert, M. Stahn, S. Spicher, S. Grimme, J. Chem. Theory Comput.,
     2021, 17, 4250-4261. DOI: 10.1021/acs.jctc.1c00471
   
   for ddCOSMO and CPCM-X implicit solvation:
   * M. Stahn, S. Ehlert, S. Grimme, J. Phys. Chem. A,
     2023, XX, XXXX-XXXX. DOI: 10.1021/acs.jpca.3c04382
   
   for DFT-D4:
   * E. Caldeweyher, C. Bannwarth and S. Grimme, J. Chem. Phys., 2017,
     147, 034112. DOI: 10.1063/1.4993215
   * E. Caldeweyher, S. Ehlert, A. Hansen, H. Neugebauer, S. Spicher,
     C. Bannwarth and S. Grimme, J. Chem. Phys., 2019, 150, 154122.
     DOI: 10.1063/1.5090222
   * E. Caldeweyher, J.-M. Mewes, S. Ehlert and S. Grimme, Phys. Chem. Chem. Phys.
     2020, 22, 8499-8512. DOI: 10.1039/D0CP00502A
   
   for sTDA-xTB:
   * S. Grimme and C. Bannwarth, J. Chem. Phys., 2016, 145, 054103.
     DOI: 10.1063/1.4959605
   
   in the mass-spec context:
   * V. Asgeirsson, C. Bauer and S. Grimme, Chem. Sci., 2017, 8, 4879.
     DOI: 10.1039/c7sc00601b
   * J. Koopman and S. Grimme, ACS Omega 2019, 4, 12, 15120-15133.
     DOI: 10.1021/acsomega.9b02011
   
   for metadynamics refer to:
   * S. Grimme, J. Chem. Theory Comput., 2019, 155, 2847-2862
     DOI: 10.1021/acs.jctc.9b00143
   
   for SPH calculations refer to:
   * S. Spicher and S. Grimme, J. Chem. Theory Comput., 2021, 17, 1701-1714
     DOI: 10.1021/acs.jctc.0c01306
   
   for ONIOM refer to:
   * C. Plett, A. Katbashev, S. Ehlert, S. Grimme, M. Bursch,
     Phys. Chem. Chem. Phys., 2023, 25, 17860-17868. DOI: 10.1039/D3CP02178E
   
   for DIPRO refer to:
   * J. Kohn, N. Gildemeister, S. Grimme, D. Fazzi, A. Hansen,
     J. Chem. Phys., 2023, just accepted.
   
   for PTB refer to:
   * S. Grimme, M. Mueller, A. Hansen, J. Chem. Phys., 2023, 158, 124111.
     DOI: 10.1063/5.0137838
   
   with help from (in alphabetical order)
   P. Atkinson, C. Bannwarth, F. Bohle, G. Brandenburg, E. Caldeweyher
   M. Checinski, S. Dohm, S. Ehlert, S. Ehrlich, I. Gerasimov, C. Hölzer
   A. Katbashev, J. Kohn, J. Koopman, C. Lavigne, S. Lehtola, F. März, M. Müller,
   F. Musil, H. Neugebauer, J. Pisarek, C. Plett, P. Pracht, F. Pultar,
   J. Seibert, P. Shushkov, S. Spicher, M. Stahn, M. Steiner, T. Strunk,
   J. Stückrath, T. Rose, and J. Unsleber
   
 * started run on 2025/04/04 at 23:56:51.789     
   ID    Z sym.   atoms
    1    6 C      1-3, 5, 7
    2    8 O      4, 6
    3    1 H      8-17

           -------------------------------------------------
          |                Calculation Setup                |
           -------------------------------------------------

          program call               : /srv/scratch/z5358697/.xtb/bin/xtb gas.coord --gfn2 --sp --chrg 0 --norestart --parallel 1
          hostname                   : k150
          coordinate file            : gas.coord
          omp threads                :                     1


           -------------------------------------------------
          |                 G F N 2 - x T B                 |
           -------------------------------------------------

        Reference                      10.1021/acs.jctc.8b01176
      * Hamiltonian:
        H0-scaling (s, p, d)           1.850000    2.230000    2.230000
        zeta-weighting                 0.500000
      * Dispersion:
        s8                             2.700000
        a1                             0.520000
        a2                             5.000000
        s9                             5.000000
      * Repulsion:
        kExp                           1.500000    1.000000
        rExp                           1.000000
      * Coulomb:
        alpha                          2.000000
        third order                    shell-resolved
        anisotropic                    true
        a3                             3.000000
        a5                             4.000000
        cn-shift                       1.200000
        cn-exp                         4.000000
        max-rad                        5.000000


          ...................................................
          :                      SETUP                      :
          :.................................................:
          :  # basis functions                  38          :
          :  # atomic orbitals                  38          :
          :  # shells                           24          :
          :  # electrons                        42          :
          :  max. iterations                   250          :
          :  Hamiltonian                  GFN2-xTB          :
          :  restarted?                      false          :
          :  GBSA solvation                  false          :
          :  PC potential                    false          :
          :  electronic temp.          300.0000000     K    :
          :  accuracy                    1.0000000          :
          :  -> integral cutoff          0.2500000E+02      :
          :  -> integral neglect         0.1000000E-07      :
          :  -> SCF convergence          0.1000000E-05 Eh   :
          :  -> wf. convergence          0.1000000E-03 e    :
          :  Broyden damping             0.4000000          :
          :  net charge                          0          :
          :  unpaired electrons                  0          :
          ...................................................

 iter      E             dE          RMSdq      gap      omega  full diag
   1    -24.1576957 -0.241577E+02  0.383E+00    6.19       0.0  T
   2    -24.2217610 -0.640654E-01  0.196E+00    4.83       1.0  T
   3    -24.2256812 -0.392019E-02  0.113E+00    5.35       1.0  T
   4    -24.2276872 -0.200602E-02  0.163E-01    5.09       1.0  T
   5    -24.2278528 -0.165522E-03  0.679E-02    5.15       1.0  T
   6    -24.2278564 -0.365899E-05  0.271E-02    5.14       1.0  T
   7    -24.2278584 -0.199522E-05  0.745E-03    5.14       3.3  T
   8    -24.2278585 -0.122696E-06  0.168E-03    5.14      14.4  T
   9    -24.2278586 -0.613806E-08  0.730E-04    5.14      33.2  T
  10    -24.2278586 -0.113386E-08  0.129E-04    5.14     187.6  T

   *** convergence criteria satisfied after 10 iterations ***

         #    Occupation            Energy/Eh            Energy/eV
      -------------------------------------------------------------
         1        2.0000           -0.7387692             -20.1029
       ...           ...                  ...                  ...
        15        2.0000           -0.4810524             -13.0901
        16        2.0000           -0.4770122             -12.9802
        17        2.0000           -0.4701592             -12.7937
        18        2.0000           -0.4651177             -12.6565
        19        2.0000           -0.4451280             -12.1125
        20        2.0000           -0.4380719             -11.9205
        21        2.0000           -0.4117517             -11.2043 (HOMO)
        22                         -0.2228824              -6.0649 (LUMO)
        23                         -0.0124989              -0.3401
        24                          0.0833699               2.2686
        25                          0.1266553               3.4465
        26                          0.1336526               3.6369
       ...                                ...                  ...
        38                          0.6267331              17.0543
      -------------------------------------------------------------
                  HL-Gap            0.1888693 Eh            5.1394 eV
             Fermi-level           -0.3173171 Eh           -8.6346 eV

 SCC (total)                   0 d,  0 h,  0 min,  0.021 sec
 SCC setup                      ...        0 min,  0.000 sec (  0.791%)
 Dispersion                     ...        0 min,  0.000 sec (  0.365%)
 classical contributions        ...        0 min,  0.000 sec (  0.080%)
 integral evaluation            ...        0 min,  0.001 sec (  5.809%)
 iterations                     ...        0 min,  0.016 sec ( 77.348%)
 molecular gradient             ...        0 min,  0.003 sec ( 14.967%)
 printout                       ...        0 min,  0.000 sec (  0.574%)

         :::::::::::::::::::::::::::::::::::::::::::::::::::::
         ::                     SUMMARY                     ::
         :::::::::::::::::::::::::::::::::::::::::::::::::::::
         :: total energy             -23.956020345713 Eh    ::
         :: gradient norm              0.030076449773 Eh/a0 ::
         :: HOMO-LUMO gap              5.139394742258 eV    ::
         ::.................................................::
         :: SCC energy               -24.227824787908 Eh    ::
         :: -> isotropic ES            0.049634036120 Eh    ::
         :: -> anisotropic ES          0.001492196732 Eh    ::
         :: -> anisotropic XC          0.005920714730 Eh    ::
         :: -> dispersion             -0.009353019869 Eh    ::
         :: repulsion energy           0.271804442195 Eh    ::
         :: add. restraining           0.000000000000 Eh    ::
         :: total charge              -0.000000000000 e     ::
         :::::::::::::::::::::::::::::::::::::::::::::::::::::

           -------------------------------------------------
          |                Property Printout                |
           -------------------------------------------------

    * Orbital Energies and Occupations

         #    Occupation            Energy/Eh            Energy/eV
      -------------------------------------------------------------
         1        2.0000           -0.7387692             -20.1029
       ...           ...                  ...                  ...
         9        2.0000           -0.5584318             -15.1957
        10        2.0000           -0.5435516             -14.7908
        11        2.0000           -0.5144195             -13.9981
        12        2.0000           -0.5103034             -13.8861
        13        2.0000           -0.4957994             -13.4914
        14        2.0000           -0.4841256             -13.1737
        15        2.0000           -0.4810524             -13.0901
        16        2.0000           -0.4770122             -12.9802
        17        2.0000           -0.4701592             -12.7937
        18        2.0000           -0.4651177             -12.6565
        19        2.0000           -0.4451280             -12.1125
        20        2.0000           -0.4380719             -11.9205
        21        2.0000           -0.4117517             -11.2043 (HOMO)
        22                         -0.2228824              -6.0649 (LUMO)
        23                         -0.0124989              -0.3401
        24                          0.0833699               2.2686
        25                          0.1266553               3.4465
        26                          0.1336526               3.6369
        27                          0.1509749               4.1082
        28                          0.1543189               4.1992
        29                          0.1627201               4.4278
        30                          0.1854862               5.0473
        31                          0.1889048               5.1404
        32                          0.2104882               5.7277
       ...                                ...                  ...
        38                          0.6267331              17.0543
      -------------------------------------------------------------
                  HL-Gap            0.1888693 Eh            5.1394 eV
             Fermi-level           -0.3173171 Eh           -8.6346 eV

     #   Z          covCN         q      C6AA      α(0)
     1   6 C        3.753    -0.117    22.792     6.808
     2   6 C        3.737     0.114    18.785     6.185
     3   6 C        3.753    -0.116    22.781     6.806
     4   8 O        1.703    -0.267    18.433     5.797
     5   6 C        2.704     0.362    20.865     7.477
     6   8 O        0.856    -0.431    22.316     6.334
     7   6 C        3.754    -0.145    23.365     6.892
     8   1 H        0.925     0.051     2.305     2.374
     9   1 H        0.925     0.056     2.241     2.341
    10   1 H        0.925     0.051     2.306     2.374
    11   1 H        0.924     0.058     2.228     2.335
    12   1 H        0.925     0.055     2.256     2.349
    13   1 H        0.925     0.051     2.311     2.377
    14   1 H        0.925     0.052     2.301     2.372
    15   1 H        0.925     0.079     1.988     2.205
    16   1 H        0.925     0.069     2.092     2.262
    17   1 H        0.925     0.078     1.996     2.209

 Mol. C6AA /au·bohr⁶  :       2209.850816
 Mol. C8AA /au·bohr⁸  :      46990.536571
 Mol. α(0) /au        :         69.496305


Wiberg/Mayer (AO) data.
largest (>0.10) Wiberg bond orders for each atom

 ---------------------------------------------------------------------------
     #   Z sym  total        # sym  WBO       # sym  WBO       # sym  WBO
 ---------------------------------------------------------------------------
     1   6 C    3.993 --     2 C    1.005     8 H    0.985     9 H    0.984
                            10 H    0.983
     2   6 C    3.923 --     1 C    1.005     3 C    1.004    11 H    0.960
                             4 O    0.911
     3   6 C    3.993 --     2 C    1.004    14 H    0.985    12 H    0.985
                            13 H    0.983
     4   8 O    2.320 --     5 C    1.160     2 C    0.911     6 O    0.177
     5   6 C    3.919 --     6 O    1.726     4 O    1.160     7 C    0.988
     6   8 O    2.015 --     5 C    1.726     4 O    0.177
     7   6 C    3.991 --     5 C    0.988    16 H    0.984    17 H    0.968
                            15 H    0.959
     8   1 H    0.997 --     1 C    0.985
     9   1 H    0.997 --     1 C    0.984
    10   1 H    0.997 --     1 C    0.983
    11   1 H    0.997 --     2 C    0.960
    12   1 H    0.997 --     3 C    0.985
    13   1 H    0.997 --     3 C    0.983
    14   1 H    0.997 --     3 C    0.985
    15   1 H    0.994 --     7 C    0.959
    16   1 H    0.995 --     7 C    0.984
    17   1 H    0.994 --     7 C    0.968
 ---------------------------------------------------------------------------

Topologies differ in total number of bonds
Writing topology from bond orders to xtbtopo.mol

molecular dipole:
                 x           y           z       tot (Debye)
 q only:        0.564       0.572       0.618
   full:        0.529       0.630       0.660       2.680
molecular quadrupole (traceless):
                xx          xy          yy          xz          yz          zz
 q only:        4.815      -3.998      -1.911      -3.682      -2.362      -2.904
  q+dip:        4.004      -4.286      -1.580      -3.972      -2.876      -2.424
   full:        4.141      -4.432      -1.564      -4.189      -3.541      -2.577


           -------------------------------------------------
          | TOTAL ENERGY              -23.956020345713 Eh   |
          | GRADIENT NORM               0.030076449773 Eh/α |
          | HOMO-LUMO GAP               5.139394742258 eV   |
           -------------------------------------------------

------------------------------------------------------------------------
 * finished run on 2025/04/04 at 23:56:51.900     
------------------------------------------------------------------------
 total:
 * wall-time:     0 d,  0 h,  0 min,  0.111 sec
 *  cpu-time:     0 d,  0 h,  0 min,  0.020 sec
 * ratio c/w:     0.180 speedup
 SCF:
 * wall-time:     0 d,  0 h,  0 min,  0.021 sec
 *  cpu-time:     0 d,  0 h,  0 min,  0.009 sec
 * ratio c/w:     0.445 speedup

