
                                 *****************
                                 * O   R   C   A *
                                 *****************

                                            #,                                       
                                            ###                                      
                                            ####                                     
                                            #####                                    
                                            ######                                   
                                           ########,                                 
                                     ,,################,,,,,                         
                               ,,#################################,,                 
                          ,,##########################################,,             
                       ,#########################################, ''#####,          
                    ,#############################################,,   '####,        
                  ,##################################################,,,,####,       
                ,###########''''           ''''###############################       
              ,#####''   ,,,,##########,,,,          '''####'''          '####       
            ,##' ,,,,###########################,,,                        '##       
           ' ,,###''''                  '''############,,,                           
         ,,##''                                '''############,,,,        ,,,,,,###''
      ,#''                                            '''#######################'''  
     '                                                          ''''####''''         
             ,#######,   #######,   ,#######,      ##                                
            ,#'     '#,  ##    ##  ,#'     '#,    #''#        ,####,   ,####,        
            ##       ##  ##   ,#'  ##            #'  '#       #'       #'  '#        
            ##       ##  #######   ##           ,######,      #####,   #    #        
            '#,     ,#'  ##    ##  '#,     ,#' ,#      #,     #,   #   #,  ,#        
             '#######'   ##     ##  '#######'  #'      '#     '####' # '####'        



                #########################################################
                #                        -***-                          #
                #          Department of theory and spectroscopy        #
                #                                                       #
                #                      Frank Neese                      #
                #                                                       #
                #     Directorship, Architecture, Infrastructure        #
                #                    SHARK, DRIVERS                     #
                #        Core code/Algorithms in most modules           #
                #                                                       #
                #        Max Planck Institute fuer Kohlenforschung      #
                #                Kaiser Wilhelm Platz 1                 #
                #                 D-45470 Muelheim/Ruhr                 #
                #                      Germany                          #
                #                                                       #
                #                  All rights reserved                  #
                #                        -***-                          #
                #########################################################


                         Program Version 6.0.0  -   RELEASE  -


 With contributions from (in alphabetic order):
   Daniel Aravena         : Magnetic Suceptibility
   Michael Atanasov       : Ab Initio Ligand Field Theory (pilot matlab implementation)
   Alexander A. Auer      : GIAO ZORA, VPT2 properties, NMR spectrum
   Ute Becker             : All parallelization in ORCA, NUMFREQ, NUMCALC
   Giovanni Bistoni       : ED, misc. LED, open-shell LED, HFLD
   Martin Brehm           : Molecular dynamics
   Dmytro Bykov           : pre 5.0 version of the SCF Hessian
   Marcos Casanova-Páez   : Triplet and SCS-CIS(D). UHF-(DLPNO)-IP/EA/STEOM-CCSD. UHF-CVS-IP/STEOM-CCSD
   Vijay G. Chilkuri      : MRCI spin determinant printing, contributions to CSF-ICE
   Pauline Colinet        : FMM embedding
   Dipayan Datta          : RHF DLPNO-CCSD density
   Achintya Kumar Dutta   : EOM-CC, STEOM-CC
   Nicolas Foglia         : Exact transition moments, OPA infrastructure, MCD improvements
   Dmitry Ganyushin       : Spin-Orbit,Spin-Spin,Magnetic field MRCI
   Miquel Garcia          : C-PCM and meta-GGA Hessian, CCSD/C-PCM, Gaussian charge scheme
   Tiago L. C. Gouveia    : GS-ROHF, GS-ROCIS
   Yang Guo               : DLPNO-NEVPT2, F12-NEVPT2, CIM, IAO-localization
   Andreas Hansen         : Spin unrestricted coupled pair/coupled cluster methods
   Ingolf Harden          : AUTO-CI MPn and infrastructure 
   Benjamin Helmich-Paris : MC-RPA, TRAH-(SCF,CASSCF), AVAS, COSX integrals, SCF dyn. polar.
   Lee Huntington         : MR-EOM, pCC
   Robert Izsak           : Overlap fitted RIJCOSX, COSX-SCS-MP3, EOM
   Riya Kayal             : Wick's Theorem for AUTO-CI, AUTO-CI UHF-CCSDT
   Emily Kempfer          : AUTO-CI, RHF CISDT and CCSDT
   Christian Kollmar      : KDIIS, OOCD, Brueckner-CCSD(T), CCSD density, CASPT2, CASPT2-K, improved NEVPT2
   Axel Koslowski         : Symmetry handling
   Simone Kossmann        : Meta GGA functionals, TD-DFT gradient, OOMP2, (MP2 Hessian; deprecated post 5.0)
   Lucas Lang             : DCDCAS
   Marvin Lechner         : AUTO-CI (C++ implementation), FIC-MRCC
   Spencer Leger          : CASSCF response
   Dagmar Lenk            : GEPOL surface, SMD, ORCA-2-JSON
   Dimitrios Liakos       : Extrapolation schemes; Compound Job, initial MDCI parallelization
   Dimitrios Manganas     : Further ROCIS development; embedding schemes. LFT, Crystal Embedding
   Dimitrios Pantazis     : SARC Basis sets
   Anastasios Papadopoulos: AUTO-CI, single reference methods and gradients
   Taras Petrenko         : pre 6.0 DFT Hessian and TD-DFT gradient, (ASA, deprecated), ECA, 1-Electron XAS/XES, NRVS
   Peter Pinski           : DLPNO-MP2, DLPNO-MP2 Gradient
   Christoph Reimann      : Effective Core Potentials
   Marius Retegan         : Local ZFS, SOC
   Christoph Riplinger    : Optimizer, TS searches, QM/MM, DLPNO-CCSD(T), (RO)-DLPNO pert. Triples
   Michael Roemelt        : Original ROCIS implementation
   Masaaki Saitow         : Open-shell DLPNO-CCSD energy and density
   Barbara Sandhoefer     : DKH picture change effects
   Kantharuban Sivalingam : CASSCF convergence/infrastructure, NEVPT2 and variants, FIC-MRCI
   Bernardo de Souza      : ESD, SOC TD-DFT
   Georgi Stoychev        : AutoAux, RI-MP2 NMR, DLPNO-MP2 response, X2C
   Van Anh Tran           : RI-MP2 g-tensors
   Willem Van den Heuvel  : Paramagnetic NMR
   Zikuan Wang            : NOTCH, Electric field optimization 
   Frank Wennmohs         : Technical directorship and infrastructure
   Hang Xu                : AUTO-CI-Response properties 


 We gratefully acknowledge several colleagues who have allowed us to
 interface, adapt or use parts of their codes:
   Stefan Grimme, W. Hujo, H. Kruse, P. Pracht,  : VdW corrections, initial TS optimization,
                  C. Bannwarth, S. Ehlert,         DFT functionals, gCP, sTDA/sTD-DF
                  L. Wittmann, M. Mueller
   Ed Valeev, F. Pavosevic, A. Kumar             : LibInt (2-el integral package), F12 methods
   Garnet Chan, S. Sharma, J. Yang, R. Olivares  : DMRG
   Ulf Ekstrom                                   : XCFun DFT Library
   Mihaly Kallay                                 : mrcc  (arbitrary order and MRCC methods)
   Frank Weinhold                                : gennbo (NPA and NBO analysis)
   Simon Mueller                                 : openCOSMO-RS
   Christopher J. Cramer and Donald G. Truhlar   : smd solvation model
   Lars Goerigk                                  : TD-DFT with DH, B97 family of functionals
   V. Asgeirsson, H. Jonsson                     : NEB implementation
   FAccTs GmbH                                   : IRC, NEB, NEB-TS, DLPNO-Multilevel, CI-OPT
                                                   MM, QMMM, 2- and 3-layer-ONIOM, Crystal-QMMM,
                                                   LR-CPCM, SF, NACMEs, symmetry and pop. for TD-DFT,
                                                   nearIR, NL-DFT gradient (VV10), updates on ESD,
                                                   ML-optimized integration grids, MBIS, APM,
                                                   GOAT, DOCKER, SOLVATOR, interface openCOSMO-RS
   S Lehtola, MJT Oliveira, MAL Marques          : LibXC Library
   Liviu Ungur et al                             : ANISO software


 Your calculation uses the libint2 library for the computation of 2-el integrals
 For citations please refer to: http://libint.valeyev.net

 Your ORCA version has been built with support for libXC version: 6.2.2
 For citations please refer to: https://libxc.gitlab.io

 This ORCA versions uses:
   CBLAS   interface :  Fast vector & matrix operations
   LAPACKE interface :  Fast linear algebra routines
   SCALAPACK package :  Parallel linear algebra routines
   Shared memory     :  Shared parallel matrices
   BLAS/LAPACK       :  OpenBLAS 0.3.27  USE64BITINT DYNAMIC_ARCH NO_AFFINITY SkylakeX SINGLE_THREADED
        Core in use  :  SkylakeX
   Copyright (c) 2011-2014, The OpenBLAS Project


Your calculation utilizes the geometrical counterpoise correction gCP
Please cite in your paper:
H.Kruse, S. Grimme J.Chem.Phys., 136, (2012), 154101 
   

Your calculation utilizes the DFT-NL dispersion correction.
Cite in your paper:
Vydrov, O. A.; Van Voorhis, T. J. Chem. Phys. 2010, 133, 244103
Hujo, W.; Grimme, S. J. Chem. Theory Comput. 2011, 7, 3866 
   

================================================================================

----- Orbital basis set information -----
Your calculation utilizes the basis: def2-TZVP
   F. Weigend and R. Ahlrichs, Phys. Chem. Chem. Phys. 7, 3297 (2005).

----- AuxJ basis set information -----
Your calculation utilizes the auxiliary basis: def2/J
   F. Weigend, Phys. Chem. Chem. Phys. 8, 1057 (2006).

================================================================================
                                        WARNINGS
                       Please study these warnings very carefully!
================================================================================


================================================================================
                                       INPUT FILE
================================================================================
NAME = sp_gas.inp
|  1> ! wb97x-v def2-tzvp def2/J RIJCOSX DEFGRID2 scfconv7 GCP(DFT/TZ) printgap
|  2> %output
|  3>     printlevel normal
|  4> end
|  5> * xyz 0 1
|  6> C -2.6418187684325694 1.05060121726778 0.06589923778454906
|  7> C -1.7328402200191717 -0.07343925812827372 -0.34363388038323534
|  8> O -2.141092254209063 -0.9727860134192944 -1.0738152414719553
|  9> C -0.30702153289157014 -0.03564286171311819 0.1544679761386324
| 10> C 0.3836040278600558 1.2729907291059963 -0.29226748544625836
| 11> C 1.820710747319026 1.3347040517492528 0.22890924037411978
| 12> C 2.6271082848139256 0.10684426635847229 -0.19387857121422655
| 13> C 1.9375101426845085 -1.1798249079414898 0.2609357266160811
| 14> C 0.5059446450988311 -1.2561467883924082 -0.27243080090146055
| 15> H -3.682520439601135 0.7215332730271757 0.03970023782592524
| 16> H -2.3852912107140005 1.4476782019695007 1.050950999866388
| 17> H -2.5251787904352447 1.8666513533658557 -0.6584458348480497
| 18> H -0.3744553006827716 -0.004715996300893011 1.254142380780542
| 19> H 0.386612216228041 1.3089736351347396 -1.3904705389489727
| 20> H -0.17994795547787368 2.1417193081865977 0.062301641891444215
| 21> H 2.3005681851322004 2.2512307978273323 -0.13355799849976854
| 22> H 1.8003470608621293 1.3942349210012748 1.325883753444025
| 23> H 2.7242205669317108 0.09715324048987284 -1.288571109748634
| 24> H 3.64166013039349 0.1612042826222642 0.21759016436959144
| 25> H 2.5054256450988768 -2.055695985749567 -0.07339399002823128
| 26> H 1.917638467035561 -1.211057226299866 1.3592115313175577
| 27> H 0.5276662092436752 -1.3027776061807907 -1.3692321943208077
| 28> H 0.01557813108033202 -2.1717438718419713 0.07600887229575715
| 29> *
| 30> 
| 31>                          ****END OF INPUT****
================================================================================

                       ****************************
                       * Single Point Calculation *
                       ****************************

---------------------------------
CARTESIAN COORDINATES (ANGSTROEM)
---------------------------------
  C     -2.641819    1.050601    0.065899
  C     -1.732840   -0.073439   -0.343634
  O     -2.141092   -0.972786   -1.073815
  C     -0.307022   -0.035643    0.154468
  C      0.383604    1.272991   -0.292267
  C      1.820711    1.334704    0.228909
  C      2.627108    0.106844   -0.193879
  C      1.937510   -1.179825    0.260936
  C      0.505945   -1.256147   -0.272431
  H     -3.682520    0.721533    0.039700
  H     -2.385291    1.447678    1.050951
  H     -2.525179    1.866651   -0.658446
  H     -0.374455   -0.004716    1.254142
  H      0.386612    1.308974   -1.390471
  H     -0.179948    2.141719    0.062302
  H      2.300568    2.251231   -0.133558
  H      1.800347    1.394235    1.325884
  H      2.724221    0.097153   -1.288571
  H      3.641660    0.161204    0.217590
  H      2.505426   -2.055696   -0.073394
  H      1.917638   -1.211057    1.359212
  H      0.527666   -1.302778   -1.369232
  H      0.015578   -2.171744    0.076009

----------------------------
CARTESIAN COORDINATES (A.U.)
----------------------------
  NO LB      ZA    FRAG     MASS         X           Y           Z
   0 C     6.0000    0    12.011   -4.992314    1.985349    0.124532
   1 C     6.0000    0    12.011   -3.274593   -0.138780   -0.649374
   2 O     8.0000    0    15.999   -4.046078   -1.838299   -2.029217
   3 C     6.0000    0    12.011   -0.580187   -0.067355    0.291902
   4 C     6.0000    0    12.011    0.724907    2.405604   -0.552306
   5 C     6.0000    0    12.011    3.440645    2.522225    0.432576
   6 C     6.0000    0    12.011    4.964515    0.201906   -0.366377
   7 C     6.0000    0    12.011    3.661364   -2.229546    0.493097
   8 C     6.0000    0    12.011    0.956097   -2.373773   -0.514820
   9 H     1.0000    0     1.008   -6.958955    1.363500    0.075023
  10 H     1.0000    0     1.008   -4.507547    2.735715    1.986010
  11 H     1.0000    0     1.008   -4.771896    3.527460   -1.244282
  12 H     1.0000    0     1.008   -0.707618   -0.008912    2.369986
  13 H     1.0000    0     1.008    0.730591    2.473602   -2.627609
  14 H     1.0000    0     1.008   -0.340052    4.047263    0.117733
  15 H     1.0000    0     1.008    4.347444    4.254210   -0.252388
  16 H     1.0000    0     1.008    3.402163    2.634722    2.505557
  17 H     1.0000    0     1.008    5.148031    0.183593   -2.435047
  18 H     1.0000    0     1.008    6.881740    0.304632    0.411186
  19 H     1.0000    0     1.008    4.734568   -3.884702   -0.138695
  20 H     1.0000    0     1.008    3.623812   -2.288566    2.568538
  21 H     1.0000    0     1.008    0.997145   -2.461893   -2.587474
  22 H     1.0000    0     1.008    0.029438   -4.104001    0.143636

--------------------------------
INTERNAL COORDINATES (ANGSTROEM)
--------------------------------
 C      0   0   0     0.000000000000     0.00000000     0.00000000
 C      1   0   0     1.502473416297     0.00000000     0.00000000
 O      2   1   0     1.228274859205   120.57953660     0.00000000
 C      2   1   3     1.510792161621   117.54069942   178.90325023
 C      4   2   1     1.545657825271   110.33913554   302.36156108
 C      5   4   2     1.529937723191   110.81793178   178.93194714
 C      6   5   4     1.528615770783   111.64819502    55.22383978
 C      7   6   5     1.529025574421   110.83882189   304.13841777
 C      4   2   1     1.527346197636   112.96654289   177.49224694
 H      1   2   3     1.091802210979   110.16025627    25.88311988
 H      1   2   3     1.092613149120   112.06029315   149.71681343
 H      1   2   3     1.097368895741   108.18680059   267.99312595
 H      4   2   1     1.102174024493   105.77788048    57.72091352
 H      5   4   2     1.098796507751   108.53108038   299.41110171
 H      5   4   2     1.094531611282   110.38342244    56.87420582
 H      6   5   4     1.096205699747   109.40661199   177.78265419
 H      6   5   4     1.098777359816   108.95771276   294.48759491
 H      7   6   5     1.099034333059   109.21938040    64.48137559
 H      7   6   5     1.096164667876   110.15755777   181.73933119
 H      8   7   6     1.096108809496   110.36592544   178.21912502
 H      8   7   6     1.098899487849   109.22975555   295.52881353
 H      9   4   2     1.098007083822   108.88460585    59.81517153
 H      9   4   2     1.095530713011   109.91996860   302.99651456

---------------------------
INTERNAL COORDINATES (A.U.)
---------------------------
 C      0   0   0     0.000000000000     0.00000000     0.00000000
 C      1   0   0     2.839263280299     0.00000000     0.00000000
 O      2   1   0     2.321103101077   120.57953660     0.00000000
 C      2   1   3     2.854983430738   117.54069942   178.90325023
 C      4   2   1     2.920869986514   110.33913554   302.36156108
 C      5   4   2     2.891163298786   110.81793178   178.93194714
 C      6   5   4     2.888665170772   111.64819502    55.22383978
 C      7   6   5     2.889439587417   110.83882189   304.13841777
 C      4   2   1     2.886266025219   112.96654289   177.49224694
 H      1   2   3     2.063207171160   110.16025627    25.88311988
 H      1   2   3     2.064739622158   112.06029315   149.71681343
 H      1   2   3     2.073726680834   108.18680059   267.99312595
 H      4   2   1     2.082807058214   105.77788048    57.72091352
 H      5   4   2     2.076424476559   108.53108038   299.41110171
 H      5   4   2     2.068364990243   110.38342244    56.87420582
 H      6   5   4     2.071528558965   109.40661199   177.78265419
 H      6   5   4     2.076388292206   108.95771276   294.48759491
 H      7   6   5     2.076873901259   109.21938040    64.48137559
 H      7   6   5     2.071451019967   110.15755777   181.73933119
 H      8   7   6     2.071345462926   110.36592544   178.21912502
 H      8   7   6     2.076619080742   109.22975555   295.52881353
 H      9   4   2     2.074932681529   108.88460585    59.81517153
 H      9   4   2     2.070253018890   109.91996860   302.99651456

---------------------
BASIS SET INFORMATION
---------------------
There are 3 groups of distinct atoms

 Group   1 Type C   : 11s6p2d1f contracted to 5s3p2d1f pattern {62111/411/11/1}
 Group   2 Type O   : 11s6p2d1f contracted to 5s3p2d1f pattern {62111/411/11/1}
 Group   3 Type H   : 5s1p contracted to 3s1p pattern {311/1}

Atom   0C    basis set group =>   1
Atom   1C    basis set group =>   1
Atom   2O    basis set group =>   2
Atom   3C    basis set group =>   1
Atom   4C    basis set group =>   1
Atom   5C    basis set group =>   1
Atom   6C    basis set group =>   1
Atom   7C    basis set group =>   1
Atom   8C    basis set group =>   1
Atom   9H    basis set group =>   3
Atom  10H    basis set group =>   3
Atom  11H    basis set group =>   3
Atom  12H    basis set group =>   3
Atom  13H    basis set group =>   3
Atom  14H    basis set group =>   3
Atom  15H    basis set group =>   3
Atom  16H    basis set group =>   3
Atom  17H    basis set group =>   3
Atom  18H    basis set group =>   3
Atom  19H    basis set group =>   3
Atom  20H    basis set group =>   3
Atom  21H    basis set group =>   3
Atom  22H    basis set group =>   3
---------------------------------
AUXILIARY/J BASIS SET INFORMATION
---------------------------------
There are 3 groups of distinct atoms

 Group   1 Type C   : 12s5p4d2f1g contracted to 6s4p3d1f1g pattern {711111/2111/211/2/1}
 Group   2 Type O   : 12s5p4d2f1g contracted to 6s4p3d1f1g pattern {711111/2111/211/2/1}
 Group   3 Type H   : 5s2p1d contracted to 3s1p1d pattern {311/2/1}

Atom   0C    basis set group =>   1
Atom   1C    basis set group =>   1
Atom   2O    basis set group =>   2
Atom   3C    basis set group =>   1
Atom   4C    basis set group =>   1
Atom   5C    basis set group =>   1
Atom   6C    basis set group =>   1
Atom   7C    basis set group =>   1
Atom   8C    basis set group =>   1
Atom   9H    basis set group =>   3
Atom  10H    basis set group =>   3
Atom  11H    basis set group =>   3
Atom  12H    basis set group =>   3
Atom  13H    basis set group =>   3
Atom  14H    basis set group =>   3
Atom  15H    basis set group =>   3
Atom  16H    basis set group =>   3
Atom  17H    basis set group =>   3
Atom  18H    basis set group =>   3
Atom  19H    basis set group =>   3
Atom  20H    basis set group =>   3
Atom  21H    basis set group =>   3
Atom  22H    basis set group =>   3

Checking for AutoStart:
The File: sp_gas.gbw exists
Trying to determine its content:
     ... Fine, the file contains calculation information
     ... Fine, the calculation information was read
     ... Fine, the file contains a basis set
     ... Fine, the basis set was read
     ... Fine, the file contains a geometry
     ... Fine, the geometry was read
     ... Fine, the file contains a set of orbitals
     ... Fine, the orbitals can be read
     => possible old guess file was deleted
     => GBW file was renamed to GES file
     => GES file is set as startup file
     => Guess is set to MORead
     ... now leaving AutoStart

------------------------------------------------------------------------------
                             ORCA STARTUP CALCULATIONS
                           -- RI-GTO INTEGRALS CHOSEN --
------------------------------------------------------------------------------
------------------------------------------------------------------------------
                   ___                                                        
                  /   \      - P O W E R E D   B Y -                         
                 /     \                                                     
                 |  |  |   _    _      __       _____    __    __             
                 |  |  |  | |  | |    /  \     |  _  \  |  |  /  |          
                  \  \/   | |  | |   /    \    | | | |  |  | /  /          
                 / \  \   | |__| |  /  /\  \   | |_| |  |  |/  /          
                |  |  |   |  __  | /  /__\  \  |    /   |      \           
                |  |  |   | |  | | |   __   |  |    \   |  |\   \          
                \     /   | |  | | |  |  |  |  | |\  \  |  | \   \       
                 \___/    |_|  |_| |__|  |__|  |_| \__\ |__|  \__/        
                                                                              
                      - O R C A' S   B I G   F R I E N D -                    
                                      &                                       
                       - I N T E G R A L  F E E D E R -                       
                                                                              
 v1 FN, 2020, v2 2021, v3 2022-2024                                           
------------------------------------------------------------------------------


----------------------
SHARK INTEGRAL PACKAGE
----------------------

Number of atoms                             ...     23
Number of basis functions                   ...    363
Number of shells                            ...    155
Maximum angular momentum                    ...      3
Integral batch strategy                     ... SHARK/LIBINT Hybrid
RI-J (if used) integral strategy            ... SPLIT-RIJ (Revised 2003 algorithm where possible)
Printlevel                                  ...      1
Contraction scheme used                     ... SEGMENTED contraction
Prescreening option                         ... SCHWARTZ
   Thresh                                   ... 3.000e-11
   Tcut                                     ... 1.000e-12
   Tpresel                                  ... 1.000e-12 
Coulomb Range Separation                    ... NOT USED
Exchange Range Separation                   ... Long Range
   Mu parameter                             ... 3.000e-01
   Scaling (regular/separated)              ... 1.670e-01 8.330e-01
Multipole approximations                    ... NOT USED
Finite Nucleus Model                        ... NOT USED
CABS basis                                  ... NOT available
Auxiliary Coulomb fitting basis             ... AVAILABLE
   # of basis functions in Aux-J            ...    595
   # of shells in Aux-J                     ...    205
   Maximum angular momentum in Aux-J        ...      4
Auxiliary J/K fitting basis                 ... NOT available
Auxiliary Correlation fitting basis         ... NOT available
Auxiliary 'external' fitting basis          ... NOT available

Checking pre-screening integrals            ... done (  0.0 sec) Dimension = 155
Check shell pair data                       ... done (  0.0 sec)
Shell pair information
Shell pair cut-off parameter TPreSel        ...   1.0e-12
Total number of shell pairs                 ...     12090
Shell pairs after pre-screening             ...     10971
Total number of primitive shell pairs       ...     35220
Primitive shell pairs kept                  ...     24039
          la=0 lb=0:   3368 shell pairs
          la=1 lb=0:   3254 shell pairs
          la=1 lb=1:    810 shell pairs
          la=2 lb=0:   1436 shell pairs
          la=2 lb=1:    699 shell pairs
          la=2 lb=2:    163 shell pairs
          la=3 lb=0:    706 shell pairs
          la=3 lb=1:    341 shell pairs
          la=3 lb=2:    152 shell pairs
          la=3 lb=3:     42 shell pairs

Calculating one electron integrals          ... done (  0.0 sec)
Calculating RI/J V-Matrix + Cholesky decomp.... done (  0.1 sec)
Calculating Nuclear repulsion               ... done (  0.0 sec) ENN=    471.390542016088 Eh

Diagonalization of the overlap matrix:
Smallest eigenvalue                        ... 7.963e-05
Time for diagonalization                   ...    0.012 sec
Threshold for overlap eigenvalues          ... 1.000e-07
Number of eigenvalues below threshold      ... 0
Time for construction of square roots      ...    0.025 sec
Total time needed                          ...    0.047 sec

-------------------
DFT GRID GENERATION
-------------------

General Integration Accuracy     IntAcc      ... 4.388
Radial Grid Type                 RadialGrid  ... OptM3 with GC (2021)
Angular Grid (max. ang.)         AngularGrid ... 4 (Lebedev-302)
Angular grid pruning method      GridPruning ... 4 (adaptive)
Weight generation scheme         WeightScheme... mBecke (2022)
Basis function cutoff            BFCut       ... 1.0000e-11
Integration weight cutoff        WCut        ... 1.0000e-14
Partially contracted basis set               ... off
Rotationally invariant grid construction     ... off
Angular grids for H and He will be reduced by one unit

Total number of grid points                  ...    98364
Total number of batches                      ...     1553
Average number of points per batch           ...       63
Average number of grid points per atom       ...     4277

--------------------
COSX GRID GENERATION
--------------------

GRIDX 1
-------
General Integration Accuracy     IntAcc      ... 3.816
Radial Grid Type                 RadialGrid  ... OptM3 with GC (2021)
Angular Grid (max. ang.)         AngularGrid ... 1 (Lebedev-50)
Angular grid pruning method      GridPruning ... 4 (adaptive)
Weight generation scheme         WeightScheme... mBecke (2022)
Basis function cutoff            BFCut       ... 1.0000e-11
Integration weight cutoff        WCut        ... 1.0000e-14
Partially contracted basis set               ... on
Rotationally invariant grid construction     ... off
Angular grids for H and He will be reduced by one unit

Total number of grid points                  ...    12567
Total number of batches                      ...      117
Average number of points per batch           ...      107
Average number of grid points per atom       ...      546
UseSFitting                                  ... on

GRIDX 2
-------
General Integration Accuracy     IntAcc      ... 4.020
Radial Grid Type                 RadialGrid  ... OptM3 with GC (2021)
Angular Grid (max. ang.)         AngularGrid ... 2 (Lebedev-110)
Angular grid pruning method      GridPruning ... 4 (adaptive)
Weight generation scheme         WeightScheme... mBecke (2022)
Basis function cutoff            BFCut       ... 1.0000e-11
Integration weight cutoff        WCut        ... 1.0000e-14
Partially contracted basis set               ... on
Rotationally invariant grid construction     ... off
Angular grids for H and He will be reduced by one unit

Total number of grid points                  ...    26336
Total number of batches                      ...      218
Average number of points per batch           ...      120
Average number of grid points per atom       ...     1145
UseSFitting                                  ... on

GRIDX 3
-------
General Integration Accuracy     IntAcc      ... 4.338
Radial Grid Type                 RadialGrid  ... OptM3 with GC (2021)
Angular Grid (max. ang.)         AngularGrid ... 3 (Lebedev-194)
Angular grid pruning method      GridPruning ... 4 (adaptive)
Weight generation scheme         WeightScheme... mBecke (2022)
Basis function cutoff            BFCut       ... 1.0000e-11
Integration weight cutoff        WCut        ... 1.0000e-14
Partially contracted basis set               ... on
Rotationally invariant grid construction     ... off
Angular grids for H and He will be reduced by one unit

Total number of grid points                  ...    57450
Total number of batches                      ...      463
Average number of points per batch           ...      124
Average number of grid points per atom       ...     2498
UseSFitting                                  ... on
Initializing property integral containers    ... done (  0.0 sec)

SHARK setup successfully completed in   3.3 seconds

Maximum memory used throughout the entire STARTUP-calculation: 60.0 MB
-------------------------------------------------------------------------------
                                 ORCA GUESS
                   Start orbitals & Density for SCF / CASSCF
-------------------------------------------------------------------------------

------------
SCF SETTINGS
------------
Hamiltonian:
 Density Functional     Method          .... DFT(GTOs)
 Exchange Functional    Exchange        .... WB97X-V
 Correlation Functional Correlation     .... WB97X-V
 Gradients option       PostSCFGGA      .... off
 Hybrid DFT is turned on
   Fraction HF Exchange ScalHFX         ....  0.167000
   Scaling of DF-GGA-X  ScalDFX         ....  0.000000
   Scaling of DF-GGA-C  ScalDFC         ....  1.000000
   Scaling of DF-LDA-C  ScalLDAC        ....  1.000000
   Perturbative correction              ....  0.000000
 Long-range corrected/Screened/Range-Separated Hybrid DFT is turned on
   Amount of maximum screened exact exchange              ....  0.833000
   Range separation parameter mu (erf(mu*r12)/r12)        ....  0.300000
   NL short-range parameter             ....  6.000000
   NL long-range parameter              ....  0.010000
 RI-approximation to the Coulomb term is turned on
   Number of AuxJ basis functions       .... 595
   RIJ-COSX (HFX calculated with COS-X)).... on


General Settings:
 Integral files         IntName         .... sp_gas
 Hartree-Fock type      HFTyp           .... RHF
 Total Charge           Charge          ....    0
 Multiplicity           Mult            ....    1
 Number of Electrons    NEL             ....   70
 Basis Dimension        Dim             ....  363
 Nuclear Repulsion      ENuc            ....    471.3905420161 Eh

Convergence Acceleration:
 AO-DIIS                CNVDIIS         .... on
   Start iteration      DIISMaxIt       ....    12
   Startup error        DIISStart       ....  0.200000
   # of expansion vecs  DIISMaxEq       ....     5
   Bias factor          DIISBfac        ....   1.050
   Max. coefficient     DIISMaxC        ....  10.000
 MO-DIIS                CNVKDIIS        .... off
 Trust-Rad. Augm. Hess. CNVTRAH         .... auto
   Auto Start mean grad. ratio tolernc. ....  1.125000
   Auto Start start iteration           ....     1
   Auto Start num. interpolation iter.  ....    10
   Max. Number of Micro iterations      ....    24
   Max. Number of Macro iterations      .... Maxiter - #DIIS iter
   Number of Davidson start vectors     ....     2
   Converg. threshold    (grad. norm)   ....   1.000e-04
   Grad. Scal. Fac. for Micro threshold ....   0.100
   Minimum threshold for Micro iter.    ....   1.000e-02
   NR start threshold (gradient norm)   ....   1.000e-04
   Initial trust radius                 ....   0.400
   Minimum AH scaling param. (alpha)    ....   1.000
   Maximum AH scaling param. (alpha)    .... 1000.000
   Quad. conv. algorithm                .... NR
   White noise on init. David. guess    .... on
   Maximum white noise                  ....   0.010
   Pseudo random numbers                .... off
   Inactive MOs                         .... canonical
   Orbital update algorithm             .... Taylor
   Preconditioner                       .... Diag
   Full preconditioner red. dimension   ....   250
 SOSCF                  CNVSOSCF        .... on
   Start iteration      SOSCFMaxIt      ....   150
   Startup grad/error   SOSCFStart      ....  0.003300
   Hessian update       SOSCFHessUp     .... L-BFGS
 Level Shifting         CNVShift        .... on
   Level shift para.    LevelShift      ....    0.2500
   Turn off err/grad.   ShiftErr        ....    0.0010
 Zerner damping         CNVZerner       .... off
 Static damping         CNVDamp         .... on
   Fraction old density DampFac         ....    0.7000
   Max. Damping (<1)    DampMax         ....    0.9800
   Min. Damping (>=0)   DampMin         ....    0.0000
   Turn off err/grad.   DampErr         ....    0.1000

SCF Procedure:
 Maximum # iterations   MaxIter         ....   125
 SCF integral mode      SCFMode         .... Direct
   Integral package                     .... SHARK and LIBINT hybrid scheme
 Reset frequency        DirectResetFreq ....    20
 Integral Threshold     Thresh          ....  3.000e-11 Eh
 Primitive CutOff       TCut            ....  1.000e-12 Eh

Convergence Tolerance:
 Convergence Check Mode ConvCheckMode   .... Total+1el-Energy
 Convergence forced     ConvForced      .... 0
 Energy Change          TolE            ....  1.000e-07 Eh
 1-El. energy change                    ....  1.000e-04 Eh
 Orbital Gradient       TolG            ....  1.000e-04
 Orbital Rotation angle TolX            ....  1.000e-04
 DIIS Error             TolErr          ....  1.000e-07

---------------------
INITIAL GUESS: MOREAD
---------------------
Guess MOs are being read from file: sp_gas.ges
Input Geometry matches current geometry (good)
Atom 0: N(Shells)= 11 and 9 - projection required
Input basis set needs projection
NBasis(read)= 246
NBasis(calc)= 363
Basis set overlap was calculated
Using GuessMode=FMatrix for the initial guess
C*T matrix was formed
Effective Fockian was calculated
Effective Fockian was diagonalized
Initial density was built
                      ------------------
                      INITIAL GUESS DONE (   0.1 sec)
                      ------------------
             **** ENERGY FILE WAS UPDATED (sp_gas.en.tmp) ****
Finished Guess after   0.5 sec
Maximum memory used throughout the entire GUESS-calculation: 36.9 MB

-------------------------------------------------------------------------------------------
                                      ORCA LEAN-SCF
                              memory conserving SCF solver
-------------------------------------------------------------------------------------------

----------------------------------------D-I-I-S--------------------------------------------
Iteration    Energy (Eh)           Delta-E    RMSDP     MaxDP     DIISErr   Damp  Time(sec)
-------------------------------------------------------------------------------------------
               ***  Starting incremental Fock matrix formation  ***
    1    -388.7970992082321118     0.00e+00  8.96e-04  3.62e-02  4.79e-02  0.700  26.4
    2    -388.8035932908558152    -6.49e-03  7.88e-04  3.59e-02  3.43e-02  0.700  13.0
                               ***Turning on AO-DIIS***
    3    -388.8083997854974996    -4.81e-03  6.38e-04  2.78e-02  2.43e-02  0.700  13.0
    4    -388.8118778762134298    -3.48e-03  1.61e-03  7.08e-02  1.59e-02  0.000  12.7
                              *** Initializing SOSCF ***
---------------------------------------S-O-S-C-F--------------------------------------
Iteration    Energy (Eh)           Delta-E    RMSDP     MaxDP     MaxGrad    Time(sec)
--------------------------------------------------------------------------------------
    5    -388.8209497651300808    -9.07e-03  9.38e-05  4.79e-03  1.91e-03    13.3
               *** Restarting incremental Fock matrix formation ***
    6    -388.8210066965771148    -5.69e-05  8.11e-05  9.18e-03  5.04e-04    26.3
    7    -388.8210179794963324    -1.13e-05  3.79e-05  3.32e-03  9.32e-04    20.1
    8    -388.8210237531590110    -5.77e-06  1.17e-05  3.58e-04  1.80e-04    19.4
    9    -388.8210241661728332    -4.13e-07  2.54e-06  1.54e-04  1.43e-05    18.1
                  *** Gradient check signals convergence ***

               *****************************************************
               *                     SUCCESS                       *
               *           SCF CONVERGED AFTER   9 CYCLES          *
               *****************************************************


------------------
NL GRID GENERATION
------------------

General Integration Accuracy     IntAcc      ... 4.004
Radial Grid Type                 RadialGrid  ... OptM3 with GC (2021)
Angular Grid (max. ang.)         AngularGrid ... 2 (Lebedev-110)
Angular grid pruning method      GridPruning ... 4 (adaptive)
Weight generation scheme         WeightScheme... mBecke (2022)
Basis function cutoff            BFCut       ... 1.0000e-10
Integration weight cutoff        WCut        ... 1.0000e-14
Partially contracted basis set               ... off
Rotationally invariant grid construction     ... off
Angular grids for H and He will be reduced by one unit

Total number of grid points                  ...    29531
Total number of batches                      ...      473
Average number of points per batch           ...       62
Average number of grid points per atom       ...     1284
Final grid set up in    0.3 sec

-------------------------------------------------------------------------------
                    post-SCF DFT-NL dispersion correction                      
-------------------------------------------------------------------------------

SCF Energy:     -388.821024166 
NL    Energy:      0.262057433 
SC+NL Energy:   -388.558966733 
NL done in  :              3.3 sec
-------------------------------------------------------------------------------
Recomputing exchange energy using gridx3       ... done (   48.024 sec)
Old exchange energy                            :    -18.253955387 Eh
New exchange energy                            :    -18.253933314 Eh
Exchange energy change after final integration :      0.000022073 Eh
Total energy after final integration           :   -388.558944660 Eh
             **** ENERGY FILE WAS UPDATED (sp_gas.en.tmp) ****

----------------
TOTAL SCF ENERGY
----------------

Total Energy       :       -388.55894466024392 Eh          -10573.22642 eV

Components:
Nuclear Repulsion  :        471.39054201608826 Eh           12827.18877 eV
Electronic Energy  :       -860.21156618226109 Eh          -23407.54673 eV
One Electron Energy:      -1459.27284462982198 Eh          -39708.83286 eV
Two Electron Energy:        599.06127844756088 Eh           16301.28613 eV

Virial components:
Potential Energy   :       -775.45933904415767 Eh          -21101.32139 eV
Kinetic Energy     :        386.90039438391375 Eh           10528.09497 eV
Virial Ratio       :          2.00428676295089

DFT components:
N(Alpha)           :       35.000005669118 electrons
N(Beta)            :       35.000005669118 electrons
N(Total)           :       70.000011338235 electrons
E(X)               :      -36.426706436684 Eh       
E(C)               :       -2.849278252646 Eh       
NL Energy, E(C,NL) :        0.262057433010 Eh       
E(XC)              :      -39.013927256320 Eh       

---------------
SCF CONVERGENCE
---------------

  Last Energy change         ...    4.1301e-07  Tolerance :   1.0000e-07
  Last MAX-Density change    ...    1.5382e-04  Tolerance :   1.0000e-05
  Last RMS-Density change    ...    2.5450e-06  Tolerance :   1.0000e-06
  Last DIIS Error            ...    1.9097e-03  Tolerance :   1.0000e-07
  Last Orbital Gradient      ...    1.4325e-05  Tolerance :   1.0000e-04
  Last Orbital Rotation      ...    2.6169e-05  Tolerance :   1.0000e-04


----------------
ORBITAL ENERGIES
----------------

  NO   OCC          E(Eh)            E(eV) 
   0   2.0000     -21.655420      -589.2739 
   1   2.0000     -12.133811      -330.1778 
   2   2.0000     -12.058112      -328.1179 
   3   2.0000     -12.053925      -328.0040 
   4   2.0000     -12.050523      -327.9114 
   5   2.0000     -12.046595      -327.8045 
   6   2.0000     -12.042000      -327.6795 
   7   2.0000     -12.040341      -327.6343 
   8   2.0000     -12.037919      -327.5684 
   9   2.0000      -1.698445       -46.2170 
  10   2.0000      -1.352842       -36.8127 
  11   2.0000      -1.287260       -35.0281 
  12   2.0000      -1.254304       -34.1314 
  13   2.0000      -1.239301       -33.7231 
  14   2.0000      -1.134341       -30.8670 
  15   2.0000      -1.102400       -29.9978 
  16   2.0000      -1.071775       -29.1645 
  17   2.0000      -1.023952       -27.8631 
  18   2.0000      -0.969526       -26.3821 
  19   2.0000      -0.956296       -26.0221 
  20   2.0000      -0.914826       -24.8937 
  21   2.0000      -0.897022       -24.4092 
  22   2.0000      -0.877176       -23.8692 
  23   2.0000      -0.874315       -23.7913 
  24   2.0000      -0.859869       -23.3982 
  25   2.0000      -0.847042       -23.0492 
  26   2.0000      -0.833667       -22.6852 
  27   2.0000      -0.829290       -22.5661 
  28   2.0000      -0.823381       -22.4053 
  29   2.0000      -0.805877       -21.9290 
  30   2.0000      -0.782975       -21.3058 
  31   2.0000      -0.780036       -21.2259 
  32   2.0000      -0.760203       -20.6862 
  33   2.0000      -0.754961       -20.5435 
  34   2.0000      -0.739634       -20.1265 
  35   0.0000      -0.306844        -8.3497 
  36   0.0000      -0.063741        -1.7345 
  37   0.0000      -0.053036        -1.4432 
  38   0.0000      -0.036764        -1.0004 
  39   0.0000      -0.031012        -0.8439 
  40   0.0000      -0.020039        -0.5453 
  41   0.0000      -0.015005        -0.4083 
  42   0.0000      -0.012580        -0.3423 
  43   0.0000       0.006095         0.1658 
  44   0.0000       0.019063         0.5187 
  45   0.0000       0.021385         0.5819 
*Only the first 10 virtual orbitals were printed.

                    ********************************
                    * MULLIKEN POPULATION ANALYSIS *
                    ********************************

-----------------------
MULLIKEN ATOMIC CHARGES
-----------------------
   0 C :   -0.376326
   1 C :    0.204868
   2 O :   -0.315415
   3 C :   -0.044853
   4 C :   -0.248792
   5 C :   -0.173802
   6 C :   -0.183792
   7 C :   -0.167301
   8 C :   -0.211298
   9 H :    0.144116
  10 H :    0.126717
  11 H :    0.138827
  12 H :    0.088192
  13 H :    0.109577
  14 H :    0.111531
  15 H :    0.104014
  16 H :    0.090030
  17 H :    0.089788
  18 H :    0.103697
  19 H :    0.104452
  20 H :    0.086751
  21 H :    0.106065
  22 H :    0.112954
Sum of atomic charges:   -0.0000000

--------------------------------
MULLIKEN REDUCED ORBITAL CHARGES
--------------------------------
  0 C s       :     3.245227  s :     3.245227
      pz      :     1.035849  p :     3.082112
      px      :     1.042786
      py      :     1.003477
      dz2     :     0.008229  d :     0.045848
      dxz     :     0.003976
      dyz     :     0.012007
      dx2y2   :     0.012460
      dxy     :     0.009176
      f0      :     0.000343  f :     0.003138
      f+1     :     0.000239
      f-1     :     0.000720
      f+2     :     0.000190
      f-2     :     0.000294
      f+3     :     0.000488
      f-3     :     0.000864

  1 C s       :     3.164319  s :     3.164319
      pz      :     0.708306  p :     2.400513
      px      :     0.922522
      py      :     0.769686
      dz2     :     0.037496  d :     0.212848
      dxz     :     0.039453
      dyz     :     0.028774
      dx2y2   :     0.057574
      dxy     :     0.049552
      f0      :     0.001206  f :     0.017451
      f+1     :     0.001759
      f-1     :     0.002865
      f+2     :     0.002921
      f-2     :     0.002742
      f+3     :     0.001999
      f-3     :     0.003960

  2 O s       :     3.801208  s :     3.801208
      pz      :     1.326569  p :     4.480362
      px      :     1.731610
      py      :     1.422184
      dz2     :     0.008093  d :     0.032041
      dxz     :     0.003997
      dyz     :     0.007770
      dx2y2   :     0.005948
      dxy     :     0.006233
      f0      :     0.000155  f :     0.001805
      f+1     :     0.000109
      f-1     :     0.000396
      f+2     :     0.000303
      f-2     :     0.000313
      f+3     :     0.000276
      f-3     :     0.000253

  3 C s       :     3.084616  s :     3.084616
      pz      :     0.947398  p :     2.829685
      px      :     0.933623
      py      :     0.948664
      dz2     :     0.029860  d :     0.123183
      dxz     :     0.013447
      dyz     :     0.017985
      dx2y2   :     0.038187
      dxy     :     0.023705
      f0      :     0.001025  f :     0.007369
      f+1     :     0.000697
      f-1     :     0.000743
      f+2     :     0.000687
      f-2     :     0.000910
      f+3     :     0.001308
      f-3     :     0.001998

  4 C s       :     3.207820  s :     3.207820
      pz      :     1.017183  p :     2.942015
      px      :     0.962900
      py      :     0.961933
      dz2     :     0.026265  d :     0.093469
      dxz     :     0.013227
      dyz     :     0.008650
      dx2y2   :     0.016260
      dxy     :     0.029065
      f0      :     0.000994  f :     0.005488
      f+1     :     0.000702
      f-1     :     0.000377
      f+2     :     0.000533
      f-2     :     0.000508
      f+3     :     0.001052
      f-3     :     0.001321

  5 C s       :     3.171473  s :     3.171473
      pz      :     0.999137  p :     2.901777
      px      :     0.913241
      py      :     0.989399
      dz2     :     0.025430  d :     0.095039
      dxz     :     0.013174
      dyz     :     0.008423
      dx2y2   :     0.021878
      dxy     :     0.026134
      f0      :     0.000990  f :     0.005513
      f+1     :     0.000739
      f-1     :     0.000329
      f+2     :     0.000499
      f-2     :     0.000541
      f+3     :     0.001054
      f-3     :     0.001361

  6 C s       :     3.175739  s :     3.175739
      pz      :     1.002113  p :     2.908026
      px      :     0.996539
      py      :     0.909374
      dz2     :     0.024021  d :     0.094545
      dxz     :     0.007683
      dyz     :     0.015124
      dx2y2   :     0.030631
      dxy     :     0.017086
      f0      :     0.001000  f :     0.005481
      f+1     :     0.000285
      f-1     :     0.000728
      f+2     :     0.000384
      f-2     :     0.000653
      f+3     :     0.001029
      f-3     :     0.001401

  7 C s       :     3.166630  s :     3.166630
      pz      :     0.992823  p :     2.901071
      px      :     0.929509
      py      :     0.978738
      dz2     :     0.026093  d :     0.094119
      dxz     :     0.012199
      dyz     :     0.008406
      dx2y2   :     0.018852
      dxy     :     0.028570
      f0      :     0.000973  f :     0.005481
      f+1     :     0.000718
      f-1     :     0.000388
      f+2     :     0.000525
      f-2     :     0.000503
      f+3     :     0.001037
      f-3     :     0.001337

  8 C s       :     3.177192  s :     3.177192
      pz      :     1.023152  p :     2.937692
      px      :     0.942729
      py      :     0.971810
      dz2     :     0.024424  d :     0.090881
      dxz     :     0.013991
      dyz     :     0.007964
      dx2y2   :     0.019107
      dxy     :     0.025394
      f0      :     0.000989  f :     0.005534
      f+1     :     0.000754
      f-1     :     0.000312
      f+2     :     0.000507
      f-2     :     0.000572
      f+3     :     0.001069
      f-3     :     0.001331

  9 H s       :     0.834569  s :     0.834569
      pz      :     0.003988  p :     0.021315
      px      :     0.012597
      py      :     0.004730

 10 H s       :     0.852164  s :     0.852164
      pz      :     0.011074  p :     0.021119
      px      :     0.004353
      py      :     0.005692

 11 H s       :     0.839559  s :     0.839559
      pz      :     0.007845  p :     0.021614
      px      :     0.004335
      py      :     0.009433

 12 H s       :     0.890196  s :     0.890196
      pz      :     0.013210  p :     0.021612
      px      :     0.004188
      py      :     0.004214

 13 H s       :     0.869536  s :     0.869536
      pz      :     0.012847  p :     0.020887
      px      :     0.004041
      py      :     0.003999

 14 H s       :     0.867017  s :     0.867017
      pz      :     0.004801  p :     0.021452
      px      :     0.006735
      py      :     0.009916

 15 H s       :     0.874897  s :     0.874897
      pz      :     0.004799  p :     0.021089
      px      :     0.005871
      py      :     0.010419

 16 H s       :     0.889127  s :     0.889127
      pz      :     0.012681  p :     0.020843
      px      :     0.004016
      py      :     0.004147

 17 H s       :     0.889351  s :     0.889351
      pz      :     0.012633  p :     0.020861
      px      :     0.004191
      py      :     0.004038

 18 H s       :     0.875203  s :     0.875203
      pz      :     0.005056  p :     0.021100
      px      :     0.011836
      py      :     0.004207

 19 H s       :     0.874430  s :     0.874430
      pz      :     0.004687  p :     0.021118
      px      :     0.006530
      py      :     0.009901

 20 H s       :     0.892423  s :     0.892423
      pz      :     0.012637  p :     0.020826
      px      :     0.004094
      py      :     0.004094

 21 H s       :     0.872684  s :     0.872684
      pz      :     0.013094  p :     0.021251
      px      :     0.004072
      py      :     0.004086

 22 H s       :     0.865681  s :     0.865681
      pz      :     0.004678  p :     0.021365
      px      :     0.006160
      py      :     0.010527


------------------------
MULLIKEN OVERLAP CHARGES
------------------------
B(  0-C ,  1-C ) :   0.7238 B(  0-C ,  2-O ) :  -0.1726 B(  0-C ,  3-C ) :  -0.3685 
B(  0-C ,  9-H ) :   0.8044 B(  0-C , 10-H ) :   0.8129 B(  0-C , 11-H ) :   0.7563 
B(  1-C ,  2-O ) :   1.4500 B(  1-C ,  3-C ) :   0.0699 B(  1-C ,  8-C ) :  -0.0630 
B(  1-C ,  9-H ) :  -0.0709 B(  1-C , 10-H ) :  -0.1414 B(  2-O ,  3-C ) :  -0.3477 
B(  3-C ,  4-C ) :   0.4637 B(  3-C ,  7-C ) :  -0.0859 B(  3-C ,  8-C ) :   0.5374 
B(  3-C , 10-H ) :   0.0836 B(  3-C , 12-H ) :   0.7661 B(  3-C , 13-H ) :  -0.1086 
B(  3-C , 14-H ) :  -0.0767 B(  3-C , 21-H ) :  -0.0747 B(  3-C , 22-H ) :  -0.0694 
B(  4-C ,  5-C ) :   0.6211 B(  4-C ,  6-C ) :  -0.0588 B(  4-C , 12-H ) :  -0.1200 
B(  4-C , 13-H ) :   0.8112 B(  4-C , 14-H ) :   0.8433 B(  4-C , 15-H ) :  -0.0825 
B(  4-C , 16-H ) :  -0.0817 B(  5-C ,  6-C ) :   0.6817 B(  5-C ,  7-C ) :  -0.0694 
B(  5-C , 13-H ) :  -0.0594 B(  5-C , 14-H ) :  -0.0687 B(  5-C , 15-H ) :   0.8415 
B(  5-C , 16-H ) :   0.8325 B(  5-C , 17-H ) :  -0.0887 B(  5-C , 18-H ) :  -0.0751 
B(  6-C ,  7-C ) :   0.6610 B(  6-C ,  8-C ) :  -0.0611 B(  6-C , 15-H ) :  -0.0698 
B(  6-C , 16-H ) :  -0.0823 B(  6-C , 17-H ) :   0.8328 B(  6-C , 18-H ) :   0.8369 
B(  6-C , 19-H ) :  -0.0695 B(  6-C , 20-H ) :  -0.0891 B(  7-C ,  8-C ) :   0.6342 
B(  7-C , 17-H ) :  -0.0857 B(  7-C , 18-H ) :  -0.0710 B(  7-C , 19-H ) :   0.8518 
B(  7-C , 20-H ) :   0.8274 B(  7-C , 21-H ) :  -0.0856 B(  7-C , 22-H ) :  -0.0865 
B(  8-C , 12-H ) :  -0.0566 B(  8-C , 19-H ) :  -0.0887 B(  8-C , 20-H ) :  -0.0826 
B(  8-C , 21-H ) :   0.8407 B(  8-C , 22-H ) :   0.8481 


                     *******************************
                     * LOEWDIN POPULATION ANALYSIS *
                     *******************************

----------------------
LOEWDIN ATOMIC CHARGES
----------------------
   0 C :   -0.262300
   1 C :   -0.313694
   2 O :    0.109362
   3 C :   -0.226795
   4 C :   -0.223472
   5 C :   -0.257264
   6 C :   -0.260156
   7 C :   -0.257999
   8 C :   -0.226046
   9 H :    0.132788
  10 H :    0.126619
  11 H :    0.139584
  12 H :    0.163270
  13 H :    0.140481
  14 H :    0.134780
  15 H :    0.132571
  16 H :    0.134274
  17 H :    0.134518
  18 H :    0.131441
  19 H :    0.132494
  20 H :    0.132670
  21 H :    0.142929
  22 H :    0.139944

-------------------------------
LOEWDIN REDUCED ORBITAL CHARGES
-------------------------------
  0 C s       :     2.826341  s :     2.826341
      pz      :     1.060146  p :     3.181923
      px      :     1.059672
      py      :     1.062106
      dz2     :     0.044012  d :     0.230384
      dxz     :     0.015929
      dyz     :     0.061649
      dx2y2   :     0.061570
      dxy     :     0.047224
      f0      :     0.001988  f :     0.023651
      f+1     :     0.003131
      f-1     :     0.003099
      f+2     :     0.003016
      f-2     :     0.003492
      f+3     :     0.003373
      f-3     :     0.005553

  1 C s       :     2.768127  s :     2.768127
      pz      :     0.778187  p :     2.673107
      px      :     0.987803
      py      :     0.907117
      dz2     :     0.109604  d :     0.764517
      dxz     :     0.142486
      dyz     :     0.129166
      dx2y2   :     0.195419
      dxy     :     0.187842
      f0      :     0.008964  f :     0.107943
      f+1     :     0.009920
      f-1     :     0.013678
      f+2     :     0.018883
      f-2     :     0.017890
      f+3     :     0.012682
      f-3     :     0.025927

  2 O s       :     3.405337  s :     3.405337
      pz      :     1.336091  p :     4.412708
      px      :     1.621875
      py      :     1.454742
      dz2     :     0.008481  d :     0.066955
      dxz     :     0.010591
      dyz     :     0.019674
      dx2y2   :     0.014029
      dxy     :     0.014180
      f0      :     0.000425  f :     0.005638
      f+1     :     0.000244
      f-1     :     0.000835
      f+2     :     0.001299
      f-2     :     0.001320
      f+3     :     0.000660
      f-3     :     0.000855

  3 C s       :     2.724254  s :     2.724254
      pz      :     0.981797  p :     2.960108
      px      :     0.978207
      py      :     1.000104
      dz2     :     0.121525  d :     0.492216
      dxz     :     0.057426
      dyz     :     0.064510
      dx2y2   :     0.136893
      dxy     :     0.111863
      f0      :     0.006243  f :     0.050216
      f+1     :     0.004312
      f-1     :     0.004783
      f+2     :     0.007264
      f-2     :     0.007873
      f+3     :     0.007589
      f-3     :     0.012152

  4 C s       :     2.768711  s :     2.768711
      pz      :     1.026504  p :     3.024906
      px      :     1.007279
      py      :     0.991123
      dz2     :     0.105926  d :     0.392023
      dxz     :     0.054487
      dyz     :     0.039167
      dx2y2   :     0.079373
      dxy     :     0.113069
      f0      :     0.004978  f :     0.037831
      f+1     :     0.004416
      f-1     :     0.002571
      f+2     :     0.005971
      f-2     :     0.005888
      f+3     :     0.005986
      f-3     :     0.008019

  5 C s       :     2.771467  s :     2.771467
      pz      :     1.022077  p :     3.047241
      px      :     1.011938
      py      :     1.013226
      dz2     :     0.105541  d :     0.400003
      dxz     :     0.057712
      dyz     :     0.038926
      dx2y2   :     0.092555
      dxy     :     0.105269
      f0      :     0.005171  f :     0.038553
      f+1     :     0.004665
      f-1     :     0.002382
      f+2     :     0.005966
      f-2     :     0.006090
      f+3     :     0.006116
      f-3     :     0.008164

  6 C s       :     2.771880  s :     2.771880
      pz      :     1.023433  p :     3.050273
      px      :     1.006911
      py      :     1.019929
      dz2     :     0.100631  d :     0.399323
      dxz     :     0.037796
      dyz     :     0.063145
      dx2y2   :     0.118387
      dxy     :     0.079364
      f0      :     0.005327  f :     0.038681
      f+1     :     0.001755
      f-1     :     0.004911
      f+2     :     0.005549
      f-2     :     0.006493
      f+3     :     0.006008
      f-3     :     0.008638

  7 C s       :     2.770931  s :     2.770931
      pz      :     1.021472  p :     3.048572
      px      :     1.015354
      py      :     1.011746
      dz2     :     0.108765  d :     0.399849
      dxz     :     0.055223
      dyz     :     0.039298
      dx2y2   :     0.082846
      dxy     :     0.113717
      f0      :     0.005035  f :     0.038648
      f+1     :     0.004575
      f-1     :     0.002796
      f+2     :     0.006194
      f-2     :     0.005933
      f+3     :     0.006035
      f-3     :     0.008082

  8 C s       :     2.764933  s :     2.764933
      pz      :     1.027604  p :     3.031781
      px      :     1.004933
      py      :     0.999244
      dz2     :     0.102904  d :     0.390727
      dxz     :     0.058226
      dyz     :     0.036643
      dx2y2   :     0.086564
      dxy     :     0.106391
      f0      :     0.005038  f :     0.038604
      f+1     :     0.004784
      f-1     :     0.002370
      f+2     :     0.005792
      f-2     :     0.006258
      f+3     :     0.006279
      f-3     :     0.008082

  9 H s       :     0.806055  s :     0.806055
      pz      :     0.012481  p :     0.061157
      px      :     0.033970
      py      :     0.014706

 10 H s       :     0.812515  s :     0.812515
      pz      :     0.031054  p :     0.060866
      px      :     0.013808
      py      :     0.016004

 11 H s       :     0.799292  s :     0.799292
      pz      :     0.022992  p :     0.061124
      px      :     0.013414
      py      :     0.024718

 12 H s       :     0.780543  s :     0.780543
      pz      :     0.031042  p :     0.056187
      px      :     0.012366
      py      :     0.012779

 13 H s       :     0.801585  s :     0.801585
      pz      :     0.033223  p :     0.057934
      px      :     0.012509
      py      :     0.012202

 14 H s       :     0.806381  s :     0.806381
      pz      :     0.015251  p :     0.058839
      px      :     0.018174
      py      :     0.025414

 15 H s       :     0.809631  s :     0.809631
      pz      :     0.015085  p :     0.057797
      px      :     0.016278
      py      :     0.026434

 16 H s       :     0.808421  s :     0.808421
      pz      :     0.032411  p :     0.057306
      px      :     0.012368
      py      :     0.012526

 17 H s       :     0.808112  s :     0.808112
      pz      :     0.032438  p :     0.057371
      px      :     0.012458
      py      :     0.012475

 18 H s       :     0.810795  s :     0.810795
      pz      :     0.015773  p :     0.057765
      px      :     0.029453
      py      :     0.012539

 19 H s       :     0.809760  s :     0.809760
      pz      :     0.014740  p :     0.057746
      px      :     0.017761
      py      :     0.025244

 20 H s       :     0.810046  s :     0.810046
      pz      :     0.032242  p :     0.057284
      px      :     0.012558
      py      :     0.012484

 21 H s       :     0.799110  s :     0.799110
      pz      :     0.033434  p :     0.057960
      px      :     0.012214
      py      :     0.012312

 22 H s       :     0.801786  s :     0.801786
      pz      :     0.014730  p :     0.058269
      px      :     0.016832
      py      :     0.026707


---------------------------------
LOEWDIN BOND ORDERS (THRESH 0.050000)
---------------------------------
B(  0-C ,  1-C ) :   1.2459 B(  0-C ,  2-O ) :   0.1828 B(  0-C ,  3-C ) :   0.1379 
B(  0-C ,  9-H ) :   0.8921 B(  0-C , 10-H ) :   0.8925 B(  0-C , 11-H ) :   0.8760 
B(  1-C ,  2-O ) :   2.6062 B(  1-C ,  3-C ) :   1.1136 B(  1-C ,  4-C ) :   0.1480 
B(  1-C ,  8-C ) :   0.1376 B(  1-C ,  9-H ) :   0.0870 B(  1-C , 10-H ) :   0.0827 
B(  1-C , 11-H ) :   0.0941 B(  1-C , 12-H ) :   0.0856 B(  2-O ,  3-C ) :   0.1684 
B(  3-C ,  4-C ) :   1.1066 B(  3-C ,  5-C ) :   0.1346 B(  3-C ,  7-C ) :   0.1399 
B(  3-C ,  8-C ) :   1.1360 B(  3-C , 12-H ) :   0.7689 B(  3-C , 13-H ) :   0.0702 
B(  3-C , 14-H ) :   0.0709 B(  3-C , 21-H ) :   0.0743 B(  3-C , 22-H ) :   0.0758 
B(  4-C ,  5-C ) :   1.2024 B(  4-C ,  6-C ) :   0.1375 B(  4-C ,  8-C ) :   0.1273 
B(  4-C , 12-H ) :   0.0678 B(  4-C , 13-H ) :   0.8397 B(  4-C , 14-H ) :   0.8425 
B(  4-C , 15-H ) :   0.0773 B(  4-C , 16-H ) :   0.0742 B(  5-C ,  6-C ) :   1.2081 
B(  5-C ,  7-C ) :   0.1402 B(  5-C , 13-H ) :   0.0721 B(  5-C , 14-H ) :   0.0758 
B(  5-C , 15-H ) :   0.8504 B(  5-C , 16-H ) :   0.8431 B(  5-C , 17-H ) :   0.0736 
B(  5-C , 18-H ) :   0.0764 B(  6-C ,  7-C ) :   1.2076 B(  6-C ,  8-C ) :   0.1391 
B(  6-C , 15-H ) :   0.0751 B(  6-C , 16-H ) :   0.0731 B(  6-C , 17-H ) :   0.8440 
B(  6-C , 18-H ) :   0.8522 B(  6-C , 19-H ) :   0.0756 B(  6-C , 20-H ) :   0.0733 
B(  7-C ,  8-C ) :   1.2010 B(  7-C , 17-H ) :   0.0732 B(  7-C , 18-H ) :   0.0754 
B(  7-C , 19-H ) :   0.8512 B(  7-C , 20-H ) :   0.8440 B(  7-C , 21-H ) :   0.0730 
B(  7-C , 22-H ) :   0.0754 B(  8-C , 12-H ) :   0.0664 B(  8-C , 19-H ) :   0.0761 
B(  8-C , 20-H ) :   0.0734 B(  8-C , 21-H ) :   0.8329 B(  8-C , 22-H ) :   0.8413 


------------------------------------------
LOEWDIN REDUCED ORBITAL POPULATIONS PER MO
-------------------------------------------
THRESHOLD FOR PRINTING IS 0.1%%
                      0         1         2         3         4         5   
                 -21.65542 -12.13381 -12.05811 -12.05393 -12.05052 -12.04659
                   2.00000   2.00000   2.00000   2.00000   2.00000   2.00000
                  --------  --------  --------  --------  --------  --------
 0 C  s               0.0       0.0       0.1       0.0      99.4       0.0
 1 C  s               0.0      99.1       0.0       0.0       0.0       0.0
 1 C  dxy             0.0       0.0       0.0       0.0       0.1       0.0
 2 O  s              99.7       0.0       0.0       0.0       0.0       0.0
 2 O  dyz             0.0       0.1       0.0       0.0       0.0       0.0
 3 C  s               0.0       0.0      97.4       1.7       0.1       0.0
 4 C  s               0.0       0.0       1.7      97.1       0.0       0.6
 5 C  s               0.0       0.0       0.0       0.6       0.0      97.3
 6 C  s               0.0       0.0       0.0       0.0       0.0       1.5

                      6         7         8         9        10        11   
                 -12.04200 -12.04034 -12.03792  -1.69844  -1.35284  -1.28726
                   2.00000   2.00000   2.00000   2.00000   2.00000   2.00000
                  --------  --------  --------  --------  --------  --------
 0 C  s               0.0       0.0       0.0       0.5       0.9       9.6
 0 C  pz              0.0       0.0       0.0       0.3       0.0       0.0
 0 C  px              0.0       0.0       0.0       0.2       0.5       1.0
 0 C  py              0.0       0.0       0.0       1.2       0.1       0.6
 0 C  dyz             0.0       0.0       0.0       0.2       0.0       0.0
 0 C  dx2y2           0.0       0.0       0.0       0.2       0.0       0.0
 0 C  dxy             0.0       0.0       0.0       0.1       0.1       0.3
 1 C  s               0.0       0.0       0.0      13.5       2.7       8.0
 1 C  pz              0.0       0.0       0.0       5.8       0.9       2.3
 1 C  px              0.0       0.0       0.0       1.8       2.9       0.5
 1 C  py              0.0       0.0       0.0       8.8       0.6       4.2
 1 C  dz2             0.0       0.0       0.0       0.0       0.2       0.3
 1 C  dxz             0.0       0.0       0.0       0.6       0.0       0.0
 1 C  dyz             0.0       0.0       0.0       2.7       0.0       0.0
 1 C  dx2y2           0.0       0.0       0.0       0.7       0.4       0.3
 1 C  dxy             0.0       0.0       0.0       0.9       0.0       0.5
 1 C  f0              0.0       0.0       0.0       0.1       0.0       0.0
 1 C  f-1             0.0       0.0       0.0       0.1       0.0       0.0
 1 C  f+2             0.0       0.0       0.0       0.2       0.0       0.0
 1 C  f-2             0.0       0.0       0.0       0.3       0.0       0.0
 1 C  f+3             0.0       0.0       0.0       0.2       0.0       0.0
 2 O  s               0.0       0.0       0.0      52.4       0.6       2.1
 2 O  pz              0.0       0.0       0.0       1.7       0.2       0.8
 2 O  px              0.0       0.0       0.0       0.5       0.1       0.2
 2 O  py              0.0       0.0       0.0       2.6       0.2       1.2
 2 O  dyz             0.0       0.0       0.0       0.2       0.0       0.0
 3 C  s               0.0       0.0       0.1       0.5      14.9       6.8
 3 C  pz              0.0       0.0       0.0       0.4       0.4       0.1
 3 C  px              0.0       0.0       0.0       1.2       0.8       3.3
 3 C  py              0.0       0.0       0.0       0.1       0.1       0.2
 3 C  dz2             0.0       0.0       0.0       0.0       0.3       0.0
 3 C  dxz             0.0       0.0       0.0       0.2       0.0       0.0
 3 C  dx2y2           0.0       0.0       0.0       0.1       0.0       0.1
 3 C  dxy             0.0       0.0       0.1       0.2       0.0       0.0
 3 C  f+3             0.0       0.0       0.0       0.0       0.1       0.1
 4 C  s               0.0       0.0       0.0       0.0      11.0       0.2
 4 C  pz              0.0       0.0       0.0       0.0       0.5       0.0
 4 C  px              0.0       0.0       0.0       0.1       0.1       4.2
 4 C  py              0.0       0.0       0.0       0.0       2.1       0.7
 4 C  dz2             0.0       0.0       0.0       0.0       0.3       0.0
 4 C  dxz             0.0       0.0       0.0       0.0       0.0       0.1
 4 C  dx2y2           0.0       0.0       0.0       0.0       0.0       0.2
 4 C  dxy             0.0       0.0       0.0       0.0       0.1       0.4
 5 C  s               1.2       0.2       0.0       0.0       7.9       5.0
 5 C  pz              0.0       0.0       0.0       0.0       0.4       0.1
 5 C  px              0.0       0.0       0.0       0.0       0.8       1.1
 5 C  py              0.0       0.0       0.0       0.0       1.2       1.2
 5 C  dz2             0.0       0.0       0.0       0.0       0.2       0.0
 5 C  dx2y2           0.0       0.0       0.0       0.0       0.0       0.2
 5 C  dxy             0.1       0.0       0.0       0.0       0.0       0.3
 6 C  s              85.8      11.8       0.3       0.0       6.4      11.3
 6 C  pz              0.0       0.0       0.0       0.0       0.2       0.2
 6 C  px              0.0       0.0       0.0       0.0       1.9       0.6
 6 C  dz2             0.0       0.0       0.0       0.0       0.2       0.1
 6 C  dx2y2           0.0       0.0       0.0       0.0       0.0       0.1
 7 C  s              12.3      81.7       5.5       0.0       6.7       6.1
 7 C  pz              0.0       0.0       0.0       0.0       0.3       0.1
 7 C  px              0.0       0.0       0.0       0.0       0.7       0.6
 7 C  py              0.0       0.0       0.0       0.0       1.1       1.3
 7 C  dz2             0.0       0.0       0.0       0.0       0.2       0.0
 7 C  dx2y2           0.0       0.0       0.1       0.0       0.0       0.2
 7 C  dxy             0.1       0.0       0.0       0.0       0.0       0.2
 8 C  s               0.1       5.7      93.5       0.1       9.0       0.0
 8 C  pz              0.0       0.0       0.0       0.0       0.4       0.0
 8 C  px              0.0       0.0       0.0       0.3       0.1       3.5
 8 C  py              0.0       0.0       0.0       0.0       2.3       0.4
 8 C  dz2             0.0       0.0       0.0       0.0       0.2       0.0
 8 C  dxz             0.0       0.0       0.0       0.0       0.0       0.1
 8 C  dx2y2           0.0       0.1       0.0       0.0       0.0       0.2
 8 C  dxy             0.0       0.0       0.0       0.0       0.1       0.4
 9 H  s               0.0       0.0       0.0       0.1       0.1       1.8
 9 H  px              0.0       0.0       0.0       0.0       0.0       0.2
10 H  s               0.0       0.0       0.0       0.1       0.2       2.0
10 H  pz              0.0       0.0       0.0       0.0       0.0       0.2
11 H  s               0.0       0.0       0.0       0.1       0.2       2.0
11 H  py              0.0       0.0       0.0       0.0       0.0       0.1
12 H  s               0.0       0.0       0.0       0.1       2.5       1.5
12 H  pz              0.0       0.0       0.0       0.0       0.3       0.2
13 H  s               0.0       0.0       0.0       0.0       1.7       0.0
13 H  pz              0.0       0.0       0.0       0.0       0.2       0.0
14 H  s               0.0       0.0       0.0       0.0       1.8       0.1
15 H  s               0.0       0.0       0.0       0.0       1.3       1.0
16 H  s               0.0       0.0       0.0       0.0       1.2       0.9
16 H  pz              0.0       0.0       0.0       0.0       0.1       0.1
17 H  s               0.0       0.0       0.0       0.0       1.0       2.0
17 H  pz              0.0       0.0       0.0       0.0       0.1       0.2
18 H  s               0.0       0.0       0.0       0.0       1.0       2.1
18 H  px              0.0       0.0       0.0       0.0       0.1       0.2
19 H  s               0.0       0.0       0.0       0.0       1.1       1.1
20 H  s               0.0       0.0       0.0       0.0       1.0       1.1
20 H  pz              0.0       0.0       0.0       0.0       0.1       0.1
21 H  s               0.0       0.0       0.0       0.0       1.4       0.0
21 H  pz              0.0       0.0       0.0       0.0       0.1       0.0
22 H  s               0.0       0.0       0.0       0.0       1.4       0.0

                     12        13        14        15        16        17   
                  -1.25430  -1.23930  -1.13434  -1.10240  -1.07177  -1.02395
                   2.00000   2.00000   2.00000   2.00000   2.00000   2.00000
                  --------  --------  --------  --------  --------  --------
 0 C  s               0.3      21.3       4.7       0.3       1.9       0.0
 0 C  pz              0.0       0.1       0.0       0.0       0.4       0.1
 0 C  px              0.0       0.2       0.9       0.2       0.3       0.5
 0 C  py              0.0       0.3       0.7       0.0       1.6       0.1
 0 C  dyz             0.0       0.0       0.0       0.0       0.1       0.0
 0 C  dx2y2           0.0       0.0       0.0       0.0       0.1       0.0
 0 C  dxy             0.0       0.1       0.3       0.0       0.2       0.1
 1 C  s               0.0       2.7       3.6       0.0       4.1       0.3
 1 C  pz              0.0       0.5       0.6       0.0       1.4       2.1
 1 C  px              0.4       7.2       6.8       0.1       0.9       1.9
 1 C  py              0.4       5.4       0.6       0.3       1.6       0.5
 1 C  dxz             0.0       0.4       0.2       0.0       0.2       0.2
 1 C  dyz             0.0       0.0       0.2       0.0       0.7       0.1
 1 C  dx2y2           0.0       0.2       0.4       0.0       0.0       0.0
 1 C  dxy             0.1       1.1       0.0       0.6       0.0       0.0
 2 O  s               0.0       0.7       2.1       0.1      10.0       1.1
 2 O  pz              0.0       0.3       2.2       0.1      14.5       1.5
 2 O  px              0.1       0.1       2.9       0.1       3.6       0.1
 2 O  py              0.0       1.2       1.8       0.1      23.7       4.7
 2 O  dyz             0.0       0.0       0.0       0.0       0.4       0.0
 2 O  dx2y2           0.0       0.1       0.0       0.0       0.1       0.0
 2 O  dxy             0.0       0.0       0.1       0.0       0.1       0.0
 3 C  s               0.5       4.4       3.0       0.0       2.4       0.8
 3 C  pz              0.0       0.1       0.1       0.0       0.5       3.5
 3 C  px              0.1       1.5       7.3       0.1       0.4       3.3
 3 C  py              7.8       0.0       0.2      10.1       0.0       0.0
 3 C  dz2             0.0       0.0       0.1       0.0       0.1       0.0
 3 C  dxz             0.0       0.0       0.3       0.0       0.2       0.1
 3 C  dyz             0.2       0.0       0.0       0.6       0.0       0.0
 3 C  dx2y2           0.0       0.5       0.6       0.0       0.2       0.7
 3 C  dxy             1.4       0.2       0.0       0.4       0.1       0.0
 4 C  s               9.8       4.0       4.7       5.6       0.3       2.0
 4 C  pz              0.2       0.0       0.1       0.4       0.1       3.7
 4 C  px              2.1       0.3       0.7       5.2       1.0       0.7
 4 C  py              0.8       0.4       1.3       0.0       1.7       0.0
 4 C  dz2             0.0       0.0       0.1       0.1       0.0       0.0
 4 C  dxz             0.1       0.0       0.1       0.3       0.1       0.1
 4 C  dyz             0.0       0.0       0.0       0.0       0.1       0.0
 4 C  dx2y2           0.6       0.2       0.0       0.2       0.1       0.3
 4 C  dxy             0.0       0.1       0.1       0.0       0.0       0.4
 5 C  s              12.7       0.3       0.1       7.8       0.8       3.5
 5 C  pz              0.2       0.0       0.0       0.4       0.1       3.9
 5 C  px              1.1       2.8       5.5       2.7       1.0       0.0
 5 C  py              0.3       0.8       1.7       0.5       1.5       2.1
 5 C  dz2             0.0       0.0       0.0       0.1       0.0       0.1
 5 C  dxz             0.1       0.1       0.3       0.2       0.1       0.0
 5 C  dyz             0.0       0.0       0.1       0.0       0.1       0.2
 5 C  dx2y2           0.4       0.4       0.3       0.1       0.0       0.1
 5 C  dxy             0.0       0.3       0.2       0.0       0.0       0.3
 6 C  s               0.2       6.4       7.1       0.2       2.4       3.8
 6 C  pz              0.0       0.1       0.0       0.0       0.3       3.8
 6 C  px              0.0       0.1       1.2       0.1       0.7       1.6
 6 C  py              7.1       0.2       0.2      10.0       0.1       0.0
 6 C  dz2             0.0       0.0       0.1       0.0       0.1       0.1
 6 C  dxz             0.0       0.0       0.0       0.0       0.0       0.2
 6 C  dyz             0.2       0.0       0.0       0.7       0.0       0.0
 6 C  dx2y2           0.0       0.1       0.0       0.0       0.1       0.6
 6 C  dxy             1.4       0.0       0.0       0.5       0.0       0.0
 7 C  s               9.7       3.0       1.0       6.1       1.6       3.8
 7 C  pz              0.2       0.0       0.0       0.3       0.1       3.8
 7 C  px              2.2       1.5       3.7       4.7       0.3       0.1
 7 C  py              0.6       0.6       2.4       0.0       1.6       1.9
 7 C  dz2             0.0       0.0       0.0       0.1       0.1       0.1
 7 C  dxz             0.1       0.0       0.2       0.3       0.0       0.0
 7 C  dyz             0.0       0.0       0.1       0.0       0.1       0.2
 7 C  dx2y2           0.6       0.2       0.3       0.2       0.0       0.1
 7 C  dxy             0.0       0.2       0.1       0.0       0.0       0.4
 8 C  s              13.8       0.8       3.6       7.2       0.0       2.1
 8 C  pz              0.3       0.0       0.0       0.3       0.0       3.0
 8 C  px              0.8       2.0       2.0       3.4       1.9       0.9
 8 C  py              0.2       0.6       0.9       0.2       1.2       0.0
 8 C  dz2             0.0       0.0       0.1       0.1       0.0       0.0
 8 C  dxz             0.1       0.1       0.2       0.2       0.1       0.1
 8 C  dyz             0.0       0.0       0.0       0.0       0.1       0.0
 8 C  dx2y2           0.3       0.3       0.0       0.1       0.2       0.4
 8 C  dxy             0.0       0.2       0.1       0.0       0.0       0.2
 9 H  s               0.1       4.9       2.1       0.1       0.8       0.2
 9 H  px              0.0       0.5       0.2       0.0       0.0       0.0
10 H  s               0.1       4.8       1.6       0.1       1.6       0.0
10 H  pz              0.0       0.4       0.1       0.0       0.1       0.0
11 H  s               0.1       5.1       1.9       0.1       1.0       0.1
11 H  pz              0.0       0.2       0.1       0.0       0.1       0.0
11 H  py              0.0       0.3       0.1       0.0       0.0       0.0
12 H  s               0.1       0.9       1.2       0.0       1.5       2.2
12 H  pz              0.0       0.1       0.1       0.0       0.1       0.2
13 H  s               2.0       0.9       1.7       2.6       0.2       3.1
13 H  pz              0.2       0.1       0.2       0.2       0.0       0.2
14 H  s               2.2       0.8       1.9       3.0       0.2       0.9
14 H  px              0.1       0.0       0.1       0.0       0.0       0.0
14 H  py              0.1       0.1       0.1       0.2       0.0       0.0
15 H  s               2.8       0.1       0.0       3.8       0.5       2.3
15 H  py              0.2       0.0       0.0       0.3       0.0       0.1
16 H  s               2.6       0.1       0.0       3.4       0.4       4.4
16 H  pz              0.3       0.0       0.0       0.3       0.0       0.3
17 H  s               0.0       1.4       2.4       0.1       1.3       4.5
17 H  pz              0.0       0.1       0.2       0.0       0.1       0.3
18 H  s               0.0       1.4       2.8       0.1       1.3       2.3
18 H  pz              0.0       0.0       0.1       0.0       0.0       0.1
18 H  px              0.0       0.1       0.3       0.0       0.1       0.1
19 H  s               2.0       0.7       0.4       2.9       0.9       2.5
19 H  px              0.1       0.0       0.1       0.0       0.1       0.1
19 H  py              0.1       0.1       0.0       0.3       0.0       0.1
20 H  s               2.0       0.6       0.3       2.5       0.8       4.4
20 H  pz              0.2       0.1       0.0       0.2       0.1       0.3
21 H  s               2.7       0.2       1.2       2.9       0.0       2.7
21 H  pz              0.3       0.0       0.1       0.3       0.0       0.2
[...]
 0 C  pz              0.1       0.0       0.2       0.0       0.0       0.0
 0 C  px              0.0       0.1       0.0       0.0       0.1       0.0
 0 C  py              0.0       0.1       0.2       0.0       0.0       0.0
 0 C  dz2             0.0       0.1       0.0       0.0       0.0       0.0
 0 C  dyz             0.0       0.2       0.1       0.0       0.0       0.0
 0 C  dx2y2           0.0       0.5       0.2       0.0       0.0       0.0
 0 C  f-2             0.0       0.2       0.0       0.0       0.0       0.0
 0 C  f-3             0.0       0.4       0.2       0.0       0.0       0.0
 1 C  s               0.0       0.1       1.5       0.0       3.1       1.1
 1 C  pz              0.0       0.0       0.2       1.3       0.5       0.2
 1 C  px              0.0       0.5       0.6       0.1       0.5       1.4
 1 C  py              0.0       0.1       0.2       0.6       0.8       0.7
 1 C  dz2             0.0       0.1       0.3       2.1       0.0       0.0
 1 C  dxz             0.4       1.6       0.2       0.0       0.1       1.2
 1 C  dyz             0.1       0.2       0.1       0.2       0.6       0.1
 1 C  dx2y2           0.2       1.5       0.8       0.3       0.6       1.1
 1 C  dxy             0.2       1.8       0.5       0.4       0.2       1.0
 1 C  f+1             0.1       0.8       0.1       0.1       0.0       0.0
 1 C  f-1             0.0       0.1       0.0       0.4       0.3       0.1
 1 C  f+2             0.0       3.5       0.6       0.0       1.0       0.1
 1 C  f-2             0.0       3.1       0.4       0.0       0.2       0.9
 1 C  f+3             0.0       0.4       0.1       0.1       0.4       0.4
 1 C  f-3             0.0       6.2       0.8       0.0       0.3       0.2
 2 O  s               0.0       0.0       0.3       0.0       1.4       0.4
 2 O  pz              0.0       0.0       0.0       1.4       0.7       0.3
 2 O  px              0.0       1.3       0.1       0.2       0.2       2.9
 2 O  py              0.0       0.4       0.1       0.7       1.8       0.1
 2 O  dz2             0.1       3.7      23.9      45.5       0.1       0.0
 2 O  dxz            48.3      12.5       1.1       1.0       0.3      26.9
 2 O  dyz            12.2       0.2      18.4       4.4      42.5       1.9
 2 O  dx2y2          20.9      22.2       5.2       6.8      25.1       8.0
 2 O  dxy            12.4       1.3      31.7       9.7       1.7      26.9
 2 O  f0              0.0       0.7       2.0       3.6       1.8       0.6
 2 O  f+1             1.7       1.3       0.2       2.8       0.0       1.2
 2 O  f-1             0.4       0.1       0.0      14.2       1.8       0.1
 2 O  f+2             0.1      10.4       1.7       0.0       8.7       2.6
 2 O  f-2             0.1       7.0       1.0       0.1       0.3      10.2
 2 O  f+3             0.0       2.1       0.8       3.4       0.4       1.8
 2 O  f-3             1.4      10.9       2.3       0.2       3.4       5.9
 3 C  s               0.0       0.1       1.1       0.0       0.1       0.2
 3 C  pz              0.1       0.1       0.2       0.0       0.0       0.0
 3 C  px              0.0       0.1       1.0       0.0       0.0       0.1
 3 C  py              0.0       0.3       0.1       0.0       0.0       0.0
 3 C  dz2             0.2       0.1       0.0       0.0       0.0       0.0
 3 C  dxz             0.1       0.2       0.0       0.0       0.0       0.0
 3 C  dx2y2           0.0       0.0       0.1       0.0       0.0       0.2
 3 C  dxy             0.1       0.6       0.0       0.0       0.0       0.1
 3 C  f+1             0.0       0.1       0.0       0.0       0.0       0.0
 3 C  f+2             0.0       0.2       0.0       0.0       0.0       0.1
 3 C  f-2             0.0       0.2       0.0       0.0       0.0       0.0
 3 C  f-3             0.0       1.0       0.1       0.0       0.0       0.1
 8 C  px              0.0       0.1       0.1       0.0       0.1       0.0

                    354       355       356       357       358       359   
                  20.75820  20.85192  20.87299  20.91347  20.93546  21.02261
                   0.00000   0.00000   0.00000   0.00000   0.00000   0.00000
                  --------  --------  --------  --------  --------  --------
 0 C  s              84.7       4.8       3.7       2.7       0.8       1.0
 1 C  s               0.2       0.2       0.3       0.2       0.4       0.0
 1 C  py              0.1       0.0       0.0       0.0       0.0       0.0
 3 C  s               0.7       4.2       0.4       4.9      10.7       0.6
 4 C  s               9.3       8.8      36.6      15.5       1.7      23.6
 5 C  s               1.4      30.6      14.5      26.2       7.6      13.2
 6 C  s               1.6      24.3       4.8      32.0      29.8       0.1
 7 C  s               0.4      21.2      19.0      12.2      27.6      13.9
 8 C  s               0.0       4.1      19.5       4.6      19.8      46.3
 9 H  s               0.2       0.0       0.0       0.0       0.0       0.0
10 H  s               0.2       0.0       0.0       0.0       0.0       0.0
11 H  s               0.2       0.0       0.0       0.0       0.0       0.0
14 H  s               0.0       0.1       0.1       0.0       0.0       0.0
15 H  s               0.0       0.1       0.0       0.1       0.0       0.0
18 H  s               0.0       0.1       0.0       0.1       0.0       0.0
19 H  s               0.0       0.1       0.0       0.0       0.1       0.0
21 H  s               0.0       0.0       0.0       0.0       0.1       0.1

                    360       361       362   
                  21.12779  21.47223  41.54690
                   0.00000   0.00000   0.00000
                  --------  --------  --------
 0 C  s               0.2       0.5       0.0
 1 C  s               0.1      95.3       0.0
 1 C  pz              0.0       0.1       0.0
 1 C  py              0.0       0.2       0.0
 1 C  dyz             0.0       0.1       0.0
 2 O  s               0.0       1.1      99.8
 2 O  pz              0.0       0.3       0.0
 2 O  py              0.0       0.4       0.0
 3 C  s              76.7       0.4       0.0
 4 C  s               2.9       0.2       0.0
 5 C  s               5.0       0.0       0.0
 6 C  s               5.9       0.1       0.0
 7 C  s               4.3       0.0       0.0
 8 C  s               3.7       0.4       0.0
12 H  s               0.3       0.0       0.0


                      *****************************
                      * MAYER POPULATION ANALYSIS *
                      *****************************

  NA   - Mulliken gross atomic population
  ZA   - Total nuclear charge
  QA   - Mulliken gross atomic charge
  VA   - Mayer's total valence
  BVA  - Mayer's bonded valence
  FA   - Mayer's free valence

  ATOM       NA         ZA         QA         VA         BVA        FA
  0 C      6.3763     6.0000    -0.3763     3.8413     3.8413     0.0000
  1 C      5.7951     6.0000     0.2049     4.0504     4.0504    -0.0000
  2 O      8.3154     8.0000    -0.3154     2.1630     2.1630    -0.0000
  3 C      6.0449     6.0000    -0.0449     3.7138     3.7138    -0.0000
  4 C      6.2488     6.0000    -0.2488     3.9353     3.9353    -0.0000
  5 C      6.1738     6.0000    -0.1738     3.9458     3.9458    -0.0000
  6 C      6.1838     6.0000    -0.1838     3.9436     3.9436    -0.0000
  7 C      6.1673     6.0000    -0.1673     3.9201     3.9201    -0.0000
  8 C      6.2113     6.0000    -0.2113     4.0075     4.0075     0.0000
  9 H      0.8559     1.0000     0.1441     0.9899     0.9899     0.0000
 10 H      0.8733     1.0000     0.1267     0.9708     0.9708    -0.0000
 11 H      0.8612     1.0000     0.1388     0.9722     0.9722     0.0000
 12 H      0.9118     1.0000     0.0882     0.9714     0.9714    -0.0000
 13 H      0.8904     1.0000     0.1096     0.9757     0.9757    -0.0000
 14 H      0.8885     1.0000     0.1115     0.9699     0.9699     0.0000
 15 H      0.8960     1.0000     0.1040     0.9718     0.9718     0.0000
 16 H      0.9100     1.0000     0.0900     0.9782     0.9782    -0.0000
 17 H      0.9102     1.0000     0.0898     0.9778     0.9778     0.0000
 18 H      0.8963     1.0000     0.1037     0.9710     0.9710    -0.0000
 19 H      0.8955     1.0000     0.1045     0.9729     0.9729    -0.0000
 20 H      0.9132     1.0000     0.0868     0.9766     0.9766     0.0000
 21 H      0.8939     1.0000     0.1061     0.9891     0.9891     0.0000
 22 H      0.8870     1.0000     0.1130     0.9842     0.9842     0.0000

  Mayer bond orders larger than 0.100000
B(  0-C ,  1-C ) :   0.9715 B(  0-C ,  9-H ) :   0.9760 B(  0-C , 10-H ) :   0.9749 
B(  0-C , 11-H ) :   0.9491 B(  1-C ,  2-O ) :   2.1407 B(  1-C ,  3-C ) :   0.9307 
B(  3-C ,  4-C ) :   0.9313 B(  3-C ,  8-C ) :   0.9971 B(  3-C , 12-H ) :   0.9424 
B(  4-C ,  5-C ) :   0.9891 B(  4-C , 13-H ) :   0.9675 B(  4-C , 14-H ) :   0.9730 
B(  5-C ,  6-C ) :   0.9929 B(  5-C , 15-H ) :   0.9766 B(  5-C , 16-H ) :   0.9743 
B(  6-C ,  7-C ) :   0.9848 B(  6-C , 17-H ) :   0.9741 B(  6-C , 18-H ) :   0.9763 
B(  7-C ,  8-C ) :   0.9752 B(  7-C , 19-H ) :   0.9792 B(  7-C , 20-H ) :   0.9744 
B(  8-C , 21-H ) :   0.9716 B(  8-C , 22-H ) :   0.9755 

-------
TIMINGS
-------

Total SCF time: 0 days 0 hours 3 min 34 sec 

Total time                  ....     214.416 sec
Sum of individual times     ....     210.609 sec  ( 98.2%)

SCF preparation             ....       0.287 sec  (  0.1%)
Fock matrix formation       ....     208.114 sec  ( 97.1%)
  Startup                   ....       0.089 sec  (  0.0% of F)
  Split-RI-J                ....       8.388 sec  (  4.0% of F)
  Chain of spheres X        ....     181.267 sec  ( 87.1% of F)
  XC integration            ....      20.946 sec  ( 10.1% of F)
    XC Preparation          ....       0.000 sec  (  0.0% of XC)
    Basis function eval.    ....       4.504 sec  ( 21.5% of XC)
    Density eval.           ....       4.362 sec  ( 20.8% of XC)
    XC-Functional eval.     ....       4.213 sec  ( 20.1% of XC)
    XC-Potential eval.      ....       6.700 sec  ( 32.0% of XC)
Diagonalization             ....       0.000 sec  (  0.0%)
Density matrix formation    ....       0.302 sec  (  0.1%)
Total Energy calculation    ....       0.101 sec  (  0.0%)
Population analysis         ....       0.242 sec  (  0.1%)
Orbital Transformation      ....       0.138 sec  (  0.1%)
Orbital Orthonormalization  ....       0.000 sec  (  0.0%)
DIIS solution               ....       0.798 sec  (  0.4%)
  MO trafo                  ....       0.000 sec  (  0.0 % of DIIS)
  Orb grad                  ....       0.000 sec  (  0.0 % of DIIS)
  Energy W gradient         ....       0.000 sec  (  0.0 % of DIIS)
  DIIS error                ....       0.020 sec  (  2.5 % of DIIS)
  DIIS work                 ....       0.686 sec  ( 85.9 % of DIIS)
  Form Q                    ....       0.000 sec  (  0.0 % of DIIS)
  Form QpQm                 ....       0.000 sec  (  0.0 % of DIIS)
  Exp/Cayley                ....       0.000 sec  (  0.0 % of DIIS)
  Orb update                ....       0.000 sec  (  0.0 % of DIIS)
  Wake-sleep                ....       0.020 sec  (  2.6 % of DIIS)
SOSCF solution              ....       0.367 sec  (  0.2%)
  MO trafo                  ....       0.134 sec  ( 36.6 % of SOSCF)
  Orb grad                  ....       0.004 sec  (  1.0 % of SOSCF)
  Rot update                ....       0.076 sec  ( 20.6 % of SOSCF)
  Step                      ....       0.154 sec  ( 41.8 % of SOSCF)
Grid generation             ....       0.260 sec  (  0.1%)
Finished LeanSCF after 214.5 sec

Maximum memory used throughout the entire LEANSCF-calculation: 54.3 MB
------------------   -----------------
gCP correction             0.015793919
------------------   -----------------

-------------------------   --------------------
FINAL SINGLE POINT ENERGY      -388.543150741744
-------------------------   --------------------


------------------------------------------------------------------------------
                              ORCA PROPERTY CALCULATIONS
------------------------------------------------------------------------------

GBWName                                 ... sp_gas.gbw
Number of atoms                         ...     23
Number of basis functions               ...    363
Max core memory                         ...   1024 MB

Electric properties:
Dipole moment                           ... YES
Quadrupole moment                       ...  NO
Static polarizability (Dipole/Dipole)   ...  NO
Static polarizability (Dipole/Quad.)    ...  NO
Static polarizability (Quad./Quad.)     ...  NO
Static polarizability (Velocity)        ...  NO

Atomic electric properties:
Dipole moment                           ...  NO
Quadrupole moment                       ...  NO
Static polarizability                   ...  NO

Choice of electric origin               ... Center of mass
Position of electric origin             ...     0.054165     0.056489    -0.320633

General magnetic properties:
Magnetizability                         ...  NO

EPR properties:
g-Tensor (aka g-matrix)                 ...  NO
Zero-Field splitting spin-orbit         ...  NO
Zero-field splitting spin-spin          ...  NO
Hyperfine couplings                     ...  NO (   0 nuclei)
Quadrupole couplings                    ...  NO (   0 nuclei)
Contact density                         ...  NO (   0 nuclei)

NMR properties:
Chemical shifts                         ...  NO (   0 nuclei)
Spin-rotation constants                 ...  NO (   0 nuclei)
Spin-spin couplings                     ...  NO (   0 nuclei,    0 pairs)

Choice of magnetic origin               ... GIAO
Position of magnetic origin             ...     0.000000     0.000000     0.000000

Properties with geometric perturbations:
SCF Hessian                             ...  NO
IR spectrum                             ...  NO
VCD spectrum                            ...  NO
X-ray spectroscopy properties:
SCF XES/XAS/RIXS spectra                ...  NO


-------------
DIPOLE MOMENT
-------------

Method             : SCF
Type of density    : Electron Density
Multiplicity       :   1
Irrep              :   0
Energy             :  -388.5589446602439239 Eh
Relativity type    : 
Basis              : AO
                                X                 Y                 Z
Electronic contribution:     -5.333347343      -3.082669319      -2.006136554
Nuclear contribution   :      5.851251694       3.949805096       2.658103048
                        -----------------------------------------
Total Dipole Moment    :      0.517904351       0.867135777       0.651966493
                        -----------------------------------------
Magnitude (a.u.)       :      1.202168740
Magnitude (Debye)      :      3.055670100



--------------------
Rotational spectrum 
--------------------
 
Rotational constants in cm-1:             0.102166             0.036444             0.029202 
Rotational constants in MHz :          3062.854506          1092.549952           875.451028 

Dipole components along the rotational axes: 
x,y,z [a.u.] :    -0.572863    -0.959432    -0.443315 
x,y,z [Debye]:    -1.456103    -2.438682    -1.126816 

 

Dipole moment calculation done in   0.0 sec 

Maximum memory used throughout the entire PROP-calculation: 33.4 MB

--------------------------------
SUGGESTED CITATIONS FOR THIS RUN
--------------------------------

Below you find a list of papers that are relevant to this ORCA run
We neither can nor want to force you to cite these papers, but we appreciate if you do
You receive ORCA, which is the product of decades of hard work by many enthusiastic individuals, for free
The only thing we kindly ask in return is that you cite our papers,
We deeply appreciate it, if you show your appreciation for ORCA by not just citing the generic ORCA reference.

Please note that relegating all ORCA citations to the supporting information does *not* help us.
SI sections are not indexed - citations you put there will not count into any citation statistics
But we need these citations in order to attract the funding resources that allow us to do what we are doing

Therefore, if you are a happy ORCA user, please consider citing a few of the papers listed below in the main body of your paper

In addition to the list printed below, the program has created the file sp_gas.bibtex that contains the list in bibtex format
You can import this file easily into all common literature databanks and citation aid programs


List of essential papers. We consider these as the minimum necessary citations

  1. Neese,F.
     Software update: the ORCA program system, version 5.0
     WIRES Comput. Molec. Sci., 2022 12(1)e1606
     doi.org/10.1002/wcms.1606

List of papers to cite with high priority. The work reported in these papers was absolutely
necessary for this run to complete.
Our perspective: the developers of density functionals and basis sets usually get cited in chemistry papers
Good! But without the algorithms to do something with them, the functionals or basis sets would not do anything.
Hence, in our opinion, the algorithm design and method developments papers are equally worthy of getting cited

  1. Neese,F.
     An improvement of the resolution of the identity approximation for the formation of the Coulomb matrix
     J. Comp. Chem., 2003 24(14)1740-1747
     doi.org/10.1002/jcc.10318
  2. Neese,F.; Wennmohs,F.; Hansen,A.; Becker,U.
     Efficient, approximate and parallel Hartree-Fock and hybrid DFT calculations. A 'chain-of-spheres' algorithm for the Hartree-Fock exchange
     Chem. Phys., 2009 356(1-3)98-109
     doi.org/10.1016/j.chemphys.2008.10.036
  3. Helmich-Paris,B.; de Souza,B.; Neese,F.; Izsák,R.
     An improved chain of spheres for exchange algorithm
     J. Chem. Phys., 2021 155 104109
     doi.org/doi: 10.1063/5.0058766.
  4. Neese,F.
     The SHARK Integral Generation and Digestion System
     J. Comp. Chem., 2022  1-16
     doi.org/10.1002/jcc.26942

List of suggested additional citations. These are papers that are important in the 'surrounding' of 
of this run, or papers that preceded the highly important papers. If you like your results we are grateful for a citation.

  1. Izsak,R.; Neese,F.
     An overlap fitted chain of spheres exchange method
     J. Chem. Phys., 2011 135 144105
     doi.org/10.1063/1.3646921
  2. Izsak,R.; Hansen,A.; Neese,F.
     The resolution of identity and chain of spheres approximations for the LPNO-CCSD singles Fock term
     Molec. Phys., 2012 110 2413-2417
     doi.org/10.1080/00268976.2012.687466
  3. Neese,F.
     The ORCA program system
     WIRES Comput. Molec. Sci., 2012 2(1)73-78
     doi.org/10.1002/wcms.81
  4. Izsak,R.; Neese,F.; Klopper,W.
     Robust fitting techniques in the chain of spheres approximation to the Fock exchange: The role of the complementary space
     J. Chem. Phys., 2013 139 
     doi.org/10.1063/1.4819264
  5. Neese,F.
     Software update: the ORCA program system, version 4.0
     WIRES Comput. Molec. Sci., 2018 8(1)1-6
     doi.org/10.1002/wcms.1327
  6. Neese,F.; Wennmohs,F.; Becker,U.; Riplinger,C.
     The ORCA quantum chemistry program package
     J. Chem. Phys., 2020 152 Art. No. L224108
     doi.org/10.1063/5.0004608

List of optional additional citations

  1. Neese,F.
     Approximate second-order SCF convergence for spin unrestricted wavefunctions
     Chem. Phys. Lett., 2000 325(1-3)93-98
     doi.org/10.1016/s0009-2614(00)00662-x

Timings for individual modules:

Sum of individual times          ...      218.493 sec (=   3.642 min)
Startup calculation              ...        3.354 sec (=   0.056 min)   1.5 %
SCF iterations                   ...      215.022 sec (=   3.584 min)  98.4 %
Property calculations            ...        0.117 sec (=   0.002 min)   0.1 %
                             ****ORCA TERMINATED NORMALLY****
TOTAL RUN TIME: 0 days 0 hours 3 minutes 39 seconds 399 msec
