      -----------------------------------------------------------      
     |                   =====================                   |     
     |                           x T B                           |     
     |                   =====================                   |     
     |                         S. Grimme                         |     
     |          Mulliken Center for Theoretical Chemistry        |     
     |                    University of Bonn                     |     
      -----------------------------------------------------------      

   * xtb version 6.7.1 (edcfbbe) compiled by 'albert@albert-system' on 2024-07-22

   xtb is free software: you can redistribute it and/or modify it under
   the terms of the GNU Lesser General Public License as published by
   the Free Software Foundation, either version 3 of the License, or
   (at your option) any later version.
   
   xtb is distributed in the hope that it will be useful,
   but WITHOUT ANY WARRANTY; without even the implied warranty of
   MERCHANTABILITY or FITNESS FOR A PARTICULAR PURPOSE.  See the
   GNU Lesser General Public License for more details.
   
   Cite this work as:
   * C. Bannwarth, E. Caldeweyher, S. Ehlert, A. Hansen, P. Pracht,
     J. Seibert, S. Spicher, S. Grimme, WIREs Comput. Mol. Sci., 2020, 11,
     e01493. DOI: 10.1002/wcms.1493
   
   for GFN2-xTB:
   * C. Bannwarth, S. Ehlert and S. Grimme., J. Chem. Theory Comput., 2019,
     15, 1652-1671. DOI: 10.1021/acs.jctc.8b01176
   for GFN1-xTB:
   * S. Grimme, C. Bannwarth, P. Shushkov, J. Chem. Theory Comput., 2017,
     13, 1989-2009. DOI: 10.1021/acs.jctc.7b00118
   for GFN0-xTB:
   * P. Pracht, E. Caldeweyher, S. Ehlert, S. Grimme, ChemRxiv, 2019, preprint.
     DOI: 10.26434/chemrxiv.8326202.v1
   for GFN-FF:
   * S. Spicher and S. Grimme, Angew. Chem. Int. Ed., 2020, 59, 15665-15673.
     DOI: 10.1002/anie.202004239
   
   for ALPB and GBSA implicit solvation:
   * S. Ehlert, M. Stahn, S. Spicher, S. Grimme, J. Chem. Theory Comput.,
     2021, 17, 4250-4261. DOI: 10.1021/acs.jctc.1c00471
   
   for ddCOSMO and CPCM-X implicit solvation:
   * M. Stahn, S. Ehlert, S. Grimme, J. Phys. Chem. A,
     2023, XX, XXXX-XXXX. DOI: 10.1021/acs.jpca.3c04382
   
   for DFT-D4:
   * E. Caldeweyher, C. Bannwarth and S. Grimme, J. Chem. Phys., 2017,
     147, 034112. DOI: 10.1063/1.4993215
   * E. Caldeweyher, S. Ehlert, A. Hansen, H. Neugebauer, S. Spicher,
     C. Bannwarth and S. Grimme, J. Chem. Phys., 2019, 150, 154122.
     DOI: 10.1063/1.5090222
   * E. Caldeweyher, J.-M. Mewes, S. Ehlert and S. Grimme, Phys. Chem. Chem. Phys.
     2020, 22, 8499-8512. DOI: 10.1039/D0CP00502A
   
   for sTDA-xTB:
   * S. Grimme and C. Bannwarth, J. Chem. Phys., 2016, 145, 054103.
     DOI: 10.1063/1.4959605
   
   in the mass-spec context:
   * V. Asgeirsson, C. Bauer and S. Grimme, Chem. Sci., 2017, 8, 4879.
     DOI: 10.1039/c7sc00601b
   * J. Koopman and S. Grimme, ACS Omega 2019, 4, 12, 15120-15133.
     DOI: 10.1021/acsomega.9b02011
   
   for metadynamics refer to:
   * S. Grimme, J. Chem. Theory Comput., 2019, 155, 2847-2862
     DOI: 10.1021/acs.jctc.9b00143
   
   for SPH calculations refer to:
   * S. Spicher and S. Grimme, J. Chem. Theory Comput., 2021, 17, 1701-1714
     DOI: 10.1021/acs.jctc.0c01306
   
   for ONIOM refer to:
   * C. Plett, A. Katbashev, S. Ehlert, S. Grimme, M. Bursch,
     Phys. Chem. Chem. Phys., 2023, 25, 17860-17868. DOI: 10.1039/D3CP02178E
   
   for DIPRO refer to:
   * J. Kohn, N. Gildemeister, S. Grimme, D. Fazzi, A. Hansen,
     J. Chem. Phys., 2023, just accepted.
   
   for PTB refer to:
   * S. Grimme, M. Mueller, A. Hansen, J. Chem. Phys., 2023, 158, 124111.
     DOI: 10.1063/5.0137838
   
   with help from (in alphabetical order)
   P. Atkinson, C. Bannwarth, F. Bohle, G. Brandenburg, E. Caldeweyher
   M. Checinski, S. Dohm, S. Ehlert, S. Ehrlich, I. Gerasimov, C. Hölzer
   A. Katbashev, J. Kohn, J. Koopman, C. Lavigne, S. Lehtola, F. März, M. Müller,
   F. Musil, H. Neugebauer, J. Pisarek, C. Plett, P. Pracht, F. Pultar,
   J. Seibert, P. Shushkov, S. Spicher, M. Stahn, M. Steiner, T. Strunk,
   J. Stückrath, T. Rose, and J. Unsleber
   
 * started run on 2025/04/03 at 22:17:29.177     
   ID    Z sym.   atoms
    1    6 C      1-3
    2   16 S      4
    3    1 H      5-12

           -------------------------------------------------
          |                Calculation Setup                |
           -------------------------------------------------

          program call               : /srv/scratch/z5358697/.xtb/bin/xtb xtb_rrho.coord --gfn2 --ohess vtight --chrg 0 --enso --norestart -I rrho-xcontrol-inp --parallel 1 --alpb water
          hostname                   : k146
          coordinate file            : xtb_rrho.coord
          omp threads                :                     1


           -------------------------------------------------
          |                 G F N 2 - x T B                 |
           -------------------------------------------------

        Reference                      10.1021/acs.jctc.8b01176
      * Hamiltonian:
        H0-scaling (s, p, d)           1.850000    2.230000    2.230000
        zeta-weighting                 0.500000
      * Dispersion:
        s8                             2.700000
        a1                             0.520000
        a2                             5.000000
        s9                             5.000000
      * Repulsion:
        kExp                           1.500000    1.000000
        rExp                           1.000000
      * Coulomb:
        alpha                          2.000000
        third order                    shell-resolved
        anisotropic                    true
        a3                             3.000000
        a5                             4.000000
        cn-shift                       1.200000
        cn-exp                         4.000000
        max-rad                        5.000000

      * Solvation model:               ALPB
        Solvent                        water
        Parameter file                 internal GFN2-xTB/ALPB
        Dielectric constant                8.0200E+01
        Reference state                gsolv [1 M gas/solution]
        Free energy shift                  1.0808E-03 Eh       6.7819E-01 kcal/mol
        Temperature                        2.9815E+02 K
        Density                            1.0000E+00 kg/L
        Solvent mass                       1.8000E+01 g/mol
        Interaction kernel             P16
        Born radius scaling (c1)           1.4744E+00
        Born radii integrator          GBOBC
        Born offset                        0.0000E+00 a0       0.0000E+00 AA
        H-bond correction              true
        Ion screening                  false
        Surface tension                    1.0000E-05 Eh       1.5569E+01 dyn/cm
        Grid points                               974 per atom

          ...................................................
          :                      SETUP                      :
          :.................................................:
          :  # basis functions                  30          :
          :  # atomic orbitals                  29          :
          :  # shells                           17          :
          :  # electrons                        26          :
          :  max. iterations                   250          :
          :  Hamiltonian                  GFN2-xTB          :
          :  restarted?                      false          :
          :  GBSA solvation                   true          :
          :  PC potential                    false          :
          :  electronic temp.          300.0000000     K    :
          :  accuracy                    1.0000000          :
          :  -> integral cutoff          0.2500000E+02      :
          :  -> integral neglect         0.1000000E-07      :
          :  -> SCF convergence          0.1000000E-05 Eh   :
          :  -> wf. convergence          0.1000000E-03 e    :
          :  Broyden damping             0.4000000          :
          :  net charge                          0          :
          :  unpaired electrons                  0          :
          ...................................................

 iter      E             dE          RMSdq      gap      omega  full diag
   1    -13.8708499 -0.138708E+02  0.397E+00    5.30       0.0  T
   2    -13.8956980 -0.248481E-01  0.229E+00    4.77       1.0  T
   3    -13.8965492 -0.851236E-03  0.737E-01    4.60       1.0  T
   4    -13.8970050 -0.455824E-03  0.284E-01    4.50       1.0  T
   5    -13.8970242 -0.191279E-04  0.124E-01    4.51       1.0  T
   6    -13.8970365 -0.123173E-04  0.442E-02    4.51       1.0  T
   7    -13.8970378 -0.129901E-05  0.207E-02    4.51       1.4  T
   8    -13.8970381 -0.348827E-06  0.590E-03    4.51       4.9  T
   9    -13.8970381 -0.231332E-07  0.119E-03    4.50      24.2  T
  10    -13.8970382 -0.159595E-08  0.502E-04    4.50      57.5  T
  11    -13.8970382 -0.475334E-09  0.103E-04    4.50     279.6  T

   *** convergence criteria satisfied after 11 iterations ***

         #    Occupation            Energy/Eh            Energy/eV
      -------------------------------------------------------------
         1        2.0000           -0.7075935             -19.2546
       ...           ...                  ...                  ...
         7        2.0000           -0.4994889             -13.5918
         8        2.0000           -0.4750657             -12.9272
         9        2.0000           -0.4624301             -12.5834
        10        2.0000           -0.4456099             -12.1257
        11        2.0000           -0.4418686             -12.0239
        12        2.0000           -0.4346495             -11.8274
        13        2.0000           -0.3671117              -9.9896 (HOMO)
        14                         -0.2015590              -5.4847 (LUMO)
        15                         -0.1237199              -3.3666
        16                         -0.0184797              -0.5029
        17                         -0.0083298              -0.2267
        18                          0.0093866               0.2554
       ...                                ...                  ...
        29                          0.5026948              13.6790
      -------------------------------------------------------------
                  HL-Gap            0.1655527 Eh            4.5049 eV
             Fermi-level           -0.2843353 Eh           -7.7372 eV

 SCC (total)                   0 d,  0 h,  0 min,  0.019 sec
 SCC setup                      ...        0 min,  0.001 sec (  3.418%)
 Dispersion                     ...        0 min,  0.000 sec (  0.228%)
 classical contributions        ...        0 min,  0.000 sec (  0.065%)
 integral evaluation            ...        0 min,  0.014 sec ( 76.896%)
 iterations                     ...        0 min,  0.002 sec ( 11.452%)
 molecular gradient             ...        0 min,  0.001 sec (  7.395%)
 printout                       ...        0 min,  0.000 sec (  0.479%)

         :::::::::::::::::::::::::::::::::::::::::::::::::::::
         ::                     SUMMARY                     ::
         :::::::::::::::::::::::::::::::::::::::::::::::::::::
         :: total energy             -13.741712384071 Eh    ::
         :: total w/o Gsasa/hb       -13.741833104375 Eh    ::
         :: gradient norm              0.017188914726 Eh/a0 ::
         :: HOMO-LUMO gap              4.504919064349 eV    ::
         ::.................................................::
         :: SCC energy               -13.897036776926 Eh    ::
         :: -> isotropic ES            0.009287993106 Eh    ::
         :: -> anisotropic ES          0.002251546647 Eh    ::
         :: -> anisotropic XC          0.009525379225 Eh    ::
         :: -> dispersion             -0.005824999829 Eh    ::
         :: -> Gsolv                  -0.002528754057 Eh    ::
         ::    -> Gelec               -0.002649474361 Eh    ::
         ::    -> Gsasa                0.001337285494 Eh    ::
         ::    -> Ghb                 -0.002297324888 Eh    ::
         ::    -> Gshift               0.001080759698 Eh    ::
         :: repulsion energy           0.155324392854 Eh    ::
         :: add. restraining           0.000000000000 Eh    ::
         :: total charge              -0.000000000000 e     ::
         :::::::::::::::::::::::::::::::::::::::::::::::::::::

      ----------------------------------------------------------- 
     |                   =====================                   |
     |                        A N C O P T                        |
     |                   =====================                   |
     |               Approximate Normal Coordinate               |
     |                Rational Function Optimizer                |
      ----------------------------------------------------------- 
      ----------------------------------------------------------- 
     |                   =====================                   |
     |                        A N C O P T                        |
     |                   =====================                   |
     |               Approximate Normal Coordinate               |
     |                Rational Function Optimizer                |
      ----------------------------------------------------------- 

          ...................................................
          :                      SETUP                      :
          :.................................................:
          :   optimization level         verytight          :
          :   max. optcycles                   240          :
          :   ANC micro-cycles                  20          :
          :   degrees of freedom                30          :
          :.................................................:
          :   RF solver                   davidson          :
          :   write xtbopt.log                true          :
          :   linear?                        false          :
          :   energy convergence         0.1000000E-06 Eh   :
          :   grad. convergence          0.2000000E-03 Eh/α :
          :   maxmium RF displ.          1.0000000          :
          :   Hlow (freq-cutoff)         0.1000000E-01      :
          :   Hmax (freq-cutoff)         5.0000000          :
          :   S6 in model hess.         20.0000000          :
          ...................................................

generating ANC from exact Hessian ...
Using Lindh-Hessian (1995)
 Shifting diagonal of input Hessian by   6.676842389614931E-003
 Lowest  eigenvalues of input Hessian
    0.000000    0.000000    0.000000    0.000000    0.000000    0.000000
    0.010000    0.013426    0.014111    0.017706    0.026336    0.030047
    0.044689    0.054482    0.058014    0.062630    0.063263    0.081191
 Highest eigenvalues
    1.008594    1.079194    1.082275    1.157949    1.197850    1.235329
 

........................................................................
.............................. CYCLE    1 ..............................
........................................................................

 iter      E             dE          RMSdq      gap      omega  full diag
   1    -13.8970382 -0.138970E+02  0.380E-05    4.50       0.0  T
   2    -13.8970382 -0.252420E-11  0.185E-05    4.50    1559.2  T
   3    -13.8970382 -0.220268E-12  0.120E-05    4.50    2408.9  T
     SCC iter.                  ...        0 min,  0.001 sec
     gradient                   ...        0 min,  0.002 sec
 * total energy  :   -13.7417124 Eh     change       -0.1017142E-10 Eh
   gradient norm :     0.0171884 Eh/α   predicted     0.0000000E+00 (-100.00%)
   displ. norm   :     0.1009861 α      lambda       -0.9225161E-03
   maximum displ.:     0.0813016 α      in ANC's #6, #15, #20, ...

........................................................................
.............................. CYCLE    2 ..............................
........................................................................

 iter      E             dE          RMSdq      gap      omega  full diag
   1    -13.9031839 -0.139032E+02  0.136E-01    4.54       0.0  T
   2    -13.9031864 -0.241866E-05  0.752E-02    4.54       1.0  T
   3    -13.9031870 -0.607508E-06  0.120E-02    4.54       2.4  T
   4    -13.9031870 -0.487543E-07  0.538E-03    4.54       5.4  T
   5    -13.9031870 -0.171592E-07  0.253E-03    4.54      11.4  T
   6    -13.9031870 -0.336038E-08  0.100E-03    4.54      28.8  T
   7    -13.9031870 -0.538469E-09  0.196E-04    4.54     147.5  T
   8    -13.9031870 -0.214264E-10  0.991E-05    4.54     291.4  T
     SCC iter.                  ...        0 min,  0.001 sec
     gradient                   ...        0 min,  0.001 sec
 * total energy  :   -13.7422636 Eh     change       -0.5512353E-03 Eh
   gradient norm :     0.0065798 Eh/α   predicted    -0.4659603E-03 ( -15.47%)
   displ. norm   :     0.0219432 α      lambda       -0.9147629E-04
   maximum displ.:     0.0120817 α      in ANC's #6, #13, #23, ...

........................................................................
.............................. CYCLE    3 ..............................
........................................................................

 iter      E             dE          RMSdq      gap      omega  full diag
   1    -13.9054672 -0.139055E+02  0.360E-02    4.56       0.0  T
   2    -13.9054676 -0.386397E-06  0.197E-02    4.56       1.5  T
   3    -13.9054676 -0.445777E-07  0.301E-03    4.55       9.6  T
   4    -13.9054676 -0.398697E-08  0.130E-03    4.55      22.2  T
   5    -13.9054676 -0.509143E-09  0.509E-04    4.55      56.7  T
   6    -13.9054676 -0.115337E-09  0.191E-04    4.56     151.1  T
     SCC iter.                  ...        0 min,  0.001 sec
     gradient                   ...        0 min,  0.002 sec
 * total energy  :   -13.7423130 Eh     change       -0.4934393E-04 Eh
   gradient norm :     0.0015630 Eh/α   predicted    -0.4576189E-04 (  -7.26%)
   displ. norm   :     0.0103758 α      lambda       -0.5815182E-05
   maximum displ.:     0.0065091 α      in ANC's #5, #6, #23, ...

........................................................................
.............................. CYCLE    4 ..............................
........................................................................

 iter      E             dE          RMSdq      gap      omega  full diag
   1    -13.9055451 -0.139055E+02  0.141E-02    4.56       0.0  T
   2    -13.9055451 -0.343310E-07  0.748E-03    4.56       3.9  T
   3    -13.9055451 -0.788332E-08  0.132E-03    4.56      21.8  T
   4    -13.9055451 -0.107992E-08  0.741E-04    4.56      39.0  T
   5    -13.9055451 -0.371696E-09  0.334E-04    4.56      86.4  T
     SCC iter.                  ...        0 min,  0.001 sec
     gradient                   ...        0 min,  0.001 sec
 * total energy  :   -13.7423160 Eh     change       -0.2997333E-05 Eh
   gradient norm :     0.0005309 Eh/α   predicted    -0.2906445E-05 (  -3.03%)
   displ. norm   :     0.0063636 α      lambda       -0.9729724E-06
   maximum displ.:     0.0049477 α      in ANC's #6, #5, #9, ...

........................................................................
.............................. CYCLE    5 ..............................
........................................................................

 iter      E             dE          RMSdq      gap      omega  full diag
   1    -13.9053686 -0.139054E+02  0.786E-03    4.56       0.0  T
   2    -13.9053686 -0.100476E-07  0.411E-03    4.56       7.0  T
   3    -13.9053686 -0.131307E-08  0.901E-04    4.56      32.0  T
   4    -13.9053686 -0.257911E-09  0.402E-04    4.56      71.8  T
     SCC iter.                  ...        0 min,  0.001 sec
     gradient                   ...        0 min,  0.002 sec
 * total energy  :   -13.7423165 Eh     change       -0.5185210E-06 Eh
   gradient norm :     0.0001770 Eh/α   predicted    -0.4881106E-06 (  -5.86%)
   displ. norm   :     0.0023312 α      lambda       -0.1482564E-06
   maximum displ.:     0.0017706 α      in ANC's #6, #3, #1, ...

........................................................................
.............................. CYCLE    6 ..............................
........................................................................

 iter      E             dE          RMSdq      gap      omega  full diag
   1    -13.9053814 -0.139054E+02  0.293E-03    4.56       0.0  T
   2    -13.9053814 -0.121468E-08  0.153E-03    4.56      18.8  T
   3    -13.9053814 -0.288393E-09  0.277E-04    4.56     104.2  T
   4    -13.9053814 -0.110774E-10  0.102E-04    4.56     282.3  T
     SCC iter.                  ...        0 min,  0.001 sec
     gradient                   ...        0 min,  0.001 sec
 * total energy  :   -13.7423166 Eh     change       -0.9854232E-07 Eh
   gradient norm :     0.0000809 Eh/α   predicted    -0.7543837E-07 ( -23.45%)
   displ. norm   :     0.0012455 α      lambda       -0.1595552E-07
   maximum displ.:     0.0008569 α      in ANC's #3, #1, #4, ...

   *** GEOMETRY OPTIMIZATION CONVERGED AFTER 6 ITERATIONS ***

------------------------------------------------------------------------
 total energy gain   :        -0.0006042 Eh       -0.3791 kcal/mol
 total RMSD          :         0.0341090 a0        0.0180 Å
 total power (kW/mol):        -0.2643850 (step)  -62.4680 (real)
------------------------------------------------------------------------

 ANCopt (total)                0 d,  0 h,  0 min,  0.025 sec
 optimizer setup                ...        0 min,  0.000 sec (  1.062%)
 model hessian                  ...        0 min,  0.001 sec (  4.586%)
 ANC generation                 ...        0 min,  0.000 sec (  0.555%)
 coordinate transformation      ...        0 min,  0.000 sec (  0.078%)
 single point calculation       ...        0 min,  0.019 sec ( 75.762%)
 optimization log               ...        0 min,  0.004 sec ( 15.953%)
 hessian update                 ...        0 min,  0.000 sec (  0.066%)
 rational function              ...        0 min,  0.000 sec (  1.034%)

================
 final structure:
================
$coord
       -4.73494277095295        0.07459878749745        0.03896363047218      C
       -2.05243541245384       -0.96742394114986       -0.07497283965475      C
       -0.11563834369706        1.14528593162570        0.10145918421963      C
        3.08886751381331       -0.19822177604682       -0.04454798497239      S
       -5.04269352206869        1.07854967334579        1.80534281305473      H
       -5.06907899618206        1.37411782566687       -1.51741276393196      H
       -6.09494585336401       -1.45825537310863       -0.08658624155427      H
       -1.77184958677890       -1.99604324615727       -1.84335769977284      H
       -1.74718907963972       -2.29568769049969        1.47631152095844      H
       -0.31004232530269        2.45771057522770       -1.47269402251416      H
       -0.28437420802580        2.15332783697231        1.88847502788310      H
        4.30326480742805        1.98655865896174        0.15087693683870      H
$end
 
 Bond Distances (Angstroems)
 ---------------------------
C1-C2=1.5241         C1-H5=1.0874         C1-H6=1.0874         C1-H7=1.0864         C2-C1=1.5241         C2-C3=1.5196         
C2-H8=1.0927         C2-H9=1.0927         C3-C2=1.5196         C3-S4=1.8404         C3-H10=1.0894        C3-H11=1.0894        
S4-C3=1.8404         S4-H12=1.3268        H5-C1=1.0874         H6-C1=1.0874         H7-C1=1.0864         H8-C2=1.0927         
H9-C2=1.0927         H10-C3=1.0894        H11-C3=1.0894        H12-S4=1.3268        
 C  H  Rav=1.0894 sigma=0.0024  Rmin=1.0864  Rmax=1.0927     7
 C  C  Rav=1.5218 sigma=0.0022  Rmin=1.5196  Rmax=1.5241     2
 S  H  Rav=1.3268 sigma=0.0000  Rmin=1.3268  Rmax=1.3268     1
 S  C  Rav=1.8404 sigma=0.0000  Rmin=1.8404  Rmax=1.8404     1
 
 selected bond angles (degree)
 --------------------
H5-C1-C2=110.50                H6-C1-C2=110.51                H6-C1-H5=108.53                H7-C1-C2=110.15                
H7-C1-H5=108.55                H7-C1-H6=108.55                C3-C2-C1=111.07                H8-C2-C1=109.92                
H8-C2-C3=109.11                H9-C2-C1=109.92                H9-C2-C3=109.11                H9-C2-H8=107.63                
S4-C3-C2=109.55                H10-C3-C2=111.00               H10-C3-S4=107.53               H11-C3-C2=111.00               
H11-C3-S4=107.53               H11-C3-H10=110.11              H12-S4-C3= 96.11               
 
 selected dihedral angles (degree)
 ---------------------------------
C3-C2-C1-H5=300.02            C3-C2-C1-H6= 60.15            C3-C2-C1-H7=180.08            H8-C2-C1-H5=179.16            
H8-C2-C1-H6=299.29            H8-C2-C1-H7= 59.23            H9-C2-C1-H5= 60.87            H9-C2-C1-H6=181.00            
H9-C2-C1-H7=300.94            S4-C3-C2-C1=180.02            S4-C3-C2-H8=301.35            S4-C3-C2-H9= 58.69            
H10-C3-C2-C1=298.62           H10-C3-C2-H8= 59.95           H10-C3-C2-H9=177.29           H11-C3-C2-C1= 61.42           
H11-C3-C2-H8=182.75           H11-C3-C2-H9=300.10           H12-S4-C3-C2=180.16           H12-S4-C3-H10= 59.43          
H12-S4-C3-H11=300.88          
           -------------------------------------------------
          |                Final Singlepoint                |
           -------------------------------------------------

          ...................................................
          :                      SETUP                      :
          :.................................................:
          :  # basis functions                  30          :
          :  # atomic orbitals                  29          :
          :  # shells                           17          :
          :  # electrons                        26          :
          :  max. iterations                   250          :
          :  Hamiltonian                  GFN2-xTB          :
          :  restarted?                      false          :
          :  GBSA solvation                   true          :
          :  PC potential                    false          :
          :  electronic temp.          300.0000000     K    :
          :  accuracy                    1.0000000          :
          :  -> integral cutoff          0.2500000E+02      :
          :  -> integral neglect         0.1000000E-07      :
          :  -> SCF convergence          0.1000000E-05 Eh   :
          :  -> wf. convergence          0.1000000E-03 e    :
          :  Broyden damping             0.4000000          :
          :  net charge                          0          :
          :  unpaired electrons                  0          :
          ...................................................

 iter      E             dE          RMSdq      gap      omega  full diag
   1    -13.9053814 -0.139054E+02  0.349E-05    4.56       0.0  T
   2    -13.9053814 -0.506262E-12  0.230E-05    4.56    1253.3  T
   3    -13.9053814 -0.728306E-13  0.816E-06    4.56    3538.0  T

   *** convergence criteria satisfied after 3 iterations ***

         #    Occupation            Energy/Eh            Energy/eV
      -------------------------------------------------------------
         1        2.0000           -0.7088011             -19.2875
       ...           ...                  ...                  ...
         7        2.0000           -0.5007574             -13.6263
         8        2.0000           -0.4766414             -12.9701
         9        2.0000           -0.4629254             -12.5968
        10        2.0000           -0.4456999             -12.1281
        11        2.0000           -0.4416374             -12.0176
        12        2.0000           -0.4352516             -11.8438
        13        2.0000           -0.3669904              -9.9863 (HOMO)
        14                         -0.1995289              -5.4295 (LUMO)
        15                         -0.1166735              -3.1748
        16                         -0.0185590              -0.5050
        17                         -0.0092850              -0.2527
        18                          0.0101837               0.2771
       ...                                ...                  ...
        29                          0.5388494              14.6628
      -------------------------------------------------------------
                  HL-Gap            0.1674615 Eh            4.5569 eV
             Fermi-level           -0.2832596 Eh           -7.7079 eV

 SCC (total)                   0 d,  0 h,  0 min,  0.003 sec
 SCC setup                      ...        0 min,  0.000 sec ( 14.777%)
 Dispersion                     ...        0 min,  0.000 sec (  0.735%)
 classical contributions        ...        0 min,  0.000 sec (  0.258%)
 integral evaluation            ...        0 min,  0.001 sec ( 20.279%)
 iterations                     ...        0 min,  0.001 sec ( 17.990%)
 molecular gradient             ...        0 min,  0.001 sec ( 42.937%)
 printout                       ...        0 min,  0.000 sec (  2.675%)

         :::::::::::::::::::::::::::::::::::::::::::::::::::::
         ::                     SUMMARY                     ::
         :::::::::::::::::::::::::::::::::::::::::::::::::::::
         :: total energy             -13.742316577680 Eh    ::
         :: total w/o Gsasa/hb       -13.742406441067 Eh    ::
         :: gradient norm              0.000080791128 Eh/a0 ::
         :: HOMO-LUMO gap              4.556858382927 eV    ::
         ::.................................................::
         :: SCC energy               -13.905379963999 Eh    ::
         :: -> isotropic ES            0.009476378387 Eh    ::
         :: -> anisotropic ES          0.001919561524 Eh    ::
         :: -> anisotropic XC          0.009472140691 Eh    ::
         :: -> dispersion             -0.005837209700 Eh    ::
         :: -> Gsolv                  -0.002590572524 Eh    ::
         ::    -> Gelec               -0.002680435910 Eh    ::
         ::    -> Gsasa                0.001335822628 Eh    ::
         ::    -> Ghb                 -0.002326718939 Eh    ::
         ::    -> Gshift               0.001080759698 Eh    ::
         :: repulsion energy           0.163063386319 Eh    ::
         :: add. restraining           0.000000000000 Eh    ::
         :: total charge              -0.000000000000 e     ::
         :::::::::::::::::::::::::::::::::::::::::::::::::::::

           ------------------------------------------------- 
          |                Numerical Hessian                |
           ------------------------------------------------- 
step length          :   0.00500
SCC accuracy         :   0.30000
Hessian scale factor :   1.00000
frozen atoms in %    :   0.00000    0
RMS gradient         :   0.00008
estimated CPU  time      0.00 min
estimated wall time      0.00 min

writing file <hessian>.

 projected vibrational frequencies (cm⁻¹)
eigval :       -0.00    -0.00    -0.00     0.00     0.00     0.00
eigval :       97.57   147.09   214.28   227.01   350.25   734.29
eigval :      778.68   814.69   874.26   951.92  1037.38  1086.86
eigval :     1128.43  1213.65  1224.07  1268.70  1336.70  1409.64
eigval :     1441.52  1492.68  1494.87  1497.01  2481.64  2961.66
eigval :     2979.43  2982.89  2987.60  3031.17  3035.73  3046.82
           -------------------------------------------------
          |                Property Printout                |
           -------------------------------------------------

    * Orbital Energies and Occupations

         #    Occupation            Energy/Eh            Energy/eV
      -------------------------------------------------------------
         1        2.0000           -0.7088010             -19.2875
         2        2.0000           -0.6282076             -17.0944
         3        2.0000           -0.5929236             -16.1343
         4        2.0000           -0.5663887             -15.4122
         5        2.0000           -0.5236012             -14.2479
         6        2.0000           -0.5033833             -13.6978
         7        2.0000           -0.5007574             -13.6263
         8        2.0000           -0.4766413             -12.9701
         9        2.0000           -0.4629254             -12.5968
        10        2.0000           -0.4456998             -12.1281
        11        2.0000           -0.4416374             -12.0176
        12        2.0000           -0.4352516             -11.8438
        13        2.0000           -0.3669903              -9.9863 (HOMO)
        14                         -0.1995288              -5.4295 (LUMO)
        15                         -0.1166735              -3.1748
        16                         -0.0185589              -0.5050
        17                         -0.0092849              -0.2527
        18                          0.0101837               0.2771
        19                          0.1027120               2.7949
        20                          0.1335806               3.6349
        21                          0.1402322               3.8159
        22                          0.1476829               4.0187
        23                          0.1757325               4.7819
        24                          0.2077845               5.6541
       ...                                ...                  ...
        29                          0.5388494              14.6628
      -------------------------------------------------------------
                  HL-Gap            0.1674615 Eh            4.5569 eV
             Fermi-level           -0.2832596 Eh           -7.7079 eV

     #   Z          covCN         q      C6AA      α(0)
     1   6 C        3.753    -0.115    22.766     6.804
     2   6 C        3.838    -0.051    21.454     6.589
     3   6 C        3.795     0.001    20.571     6.459
     4  16 S        1.929    -0.378   157.693    21.136
     5   1 H        0.925     0.043     2.403     2.424
     6   1 H        0.925     0.043     2.404     2.424
     7   1 H        0.925     0.048     2.342     2.393
     8   1 H        0.924     0.039     2.463     2.454
     9   1 H        0.924     0.039     2.463     2.454
    10   1 H        0.925     0.055     2.264     2.353
    11   1 H        0.925     0.055     2.263     2.353
    12   1 H        0.923     0.221     0.998     1.562

 Mol. C6AA /au·bohr⁶  :       1457.789682
 Mol. C8AA /au·bohr⁸  :      41314.839106
 Mol. α(0) /au        :         59.405632


Wiberg/Mayer (AO) data.
largest (>0.10) Wiberg bond orders for each atom

 ---------------------------------------------------------------------------
     #   Z sym  total        # sym  WBO       # sym  WBO       # sym  WBO
 ---------------------------------------------------------------------------
     1   6 C    3.995 --     2 C    1.014     6 H    0.987     5 H    0.987
                             7 H    0.985
     2   6 C    3.996 --     3 C    1.015     1 C    1.014     9 H    0.977
                             8 H    0.977
     3   6 C    3.970 --     2 C    1.015     4 S    0.983    10 H    0.977
                            11 H    0.977
     4  16 S    1.972 --     3 C    0.983    12 H    0.941
     5   1 H    0.998 --     1 C    0.987
     6   1 H    0.998 --     1 C    0.987
     7   1 H    0.998 --     1 C    0.985
     8   1 H    0.998 --     2 C    0.977
     9   1 H    0.998 --     2 C    0.977
    10   1 H    0.997 --     3 C    0.977
    11   1 H    0.997 --     3 C    0.977
    12   1 H    0.951 --     4 S    0.941
 ---------------------------------------------------------------------------

Topologies differ in total number of bonds
Writing topology from bond orders to xtbtopo.mol

molecular dipole:
                 x           y           z       tot (Debye)
 q only:       -0.469       0.677       0.066
   full:       -0.654       0.816       0.081       2.665
molecular quadrupole (traceless):
                xx          xy          yy          xz          yz          zz
 q only:        0.569       3.257       0.626       0.293       0.142      -1.194
  q+dip:       -2.410       4.400       1.703       0.436       0.059       0.707
   full:       -1.238       4.306       1.807       0.410       0.188      -0.569

           -------------------------------------------------
          |                Geometry Summary                 |
           -------------------------------------------------

      molecular mass/u    :       76.1605211
   center of mass at/Å    :       -0.0000731       0.0000194      -0.0016549
  moments of inertia/u·Å² :        0.2093343E+02   0.2120204E+03   0.2234616E+03
rotational constants/cm⁻¹ :        0.8052971E+00   0.7950950E-01   0.7543861E-01

 * 10 selected distances

     #   Z          #   Z                                           value/Å
     1   6 C        2   6 C                                       1.5240524 (max)
     2   6 C        3   6 C                                       1.5195640
     1   6 C        5   1 H                                       1.0874204
     1   6 C        6   1 H                                       1.0874180
     1   6 C        7   1 H                                       1.0864272 (min)
     2   6 C        8   1 H                                       1.0927185
     2   6 C        9   1 H                                       1.0927149
     3   6 C       10   1 H                                       1.0894126
     3   6 C       11   1 H                                       1.0893915
     4  16 S       12   1 H                                       1.3267707

 * 3 distinct bonds (by element types)

   Z      Z             #   av. dist./Å        max./Å        min./Å
   1 H    6 C           7     1.0893576     1.0927185     1.0864272
   6 C    6 C           2     1.5218082     1.5240524     1.5195640
   1 H   16 S           1     1.3267707     1.3267707     1.3267707

           -------------------------------------------------
          |               Frequency Printout                |
           -------------------------------------------------
 projected vibrational frequencies (cm⁻¹)
eigval :       -0.00    -0.00    -0.00     0.00     0.00     0.00
eigval :       97.57   147.09   214.28   227.01   350.25   734.29
eigval :      778.68   814.69   874.26   951.92  1037.38  1086.86
eigval :     1128.43  1213.65  1224.07  1268.70  1336.70  1409.64
eigval :     1441.52  1492.68  1494.87  1497.01  2481.64  2961.66
eigval :     2979.43  2982.89  2987.60  3031.17  3035.73  3046.82
 reduced masses (amu)
   1: 19.18   2: 22.02   3: 13.98   4: 22.69   5:  9.76   6: 11.93   7: 10.52   8:  1.92
   9: 12.89  10:  2.00  11: 15.98  12: 11.64  13:  1.97  14:  5.87  15:  2.86  16:  5.56
  17:  2.42  18:  8.79  19:  7.69  20:  4.73  21:  3.18  22:  2.05  23:  4.57  24:  3.17
  25:  2.05  26:  1.77  27:  1.52  28:  1.72  29:  1.96  30:  1.95  31:  1.46  32:  2.06
  33:  1.48  34:  1.96  35:  1.74  36:  1.46
 IR intensities (km·mol⁻¹)
   1:  3.27   2:  1.86   3:  0.95   4:  0.72   5:  0.85   6:  3.18   7:  3.55   8: 54.99
   9:  5.73  10:  0.21  11:  0.08  12:  3.47  13:  5.35  14:  7.83  15:  3.24  16:  3.73
  17:  0.07  18:  0.27  19:  4.70  20:  0.44  21: 23.30  22:  0.64  23:  0.88  24:  0.41
  25:  2.39  26:  1.23  27:  3.08  28:  0.72  29: 75.35  30: 30.06  31: 27.15  32: 48.37
  33: 35.44  34: 68.71  35: 53.39  36: 38.65
 Raman intensities (Ä⁴*amu⁻¹)
   1:  0.00   2:  0.00   3:  0.00   4:  0.00   5:  0.00   6:  0.00   7:  0.00   8:  0.00
   9:  0.00  10:  0.00  11:  0.00  12:  0.00  13:  0.00  14:  0.00  15:  0.00  16:  0.00
  17:  0.00  18:  0.00  19:  0.00  20:  0.00  21:  0.00  22:  0.00  23:  0.00  24:  0.00
  25:  0.00  26:  0.00  27:  0.00  28:  0.00  29:  0.00  30:  0.00  31:  0.00  32:  0.00
  33:  0.00  34:  0.00  35:  0.00  36:  0.00
 output can be read by thermo (or use thermo option).
 writing <g98.out> molden fake output.
 recommended (thermochemical) frequency scaling factor: 1.0
           -------------------------------------------------
          |             Thermodynamic Functions             |
           -------------------------------------------------

Molecule has the following symmetry elements: (sigma) 
It seems to be the Cs point group
cs  symmetry found (for desy threshold:  0.10E+00) used in thermo

          ...................................................
          :                      SETUP                      :
          :.................................................:
          :  # frequencies                          30      :
          :  # imaginary freq.                       0      :
          :  linear?                             false      :
          :  only rotor calc.                    false      :
          :  symmetry                               cs      :
          :  rotational number                       1      :
          :  scaling factor                  1.0000000      :
          :  rotor cutoff                    0.0000000 cm⁻¹ :
          :  imag. cutoff                 -100.0000000 cm⁻¹ :
          :.................................................:

    mode    ω/cm⁻¹     T·S(HO)/kcal·mol⁻¹    T·S(FR)/kcal·mol⁻¹   T·S(vib)
   ------------------------------------------------------------------------
       1     97.57    -1.04423 (100.00%)    -0.85817 (  0.00%)    -1.04423
       2    147.09    -0.80786 (100.00%)    -0.73668 (  0.00%)    -0.80786
       3    214.28    -0.59837 (100.00%)    -0.62529 (  0.00%)    -0.59837
       4    227.01    -0.56723 (100.00%)    -0.60821 (  0.00%)    -0.56723
   ------------------------------------------------------------------------

   temp. (K)  partition function   enthalpy   heat capacity  entropy
                                   cal/mol     cal/K/mol   cal/K/mol   J/K/mol
 298.15  VIB   17.0                 2090.864     14.091     12.645
         ROT  0.761E+05              888.752      2.981     25.317
         INT  0.129E+07             2979.616     17.072     37.962
         TR   0.643E+27             1481.254      4.968     38.889
         TOT                        4460.8703    22.0405    76.8507   321.5432

       T/K    H(0)-H(T)+PV         H(T)/Eh          T*S/Eh         G(T)/Eh
   ------------------------------------------------------------------------
    298.15    0.710885E-02    0.108097E+00    0.365142E-01    0.715823E-01
   ------------------------------------------------------------------------

         :::::::::::::::::::::::::::::::::::::::::::::::::::::
         ::                  THERMODYNAMIC                  ::
         :::::::::::::::::::::::::::::::::::::::::::::::::::::
         :: total free energy         -13.670734238859 Eh   ::
         ::.................................................::
         :: total energy              -13.742316577706 Eh   ::
         :: zero point energy           0.100987720215 Eh   ::
         :: G(RRHO) w/o ZPVE           -0.029405381367 Eh   ::
         :: G(RRHO) contrib.            0.071582338847 Eh   ::
         :::::::::::::::::::::::::::::::::::::::::::::::::::::

optimized geometry written to: xtbopt.coord


           -------------------------------------------------
          | TOTAL ENERGY              -13.742316577706 Eh   |
          | TOTAL ENTHALPY            -13.634220008145 Eh   |
          | TOTAL FREE ENERGY         -13.670734238859 Eh   |
          | GRADIENT NORM               0.000080785674 Eh/α |
          | HOMO-LUMO GAP               4.556859122071 eV   |
           -------------------------------------------------

------------------------------------------------------------------------
 * finished run on 2025/04/03 at 22:17:29.535     
------------------------------------------------------------------------
 total:
 * wall-time:     0 d,  0 h,  0 min,  0.358 sec
 *  cpu-time:     0 d,  0 h,  0 min,  0.276 sec
 * ratio c/w:     0.773 speedup
 SCF:
 * wall-time:     0 d,  0 h,  0 min,  0.019 sec
 *  cpu-time:     0 d,  0 h,  0 min,  0.006 sec
 * ratio c/w:     0.321 speedup
 ANC optimizer:
 * wall-time:     0 d,  0 h,  0 min,  0.039 sec
 *  cpu-time:     0 d,  0 h,  0 min,  0.026 sec
 * ratio c/w:     0.654 speedup
 analytical hessian:
 * wall-time:     0 d,  0 h,  0 min,  0.245 sec
 *  cpu-time:     0 d,  0 h,  0 min,  0.236 sec
 * ratio c/w:     0.967 speedup

