11
 energy: -268.358323417561 gnorm: 0.002005290136 xtb: 6.7.1 (edcfbbe)
C            1.80995543604753       -0.50193203174735        0.51158160831926
C            0.83504762509481       -0.33165263170090       -0.66447807838448
C           -0.47651788261752        0.22221517342865       -0.18353637919842
O           -0.83279733493932        1.38004522616625       -0.30730359099412
O           -1.29733239704334       -0.64058207848888        0.47173919167599
H            1.43633369596214       -1.23328730197729        1.23492782854318
H            2.77574220596841       -0.85245577768274        0.13832832539502
H            1.96540459607315        0.45075077448109        1.02754300933933
H            1.24184719724867        0.36509606456091       -1.40017353794261
H            0.66325735139222       -1.29799875289107       -1.15154602613435
H           -0.90768318752631       -1.52866119919727        0.49460115862472
11
 energy: -268.358329568022 gnorm: 0.000789819528 xtb: 6.7.1 (edcfbbe)
C            1.81004824693532       -0.50209750176483        0.51161510466411
C            0.83518469302268       -0.33118011529405       -0.66387833146788
C           -0.47706870668818        0.22110772885972       -0.18480500100600
O           -0.83389993818063        1.37831492510145       -0.30852460757336
O           -1.29742191172525       -0.63965139977239        0.47219311255482
H            1.43597715249102       -1.23260206632637        1.23484143478082
H            2.77479330088405       -0.85412630918410        0.13804417257730
H            1.96695097256956        0.44986428328329        1.02724173047838
H            1.24121193554054        0.36677611108750       -1.39861742846637
H            0.66504835503969       -1.29697327721288       -1.15237030204439
H           -0.90756678517719       -1.52789490974733        0.49594361920288
11
 energy: -268.358330678326 gnorm: 0.001579366081 xtb: 6.7.1 (edcfbbe)
C            1.81035691431233       -0.50258449808511        0.51178785717130
C            0.83557805478476       -0.32986354342666       -0.66271357241552
C           -0.47668283312506        0.22022839491143       -0.18374147723755
O           -0.83749085121296        1.37536877871279       -0.31296411558098
O           -1.29818344119883       -0.63922168314262        0.47142498876889
H            1.43491217175731       -1.23117115471309        1.23550738876154
H            2.77288099512597       -0.85849076850627        0.13715198826084
H            1.97109872358989        0.44856715766469        1.02638954479447
H            1.24001284224552        0.37041332585764       -1.39588923578470
H            0.66778531914110       -1.29459768704794       -1.15400034667111
H           -0.90701057952863       -1.52711084459629        0.49873047513605
11
 energy: -268.358334341751 gnorm: 0.000683583843 xtb: 6.7.1 (edcfbbe)
C            1.81012960204095       -0.50312848511826        0.51183941727082
C            0.83566523014441       -0.32897978888835       -0.66286320050932
C           -0.47794284544151        0.21970094036367       -0.18562351696686
O           -0.83920723635710        1.37514671401821       -0.31464917304054
O           -1.29709062173613       -0.63957607194966        0.47279136023017
H            1.43341260072320       -1.23094179698040        1.23603571769159
H            2.77225679629569       -0.86087730553877        0.13747114319024
H            1.97256873832109        0.44816630376234        1.02614068327121
H            1.24058785866209        0.37234351459742       -1.39487771776165
H            0.66839640259197       -1.29318618987949       -1.15551624456940
H           -0.90551919872822       -1.52713034701784        0.50093499943782
11
 energy: -268.358334341751 gnorm: 0.000683583843 xtb: 6.7.1 (edcfbbe)
C            1.81012960204095       -0.50312848511826        0.51183941727082
C            0.83566523014441       -0.32897978888835       -0.66286320050932
C           -0.47794284544151        0.21970094036367       -0.18562351696686
O           -0.83920723635710        1.37514671401821       -0.31464917304054
O           -1.29709062173613       -0.63957607194966        0.47279136023017
H            1.43341260072320       -1.23094179698040        1.23603571769159
H            2.77225679629569       -0.86087730553877        0.13747114319024
H            1.97256873832109        0.44816630376234        1.02614068327121
H            1.24058785866209        0.37234351459742       -1.39487771776165
H            0.66839640259197       -1.29318618987949       -1.15551624456940
H           -0.90551919872822       -1.52713034701784        0.50093499943782
