      -----------------------------------------------------------      
     |                   =====================                   |     
     |                           x T B                           |     
     |                   =====================                   |     
     |                         S. Grimme                         |     
     |          Mulliken Center for Theoretical Chemistry        |     
     |                    University of Bonn                     |     
      -----------------------------------------------------------      

   * xtb version 6.7.1 (edcfbbe) compiled by 'albert@albert-system' on 2024-07-22

   xtb is free software: you can redistribute it and/or modify it under
   the terms of the GNU Lesser General Public License as published by
   the Free Software Foundation, either version 3 of the License, or
   (at your option) any later version.
   
   xtb is distributed in the hope that it will be useful,
   but WITHOUT ANY WARRANTY; without even the implied warranty of
   MERCHANTABILITY or FITNESS FOR A PARTICULAR PURPOSE.  See the
   GNU Lesser General Public License for more details.
   
   Cite this work as:
   * C. Bannwarth, E. Caldeweyher, S. Ehlert, A. Hansen, P. Pracht,
     J. Seibert, S. Spicher, S. Grimme, WIREs Comput. Mol. Sci., 2020, 11,
     e01493. DOI: 10.1002/wcms.1493
   
   for GFN2-xTB:
   * C. Bannwarth, S. Ehlert and S. Grimme., J. Chem. Theory Comput., 2019,
     15, 1652-1671. DOI: 10.1021/acs.jctc.8b01176
   for GFN1-xTB:
   * S. Grimme, C. Bannwarth, P. Shushkov, J. Chem. Theory Comput., 2017,
     13, 1989-2009. DOI: 10.1021/acs.jctc.7b00118
   for GFN0-xTB:
   * P. Pracht, E. Caldeweyher, S. Ehlert, S. Grimme, ChemRxiv, 2019, preprint.
     DOI: 10.26434/chemrxiv.8326202.v1
   for GFN-FF:
   * S. Spicher and S. Grimme, Angew. Chem. Int. Ed., 2020, 59, 15665-15673.
     DOI: 10.1002/anie.202004239
   
   for ALPB and GBSA implicit solvation:
   * S. Ehlert, M. Stahn, S. Spicher, S. Grimme, J. Chem. Theory Comput.,
     2021, 17, 4250-4261. DOI: 10.1021/acs.jctc.1c00471
   
   for ddCOSMO and CPCM-X implicit solvation:
   * M. Stahn, S. Ehlert, S. Grimme, J. Phys. Chem. A,
     2023, XX, XXXX-XXXX. DOI: 10.1021/acs.jpca.3c04382
   
   for DFT-D4:
   * E. Caldeweyher, C. Bannwarth and S. Grimme, J. Chem. Phys., 2017,
     147, 034112. DOI: 10.1063/1.4993215
   * E. Caldeweyher, S. Ehlert, A. Hansen, H. Neugebauer, S. Spicher,
     C. Bannwarth and S. Grimme, J. Chem. Phys., 2019, 150, 154122.
     DOI: 10.1063/1.5090222
   * E. Caldeweyher, J.-M. Mewes, S. Ehlert and S. Grimme, Phys. Chem. Chem. Phys.
     2020, 22, 8499-8512. DOI: 10.1039/D0CP00502A
   
   for sTDA-xTB:
   * S. Grimme and C. Bannwarth, J. Chem. Phys., 2016, 145, 054103.
     DOI: 10.1063/1.4959605
   
   in the mass-spec context:
   * V. Asgeirsson, C. Bauer and S. Grimme, Chem. Sci., 2017, 8, 4879.
     DOI: 10.1039/c7sc00601b
   * J. Koopman and S. Grimme, ACS Omega 2019, 4, 12, 15120-15133.
     DOI: 10.1021/acsomega.9b02011
   
   for metadynamics refer to:
   * S. Grimme, J. Chem. Theory Comput., 2019, 155, 2847-2862
     DOI: 10.1021/acs.jctc.9b00143
   
   for SPH calculations refer to:
   * S. Spicher and S. Grimme, J. Chem. Theory Comput., 2021, 17, 1701-1714
     DOI: 10.1021/acs.jctc.0c01306
   
   for ONIOM refer to:
   * C. Plett, A. Katbashev, S. Ehlert, S. Grimme, M. Bursch,
     Phys. Chem. Chem. Phys., 2023, 25, 17860-17868. DOI: 10.1039/D3CP02178E
   
   for DIPRO refer to:
   * J. Kohn, N. Gildemeister, S. Grimme, D. Fazzi, A. Hansen,
     J. Chem. Phys., 2023, just accepted.
   
   for PTB refer to:
   * S. Grimme, M. Mueller, A. Hansen, J. Chem. Phys., 2023, 158, 124111.
     DOI: 10.1063/5.0137838
   
   with help from (in alphabetical order)
   P. Atkinson, C. Bannwarth, F. Bohle, G. Brandenburg, E. Caldeweyher
   M. Checinski, S. Dohm, S. Ehlert, S. Ehrlich, I. Gerasimov, C. Hölzer
   A. Katbashev, J. Kohn, J. Koopman, C. Lavigne, S. Lehtola, F. März, M. Müller,
   F. Musil, H. Neugebauer, J. Pisarek, C. Plett, P. Pracht, F. Pultar,
   J. Seibert, P. Shushkov, S. Spicher, M. Stahn, M. Steiner, T. Strunk,
   J. Stückrath, T. Rose, and J. Unsleber
   
 * started run on 2025/04/06 at 18:00:42.972     
   ID    Z sym.   atoms
    1    6 C      1, 2, 4, 6, 8, 10
    2    1 H      3, 5, 7, 9, 11, 18-24
    3    8 O      12-17

           -------------------------------------------------
          |                Calculation Setup                |
           -------------------------------------------------

          program call               : /srv/scratch/z5358697/.xtb/bin/xtb solv.coord --gfn2 --sp --chrg 0 --norestart --parallel 1 --alpb water reference -I xtb_sp-xcontrol-inp
          hostname                   : k155
          coordinate file            : solv.coord
          omp threads                :                     1


           -------------------------------------------------
          |                 G F N 2 - x T B                 |
           -------------------------------------------------

        Reference                      10.1021/acs.jctc.8b01176
      * Hamiltonian:
        H0-scaling (s, p, d)           1.850000    2.230000    2.230000
        zeta-weighting                 0.500000
      * Dispersion:
        s8                             2.700000
        a1                             0.520000
        a2                             5.000000
        s9                             5.000000
      * Repulsion:
        kExp                           1.500000    1.000000
        rExp                           1.000000
      * Coulomb:
        alpha                          2.000000
        third order                    shell-resolved
        anisotropic                    true
        a3                             3.000000
        a5                             4.000000
        cn-shift                       1.200000
        cn-exp                         4.000000
        max-rad                        5.000000

      * Solvation model:               ALPB
        Solvent                        water
        Parameter file                 internal GFN2-xTB/ALPB
        Dielectric constant                8.0200E+01
        Reference state                gsolv=reference [X=1]
        Free energy shift                  2.8945E-03 Eh       1.8164E+00 kcal/mol
        Temperature                        2.9815E+02 K
        Density                            1.0000E+00 kg/L
        Solvent mass                       1.8000E+01 g/mol
        Interaction kernel             P16
        Born radius scaling (c1)           1.4744E+00
        Born radii integrator          GBOBC
        Born offset                        0.0000E+00 a0       0.0000E+00 AA
        H-bond correction              true
        Ion screening                  false
        Surface tension                    1.0000E-05 Eh       1.5569E+01 dyn/cm
        Grid points                               974 per atom

          ...................................................
          :                      SETUP                      :
          :.................................................:
          :  # basis functions                  60          :
          :  # atomic orbitals                  60          :
          :  # shells                           36          :
          :  # electrons                        72          :
          :  max. iterations                   250          :
          :  Hamiltonian                  GFN2-xTB          :
          :  restarted?                      false          :
          :  GBSA solvation                   true          :
          :  PC potential                    false          :
          :  electronic temp.          300.0000000     K    :
          :  accuracy                    1.0000000          :
          :  -> integral cutoff          0.2500000E+02      :
          :  -> integral neglect         0.1000000E-07      :
          :  -> SCF convergence          0.1000000E-05 Eh   :
          :  -> wf. convergence          0.1000000E-03 e    :
          :  Broyden damping             0.4000000          :
          :  net charge                          0          :
          :  unpaired electrons                  0          :
          ...................................................

 iter      E             dE          RMSdq      gap      omega  full diag
   1    -43.6448143 -0.436448E+02  0.499E+00   10.53       0.0  T
   2    -43.6854687 -0.406544E-01  0.268E+00   10.41       1.0  T
   3    -43.6878707 -0.240206E-02  0.654E-01   10.48       1.0  T
   4    -43.6883341 -0.463324E-03  0.196E-01   10.49       1.0  T
   5    -43.6884056 -0.715361E-04  0.836E-02   10.51       1.0  T
   6    -43.6884265 -0.208884E-04  0.258E-02   10.51       1.0  T
   7    -43.6884280 -0.147452E-05  0.826E-03   10.51       2.5  T
   8    -43.6884283 -0.354559E-06  0.316E-03   10.51       6.5  T
   9    -43.6884283 -0.270041E-07  0.125E-03   10.51      16.3  T
  10    -43.6884283 -0.637890E-08  0.433E-04   10.51      47.2  T
  11    -43.6884283 -0.653330E-09  0.104E-04   10.51     196.8  T

   *** convergence criteria satisfied after 11 iterations ***

         #    Occupation            Energy/Eh            Energy/eV
      -------------------------------------------------------------
         1        2.0000           -0.7324485             -19.9309
       ...           ...                  ...                  ...
        30        2.0000           -0.4655953             -12.6695
        31        2.0000           -0.4508348             -12.2678
        32        2.0000           -0.4388073             -11.9406
        33        2.0000           -0.4337589             -11.8032
        34        2.0000           -0.4170945             -11.3497
        35        2.0000           -0.4096492             -11.1471
        36        2.0000           -0.4079143             -11.0999 (HOMO)
        37                         -0.0215887              -0.5875 (LUMO)
        38                          0.0002664               0.0072
        39                          0.0164499               0.4476
        40                          0.0378205               1.0291
        41                          0.0438218               1.1925
       ...                                ...                  ...
        60                          0.2799328               7.6174
      -------------------------------------------------------------
                  HL-Gap            0.3863257 Eh           10.5125 eV
             Fermi-level           -0.2147515 Eh           -5.8437 eV

 SCC (total)                   0 d,  0 h,  0 min,  0.023 sec
 SCC setup                      ...        0 min,  0.001 sec (  6.608%)
 Dispersion                     ...        0 min,  0.000 sec (  0.630%)
 classical contributions        ...        0 min,  0.000 sec (  0.119%)
 integral evaluation            ...        0 min,  0.003 sec ( 11.573%)
 iterations                     ...        0 min,  0.010 sec ( 45.132%)
 molecular gradient             ...        0 min,  0.008 sec ( 35.236%)
 printout                       ...        0 min,  0.000 sec (  0.636%)

         :::::::::::::::::::::::::::::::::::::::::::::::::::::
         ::                     SUMMARY                     ::
         :::::::::::::::::::::::::::::::::::::::::::::::::::::
         :: total energy             -43.384804412102 Eh    ::
         :: total w/o Gsasa/hb       -43.364769016842 Eh    ::
         :: gradient norm              0.000188196194 Eh/a0 ::
         :: HOMO-LUMO gap             10.512456314548 eV    ::
         ::.................................................::
         :: SCC energy               -43.688266792426 Eh    ::
         :: -> isotropic ES            0.171645207282 Eh    ::
         :: -> anisotropic ES         -0.006828270737 Eh    ::
         :: -> anisotropic XC         -0.010388695178 Eh    ::
         :: -> dispersion             -0.018998280942 Eh    ::
         :: -> Gsolv                  -0.039108077071 Eh    ::
         ::    -> Gelec               -0.019072681811 Eh    ::
         ::    -> Gsasa                0.004936717373 Eh    ::
         ::    -> Ghb                 -0.027866661793 Eh    ::
         ::    -> Gshift               0.002894549160 Eh    ::
         :: repulsion energy           0.303462380324 Eh    ::
         :: add. restraining           0.000000000000 Eh    ::
         :: total charge              -0.000000000000 e     ::
         :::::::::::::::::::::::::::::::::::::::::::::::::::::

           -------------------------------------------------
          |                Property Printout                |
           -------------------------------------------------

    * Orbital Energies and Occupations

         #    Occupation            Energy/Eh            Energy/eV
      -------------------------------------------------------------
         1        2.0000           -0.7324485             -19.9309
       ...           ...                  ...                  ...
        24        2.0000           -0.5121772             -13.9371
        25        2.0000           -0.5086326             -13.8406
        26        2.0000           -0.4997427             -13.5987
        27        2.0000           -0.4947287             -13.4623
        28        2.0000           -0.4868163             -13.2469
        29        2.0000           -0.4718800             -12.8405
        30        2.0000           -0.4655953             -12.6695
        31        2.0000           -0.4508348             -12.2678
        32        2.0000           -0.4388073             -11.9406
        33        2.0000           -0.4337589             -11.8032
        34        2.0000           -0.4170945             -11.3497
        35        2.0000           -0.4096492             -11.1471
        36        2.0000           -0.4079143             -11.0999 (HOMO)
        37                         -0.0215887              -0.5875 (LUMO)
        38                          0.0002664               0.0072
        39                          0.0164499               0.4476
        40                          0.0378205               1.0291
        41                          0.0438218               1.1925
        42                          0.0677613               1.8439
        43                          0.0771019               2.0980
        44                          0.0808025               2.1987
        45                          0.1091690               2.9706
        46                          0.1214171               3.3039
        47                          0.1222738               3.3272
       ...                                ...                  ...
        60                          0.2799328               7.6174
      -------------------------------------------------------------
                  HL-Gap            0.3863257 Eh           10.5125 eV
             Fermi-level           -0.2147515 Eh           -5.8437 eV

     #   Z          covCN         q      C6AA      α(0)
     1   6 C        3.676     0.073    19.581     6.340
     2   6 C        3.752     0.105    18.912     6.202
     3   1 H        0.923     0.032     2.560     2.502
     4   6 C        3.728     0.091    19.173     6.251
     5   1 H        0.923     0.043     2.408     2.427
     6   6 C        3.730     0.093    19.129     6.243
     7   1 H        0.924     0.054     2.275     2.359
     8   6 C        3.725     0.084    19.291     6.271
     9   1 H        0.923     0.031     2.578     2.511
    10   6 C        3.629     0.236    17.292     5.988
    11   1 H        0.922     0.027     2.635     2.538
    12   8 O        1.702    -0.353    19.940     6.029
    13   8 O        1.657    -0.490    22.680     6.429
    14   8 O        1.656    -0.498    22.852     6.453
    15   8 O        1.655    -0.492    22.716     6.434
    16   8 O        1.656    -0.501    22.912     6.462
    17   8 O        1.655    -0.509    23.079     6.485
    18   1 H        0.924     0.055     2.264     2.353
    19   1 H        0.924     0.050     2.319     2.381
    20   1 H        0.804     0.392     0.499     1.110
    21   1 H        0.804     0.368     0.547     1.162
    22   1 H        0.804     0.360     0.566     1.182
    23   1 H        0.804     0.371     0.542     1.157
    24   1 H        0.805     0.380     0.523     1.136

 Mol. C6AA /au·bohr⁶  :       4738.578103
 Mol. C8AA /au·bohr⁸  :     100894.857676
 Mol. α(0) /au        :         98.404756


Wiberg/Mayer (AO) data.
largest (>0.10) Wiberg bond orders for each atom

 ---------------------------------------------------------------------------
     #   Z sym  total        # sym  WBO       # sym  WBO       # sym  WBO
 ---------------------------------------------------------------------------
     1   6 C    3.960 --    17 O    1.005     2 C    0.986    19 H    0.968
                            18 H    0.966
     2   6 C    3.944 --     1 C    0.986     4 C    0.969    12 O    0.961
                             3 H    0.957
     3   1 H    0.999 --     2 C    0.957
     4   6 C    3.961 --    16 O    1.001     2 C    0.969     6 C    0.961
                             5 H    0.954
     5   1 H    0.998 --     4 C    0.954
     6   6 C    3.960 --    15 O    1.000     8 C    0.973     4 C    0.961
                             7 H    0.958
     7   1 H    0.997 --     6 C    0.958
     8   6 C    3.962 --    14 O    1.003     6 C    0.973     9 H    0.954
                            10 C    0.942
     9   1 H    0.999 --     8 C    0.954
    10   6 C    3.930 --    13 O    1.017    12 O    0.966    11 H    0.948
                             8 C    0.942
    11   1 H    0.999 --    10 C    0.948
    12   8 O    2.068 --    10 C    0.966     2 C    0.961
    13   8 O    1.941 --    10 C    1.017    20 H    0.827
    14   8 O    1.920 --     8 C    1.003    21 H    0.845
    15   8 O    1.939 --     6 C    1.000    22 H    0.854
    16   8 O    1.916 --     4 C    1.001    23 H    0.843
    17   8 O    1.904 --     1 C    1.005    24 H    0.843
    18   1 H    0.996 --     1 C    0.966
    19   1 H    0.997 --     1 C    0.968
    20   1 H    0.846 --    13 O    0.827
    21   1 H    0.864 --    14 O    0.845
    22   1 H    0.871 --    15 O    0.854
    23   1 H    0.863 --    16 O    0.843
    24   1 H    0.856 --    17 O    0.843
 ---------------------------------------------------------------------------

Topologies differ in total number of bonds
Writing topology from bond orders to xtbtopo.mol

molecular dipole:
                 x           y           z       tot (Debye)
 q only:       -0.743      -0.512      -0.860
   full:       -0.853      -0.671      -0.971       3.701
molecular quadrupole (traceless):
                xx          xy          yy          xz          yz          zz
 q only:        3.559      -0.216      -3.373      -2.484      -0.274      -0.186
  q+dip:        1.197       0.713      -5.301      -2.483      -1.491       4.104
   full:        2.057       0.439      -4.977      -2.796      -1.151       2.920


           -------------------------------------------------
          | TOTAL ENERGY              -43.384804412102 Eh   |
          | GRADIENT NORM               0.000188196194 Eh/α |
          | HOMO-LUMO GAP              10.512456314548 eV   |
           -------------------------------------------------

------------------------------------------------------------------------
 * finished run on 2025/04/06 at 18:00:43.038     
------------------------------------------------------------------------
 total:
 * wall-time:     0 d,  0 h,  0 min,  0.065 sec
 *  cpu-time:     0 d,  0 h,  0 min,  0.030 sec
 * ratio c/w:     0.462 speedup
 SCF:
 * wall-time:     0 d,  0 h,  0 min,  0.023 sec
 *  cpu-time:     0 d,  0 h,  0 min,  0.021 sec
 * ratio c/w:     0.917 speedup

