24
 energy: -464.393213525229 gnorm: 0.020717789714 xtb: 6.7.1 (edcfbbe)
C           -3.98004678386366       -0.47531036781062       -0.00146045100065
C           -2.52937508512083       -0.10176563054510       -0.00007981380004
C           -2.16876276736104        1.26177853365913        0.00025883790011
C           -0.85904606838067        1.64613169452944        0.00071579920032
C            0.17570414737786        0.68688802180438        0.00066711500030
C            1.53830171368166        1.04790555046435        0.00026574210012
C            2.52936952202083        0.10176124114509       -0.00020890670009
C            2.16875732966103       -1.26178249445913        0.00023871480011
C            0.85903899018066       -1.64612717452944        0.00071644490032
C           -0.17570027237786       -0.68686950270437        0.00066996500030
C           -1.53829744578166       -1.04789632036435        0.00034114930015
C            3.98005146796367        0.47528604331061       -0.00139268070062
H           -4.47176428998156       -0.07075921303136       -0.88497317879216
H           -4.10369987921846       -1.55485030508900        0.00422947930187
H           -4.47643685508363       -0.06067734592689        0.87467367698759
H           -2.95294661890853        2.00538280728864        0.00025811360011
H           -0.59507488846369        2.69426485209390        0.00099152840044
H            1.79080055069355        2.09950953093035        0.00008232260004
H            2.95294620550853       -2.00538218068864        0.00014021630006
H            0.59504023936368       -2.69425249509389        0.00096863990043
H           -1.79076880519354       -2.09950837923035        0.00016512070007
H            4.47494100268297        0.06570781202912        0.87795956088905
H            4.47330944348224        0.06574306402913       -0.88169223669070
H            4.10371648211847        1.55482668698898       -0.00152538150068
24
 energy: -464.394230303562 gnorm: 0.005859443619 xtb: 6.7.1 (edcfbbe)
C           -3.99206661149163       -0.47826490333505       -0.00142479671624
C           -2.53961086200493       -0.10233518913676        0.00001223283765
C           -2.17511058622813        1.26722796034577        0.00031618853317
C           -0.85954035610977        1.65373123652268        0.00061543416895
C            0.17743217969455        0.69031116173539        0.00056824624628
C            1.54451904681352        1.05283908611304        0.00020488175267
C            2.53961343578046        0.10233331188442       -0.00019886744531
C            2.17511193446267       -1.26722965232621        0.00021642476870
C            0.85954064812296       -1.65372713260148        0.00064528305234
C           -0.17742502102279       -0.69029943140465        0.00060028954658
C           -1.54451071234814       -1.05283329974770        0.00036044258024
C            3.99207237814257        0.47825545260867       -0.00132020524693
H           -4.49334929828614       -0.07372249983090       -0.88570729427296
H           -4.11915395380496       -1.56206957804839        0.00414316388878
H           -4.49790690902196       -0.06381699990556        0.87557681430007
H           -2.96095696863253        2.01612141887304        0.00023377692520
H           -0.59425169771899        2.70630260153423        0.00086229699698
H            1.79980919925098        2.10866485471050        0.00002822363547
H            2.96096040613668       -2.01612080088409        0.00009164758186
H            0.59423368910932       -2.70629364608983        0.00089059822613
H           -1.79978460456326       -2.10866346312369        0.00028571720656
H            4.49640454512757        0.06872480049262        0.87887750656408
H            4.49487212256691        0.06879513099856       -0.88243888802853
H            4.11915536397058        1.56207388145469       -0.00142961411318
24
 energy: -464.394331865779 gnorm: 0.000851696485 xtb: 6.7.1 (edcfbbe)
C           -3.99851529335539       -0.47936596796198       -0.00133179278146
C           -2.54529319969289       -0.10222036624526        0.00001506087890
C           -2.17809880767229        1.26917796931732        0.00026721409079
C           -0.86019880373019        1.65586835887259        0.00050636118730
C            0.17845750997878        0.69160307702392        0.00045979069100
C            1.54780722907162        1.05383100050618        0.00011743034216
C            2.54529754322101        0.10222080599704       -0.00022279292835
C            2.17810246992442       -1.26917757555096        0.00015979006593
C            0.86020218422018       -1.65586482603367        0.00056617666612
C           -0.17845163659733       -0.69159663518416        0.00053401858684
C           -1.54780043839230       -1.05382761559755        0.00035913737254
C            3.99852111100367        0.47936277354923       -0.00121072799785
H           -4.50553947599408       -0.07610730605198       -0.88521389634319
H           -4.12703313384271       -1.56449274398907        0.00408721056666
H           -4.50995099448120       -0.06645320846625        0.87545224310015
H           -2.96346659316949        2.02083541691664        0.00021994540507
H           -0.59525012274826        2.70996041866517        0.00068678241358
H            1.80490845041550        2.11069893108468       -0.00005716609836
H            2.96347084357405       -2.02083440221215        0.00005180993432
H            0.59524489790797       -2.70995470533731        0.00078955789406
H           -1.80489436575370       -2.11069743036119        0.00033640367678
H            4.50844364312205        0.07120372532537        0.87870493858918
H            4.50706402928478        0.07132983092124       -0.88199498533158
H            4.12703038518551        1.56450469834843       -0.00127323532983
24
 energy: -464.394333995774 gnorm: 0.000359465130 xtb: 6.7.1 (edcfbbe)
C           -3.99943942655214       -0.47959691646001       -0.00123156691652
C           -2.54642327428608       -0.10191179919990        0.00000591286219
C           -2.17833276461017        1.26927354261686        0.00020002942741
C           -0.86030184608115        1.65562234696158        0.00038465786006
C            0.17880337253453        0.69170593123661        0.00035109487592
C            1.54847612644878        1.05336051052885        0.00003897879522
C            2.54642746904968        0.10191289217548       -0.00024198486925
C            2.17833673359426       -1.26927268061587        0.00011304288242
C            0.86030592336442       -1.65562009691125        0.00048848647001
C           -0.17879870917790       -0.69170259621526        0.00045510093787
C           -1.54847091518932       -1.05335848922423        0.00032827534260
C            3.99944469589892        0.47959549873745       -0.00110453905815
H           -4.50750323233843       -0.07687092070876       -0.88479333508490
H           -4.12777763151467       -1.56472704291131        0.00403802402773
H           -4.51171060851211       -0.06749818317102        0.87548255997961
H           -2.96269465988036        2.02184577565428        0.00015640687176
H           -0.59616911954055        2.70983841557485        0.00053416150568
H            1.80626134652714        2.10999810878647       -0.00013827109834
H            2.96269866450795       -2.02184493369295        0.00001519924649
H            0.59617003009938       -2.70983538960669        0.00070317546293
H           -1.80625345231371       -2.10999679681387        0.00034859889686
H            4.51022429052670        0.07208454851977        0.87864897107941
H            4.50900875656959        0.07226338266550       -0.88165653797286
H            4.12777572493190        1.56473908409146       -0.00111730135782
24
 energy: -464.394333995774 gnorm: 0.000359465130 xtb: 6.7.1 (edcfbbe)
C           -3.99943942655214       -0.47959691646001       -0.00123156691652
C           -2.54642327428608       -0.10191179919990        0.00000591286219
C           -2.17833276461017        1.26927354261686        0.00020002942741
C           -0.86030184608115        1.65562234696158        0.00038465786006
C            0.17880337253453        0.69170593123661        0.00035109487592
C            1.54847612644878        1.05336051052885        0.00003897879522
C            2.54642746904968        0.10191289217548       -0.00024198486925
C            2.17833673359426       -1.26927268061587        0.00011304288242
C            0.86030592336442       -1.65562009691125        0.00048848647001
C           -0.17879870917790       -0.69170259621526        0.00045510093787
C           -1.54847091518932       -1.05335848922423        0.00032827534260
C            3.99944469589892        0.47959549873745       -0.00110453905815
H           -4.50750323233843       -0.07687092070876       -0.88479333508490
H           -4.12777763151467       -1.56472704291131        0.00403802402773
H           -4.51171060851211       -0.06749818317102        0.87548255997961
H           -2.96269465988036        2.02184577565428        0.00015640687176
H           -0.59616911954055        2.70983841557485        0.00053416150568
H            1.80626134652714        2.10999810878647       -0.00013827109834
H            2.96269866450795       -2.02184493369295        0.00001519924649
H            0.59617003009938       -2.70983538960669        0.00070317546293
H           -1.80625345231371       -2.10999679681387        0.00034859889686
H            4.51022429052670        0.07208454851977        0.87864897107941
H            4.50900875656959        0.07226338266550       -0.88165653797286
H            4.12777572493190        1.56473908409146       -0.00111730135782
