
                                 *****************
                                 * O   R   C   A *
                                 *****************

                                            #,                                       
                                            ###                                      
                                            ####                                     
                                            #####                                    
                                            ######                                   
                                           ########,                                 
                                     ,,################,,,,,                         
                               ,,#################################,,                 
                          ,,##########################################,,             
                       ,#########################################, ''#####,          
                    ,#############################################,,   '####,        
                  ,##################################################,,,,####,       
                ,###########''''           ''''###############################       
              ,#####''   ,,,,##########,,,,          '''####'''          '####       
            ,##' ,,,,###########################,,,                        '##       
           ' ,,###''''                  '''############,,,                           
         ,,##''                                '''############,,,,        ,,,,,,###''
      ,#''                                            '''#######################'''  
     '                                                          ''''####''''         
             ,#######,   #######,   ,#######,      ##                                
            ,#'     '#,  ##    ##  ,#'     '#,    #''#        ,####,   ,####,        
            ##       ##  ##   ,#'  ##            #'  '#       #'       #'  '#        
            ##       ##  #######   ##           ,######,      #####,   #    #        
            '#,     ,#'  ##    ##  '#,     ,#' ,#      #,     #,   #   #,  ,#        
             '#######'   ##     ##  '#######'  #'      '#     '####' # '####'        



                #########################################################
                #                        -***-                          #
                #          Department of theory and spectroscopy        #
                #                                                       #
                #                      Frank Neese                      #
                #                                                       #
                #     Directorship, Architecture, Infrastructure        #
                #                    SHARK, DRIVERS                     #
                #        Core code/Algorithms in most modules           #
                #                                                       #
                #        Max Planck Institute fuer Kohlenforschung      #
                #                Kaiser Wilhelm Platz 1                 #
                #                 D-45470 Muelheim/Ruhr                 #
                #                      Germany                          #
                #                                                       #
                #                  All rights reserved                  #
                #                        -***-                          #
                #########################################################


                         Program Version 6.0.0  -   RELEASE  -


 With contributions from (in alphabetic order):
   Daniel Aravena         : Magnetic Suceptibility
   Michael Atanasov       : Ab Initio Ligand Field Theory (pilot matlab implementation)
   Alexander A. Auer      : GIAO ZORA, VPT2 properties, NMR spectrum
   Ute Becker             : All parallelization in ORCA, NUMFREQ, NUMCALC
   Giovanni Bistoni       : ED, misc. LED, open-shell LED, HFLD
   Martin Brehm           : Molecular dynamics
   Dmytro Bykov           : pre 5.0 version of the SCF Hessian
   Marcos Casanova-Páez   : Triplet and SCS-CIS(D). UHF-(DLPNO)-IP/EA/STEOM-CCSD. UHF-CVS-IP/STEOM-CCSD
   Vijay G. Chilkuri      : MRCI spin determinant printing, contributions to CSF-ICE
   Pauline Colinet        : FMM embedding
   Dipayan Datta          : RHF DLPNO-CCSD density
   Achintya Kumar Dutta   : EOM-CC, STEOM-CC
   Nicolas Foglia         : Exact transition moments, OPA infrastructure, MCD improvements
   Dmitry Ganyushin       : Spin-Orbit,Spin-Spin,Magnetic field MRCI
   Miquel Garcia          : C-PCM and meta-GGA Hessian, CCSD/C-PCM, Gaussian charge scheme
   Tiago L. C. Gouveia    : GS-ROHF, GS-ROCIS
   Yang Guo               : DLPNO-NEVPT2, F12-NEVPT2, CIM, IAO-localization
   Andreas Hansen         : Spin unrestricted coupled pair/coupled cluster methods
   Ingolf Harden          : AUTO-CI MPn and infrastructure 
   Benjamin Helmich-Paris : MC-RPA, TRAH-(SCF,CASSCF), AVAS, COSX integrals, SCF dyn. polar.
   Lee Huntington         : MR-EOM, pCC
   Robert Izsak           : Overlap fitted RIJCOSX, COSX-SCS-MP3, EOM
   Riya Kayal             : Wick's Theorem for AUTO-CI, AUTO-CI UHF-CCSDT
   Emily Kempfer          : AUTO-CI, RHF CISDT and CCSDT
   Christian Kollmar      : KDIIS, OOCD, Brueckner-CCSD(T), CCSD density, CASPT2, CASPT2-K, improved NEVPT2
   Axel Koslowski         : Symmetry handling
   Simone Kossmann        : Meta GGA functionals, TD-DFT gradient, OOMP2, (MP2 Hessian; deprecated post 5.0)
   Lucas Lang             : DCDCAS
   Marvin Lechner         : AUTO-CI (C++ implementation), FIC-MRCC
   Spencer Leger          : CASSCF response
   Dagmar Lenk            : GEPOL surface, SMD, ORCA-2-JSON
   Dimitrios Liakos       : Extrapolation schemes; Compound Job, initial MDCI parallelization
   Dimitrios Manganas     : Further ROCIS development; embedding schemes. LFT, Crystal Embedding
   Dimitrios Pantazis     : SARC Basis sets
   Anastasios Papadopoulos: AUTO-CI, single reference methods and gradients
   Taras Petrenko         : pre 6.0 DFT Hessian and TD-DFT gradient, (ASA, deprecated), ECA, 1-Electron XAS/XES, NRVS
   Peter Pinski           : DLPNO-MP2, DLPNO-MP2 Gradient
   Christoph Reimann      : Effective Core Potentials
   Marius Retegan         : Local ZFS, SOC
   Christoph Riplinger    : Optimizer, TS searches, QM/MM, DLPNO-CCSD(T), (RO)-DLPNO pert. Triples
   Michael Roemelt        : Original ROCIS implementation
   Masaaki Saitow         : Open-shell DLPNO-CCSD energy and density
   Barbara Sandhoefer     : DKH picture change effects
   Kantharuban Sivalingam : CASSCF convergence/infrastructure, NEVPT2 and variants, FIC-MRCI
   Bernardo de Souza      : ESD, SOC TD-DFT
   Georgi Stoychev        : AutoAux, RI-MP2 NMR, DLPNO-MP2 response, X2C
   Van Anh Tran           : RI-MP2 g-tensors
   Willem Van den Heuvel  : Paramagnetic NMR
   Zikuan Wang            : NOTCH, Electric field optimization 
   Frank Wennmohs         : Technical directorship and infrastructure
   Hang Xu                : AUTO-CI-Response properties 


 We gratefully acknowledge several colleagues who have allowed us to
 interface, adapt or use parts of their codes:
   Stefan Grimme, W. Hujo, H. Kruse, P. Pracht,  : VdW corrections, initial TS optimization,
                  C. Bannwarth, S. Ehlert,         DFT functionals, gCP, sTDA/sTD-DF
                  L. Wittmann, M. Mueller
   Ed Valeev, F. Pavosevic, A. Kumar             : LibInt (2-el integral package), F12 methods
   Garnet Chan, S. Sharma, J. Yang, R. Olivares  : DMRG
   Ulf Ekstrom                                   : XCFun DFT Library
   Mihaly Kallay                                 : mrcc  (arbitrary order and MRCC methods)
   Frank Weinhold                                : gennbo (NPA and NBO analysis)
   Simon Mueller                                 : openCOSMO-RS
   Christopher J. Cramer and Donald G. Truhlar   : smd solvation model
   Lars Goerigk                                  : TD-DFT with DH, B97 family of functionals
   V. Asgeirsson, H. Jonsson                     : NEB implementation
   FAccTs GmbH                                   : IRC, NEB, NEB-TS, DLPNO-Multilevel, CI-OPT
                                                   MM, QMMM, 2- and 3-layer-ONIOM, Crystal-QMMM,
                                                   LR-CPCM, SF, NACMEs, symmetry and pop. for TD-DFT,
                                                   nearIR, NL-DFT gradient (VV10), updates on ESD,
                                                   ML-optimized integration grids, MBIS, APM,
                                                   GOAT, DOCKER, SOLVATOR, interface openCOSMO-RS
   S Lehtola, MJT Oliveira, MAL Marques          : LibXC Library
   Liviu Ungur et al                             : ANISO software


 Your calculation uses the libint2 library for the computation of 2-el integrals
 For citations please refer to: http://libint.valeyev.net

 Your ORCA version has been built with support for libXC version: 6.2.2
 For citations please refer to: https://libxc.gitlab.io

 This ORCA versions uses:
   CBLAS   interface :  Fast vector & matrix operations
   LAPACKE interface :  Fast linear algebra routines
   SCALAPACK package :  Parallel linear algebra routines
   Shared memory     :  Shared parallel matrices
   BLAS/LAPACK       :  OpenBLAS 0.3.27  USE64BITINT DYNAMIC_ARCH NO_AFFINITY SkylakeX SINGLE_THREADED
        Core in use  :  SkylakeX
   Copyright (c) 2011-2014, The OpenBLAS Project


Your calculation utilizes the geometrical counterpoise correction gCP
Please cite in your paper:
H.Kruse, S. Grimme J.Chem.Phys., 136, (2012), 154101 
   

Your calculation utilizes the atom-pairwise dispersion correction
based on EEQ partial charges (D4)


================================================================================

----- Orbital basis set information -----
Your calculation utilizes the basis: def2-SV(P)
   F. Weigend and R. Ahlrichs, Phys. Chem. Chem. Phys. 7, 3297 (2005).

----- AuxJ basis set information -----
Your calculation utilizes the auxiliary basis: def2/J
   F. Weigend, Phys. Chem. Chem. Phys. 8, 1057 (2006).

================================================================================
                                        WARNINGS
                       Please study these warnings very carefully!
================================================================================


================================================================================
                                       INPUT FILE
================================================================================
NAME = sp.inp
|  1> ! pbe def2-sv(p) def2/J RI DEFGRID1 loosescf d4 GCP(DFT/SV(P)) printgap
|  2> %output
|  3>     printlevel normal
|  4> end
|  5> * xyz 0 1
|  6> C 3.4893464487 0.4847854607 0.3578126298
|  7> C 2.1896555344 0.3586322397 -0.4346763973
|  8> H 2.4374815521 0.3950135614 -1.5007740972
|  9> C 1.2242547985 1.5130026413 -0.124448292
| 10> C 0.2691101855 1.1535946092 1.0101053131
| 11> C -0.6634992079 -0.025386927 0.6607997338
| 12> H -0.7779098733 -0.6387153538 1.5645691007
| 13> C 0.0045253048 -0.9303753866 -0.3938150612
| 14> H -0.1721992406 -0.5477225367 -1.4027045247
| 15> C 1.5138203959 -0.9845529064 -0.1349012829
| 16> O -0.543824926 -2.236081715 -0.4212759004
| 17> C -2.0884054129 0.4515829291 0.2998358764
| 18> C -2.1671382781 1.2850400134 -0.977519664
| 19> C -3.0648525215 -0.7212821947 0.2121946472
| 20> H 4.0219656718 1.3898351533 0.0755798963
| 21> H 3.2836752899 0.5252998298 1.4250123794
| 22> H 4.1356026796 -0.3682773252 0.1642598746
| 23> H 1.7947498587 2.4017962385 0.1506750624
| 24> H 0.6501784183 1.756137918 -1.0180178644
| 25> H 0.8614820204 0.9013049185 1.8912951635
| 26> H -0.3327971362 2.0258374912 1.269616721
| 27> H 1.676659869 -1.2565350195 0.9110070383
| 28> H 1.9493091857 -1.7706956555 -0.7548678561
| 29> H -0.3737249757 -2.6616416318 0.4303628881
| 30> H -2.414503829 1.0907043181 1.1310539001
| 31> H -1.8839832872 0.6967280135 -1.846507982
| 32> H -1.5263596883 2.1599124587 -0.9175221588
| 33> H -3.1896832044 1.6259606583 -1.1249772775
| 34> H -4.0683330988 -0.3581663006 0.0018258888
| 35> H -3.0910740914 -1.2705855179 1.1506582153
| 36> H -2.7709016725 -1.4061975685 -0.5783374586
| 37> *
| 38> 
| 39>                          ****END OF INPUT****
================================================================================

                       ****************************
                       * Single Point Calculation *
                       ****************************

---------------------------------
CARTESIAN COORDINATES (ANGSTROEM)
---------------------------------
  C      3.489346    0.484785    0.357813
  C      2.189656    0.358632   -0.434676
  H      2.437482    0.395014   -1.500774
  C      1.224255    1.513003   -0.124448
  C      0.269110    1.153595    1.010105
  C     -0.663499   -0.025387    0.660800
  H     -0.777910   -0.638715    1.564569
  C      0.004525   -0.930375   -0.393815
  H     -0.172199   -0.547723   -1.402705
  C      1.513820   -0.984553   -0.134901
  O     -0.543825   -2.236082   -0.421276
  C     -2.088405    0.451583    0.299836
  C     -2.167138    1.285040   -0.977520
  C     -3.064853   -0.721282    0.212195
  H      4.021966    1.389835    0.075580
  H      3.283675    0.525300    1.425012
  H      4.135603   -0.368277    0.164260
  H      1.794750    2.401796    0.150675
  H      0.650178    1.756138   -1.018018
  H      0.861482    0.901305    1.891295
  H     -0.332797    2.025837    1.269617
  H      1.676660   -1.256535    0.911007
  H      1.949309   -1.770696   -0.754868
  H     -0.373725   -2.661642    0.430363
  H     -2.414504    1.090704    1.131054
  H     -1.883983    0.696728   -1.846508
  H     -1.526360    2.159912   -0.917522
  H     -3.189683    1.625961   -1.124977
  H     -4.068333   -0.358166    0.001826
  H     -3.091074   -1.270586    1.150658
  H     -2.770902   -1.406198   -0.578337

----------------------------
CARTESIAN COORDINATES (A.U.)
----------------------------
  NO LB      ZA    FRAG     MASS         X           Y           Z
   0 C     6.0000    0    12.011    6.593909    0.916112    0.676168
   1 C     6.0000    0    12.011    4.137849    0.677717   -0.821419
   2 H     1.0000    0     1.008    4.606173    0.746467   -2.836052
   3 C     6.0000    0    12.011    2.313506    2.859161   -0.235173
   4 C     6.0000    0    12.011    0.508545    2.179978    1.908822
   5 C     6.0000    0    12.011   -1.253832   -0.047974    1.248731
   6 H     1.0000    0     1.008   -1.470037   -1.206997    2.956607
   7 C     6.0000    0    12.011    0.008552   -1.758155   -0.744203
   8 H     1.0000    0     1.008   -0.325409   -1.035046   -2.650727
   9 C     6.0000    0    12.011    2.860706   -1.860535   -0.254926
  10 O     8.0000    0    15.999   -1.027680   -4.225582   -0.796096
  11 C     6.0000    0    12.011   -3.946514    0.853368    0.566608
  12 C     6.0000    0    12.011   -4.095298    2.428374   -1.847244
  13 C     6.0000    0    12.011   -5.791732   -1.363026    0.400990
  14 H     1.0000    0     1.008    7.600414    2.626408    0.142825
  15 H     1.0000    0     1.008    6.205247    0.992673    2.692883
  16 H     1.0000    0     1.008    7.815156   -0.695943    0.310406
  17 H     1.0000    0     1.008    3.391586    4.538737    0.284735
  18 H     1.0000    0     1.008    1.228659    3.318620   -1.923775
  19 H     1.0000    0     1.008    1.627965    1.703219    3.574030
  20 H     1.0000    0     1.008   -0.628895    3.828278    2.399228
  21 H     1.0000    0     1.008    3.168428   -2.374507    1.721554
  22 H     1.0000    0     1.008    3.683661   -3.346130   -1.426494
  23 H     1.0000    0     1.008   -0.706238   -5.029774    0.813268
  24 H     1.0000    0     1.008   -4.562751    2.061132    2.137382
  25 H     1.0000    0     1.008   -3.560212    1.316625   -3.489394
  26 H     1.0000    0     1.008   -2.884402    4.081643   -1.733866
  27 H     1.0000    0     1.008   -6.027628    3.072620   -2.125899
  28 H     1.0000    0     1.008   -7.688035   -0.676836    0.003450
  29 H     1.0000    0     1.008   -5.841283   -2.401059    2.174429
  30 H     1.0000    0     1.008   -5.236245   -2.657328   -1.092899

--------------------------------
INTERNAL COORDINATES (ANGSTROEM)
--------------------------------
 C      0   0   0     0.000000000000     0.00000000     0.00000000
 C      1   0   0     1.527465209410     0.00000000     0.00000000
 H      2   1   0     1.095128139237   108.04572611     0.00000000
 C      2   1   3     1.536493111694   111.58100437   241.06850869
 C      4   2   1     1.526003685489   111.49591473   267.91285106
 C      5   4   2     1.543299106165   112.94723705   296.53861365
 H      6   5   4     1.098207916574   107.65803259   141.87947476
 C      6   5   4     1.541905712879   109.96062306    26.50803361
 H      8   6   5     1.093395042080   110.83482799   275.37277644
 C      8   6   5     1.532299977245   109.38553432    35.72858432
 O      8   6   5     1.416443111929   112.74184238   159.24033569
 C      6   5   4     1.545364954638   111.97945638   257.49853744
 C     12   6   5     1.527248097731   114.28833611    65.50908900
 C     12   6   5     1.528640749024   111.44190149   190.63881143
 H      1   2   3     1.087406777039   110.53914861    55.84813044
 H      1   2   3     1.087592453639   110.56484795   175.93594752
 H      1   2   3     1.087577997989   110.39511788   295.92404230
 H      4   2   1     1.091380562532   109.53013742    29.09756485
 H      4   2   1     1.089561854049   109.45803564   146.70426822
 H      5   4   2     1.091352386383   108.36182333    58.06333180
 H      5   4   2     1.091075726036   109.50231577   174.43306515
 H     10   8   6     1.092893032369   108.49773247    52.12180595
 H     10   8   6     1.091801016619   108.80776767   169.08884944
 H     11   8   6     0.967121430823   108.69100545   296.64010488
 H     12   6   5     1.098061805995   106.06080745   307.30424942
 H     13  12   6     1.086935349926   111.09181507    64.31907483
 H     13  12   6     1.086093318883   111.28305825   302.59929513
 H     13  12   6     1.087919464023   109.44069893   183.26971628
 H     14  12   6     1.087695470284   110.13652438   177.45077330
 H     14  12   6     1.087720359402   110.69558197    57.77153573
 H     14  12   6     1.086488463444   110.64470027   297.55726963

---------------------------
INTERNAL COORDINATES (A.U.)
---------------------------
 C      0   0   0     0.000000000000     0.00000000     0.00000000
 C      1   0   0     2.886490924877     0.00000000     0.00000000
 H      2   1   0     2.069492264710   108.04572611     0.00000000
 C      2   1   3     2.903551187759   111.58100437   241.06850869
 C      4   2   1     2.883729044929   111.49591473   267.91285106
 C      5   4   2     2.916412653377   112.94723705   296.53861365
 H      6   5   4     2.075312200428   107.65803259   141.87947476
 C      6   5   4     2.913779521671   109.96062306    26.50803361
 H      8   6   5     2.066217185718   110.83482799   275.37277644
 C      8   6   5     2.895627312006   109.38553432    35.72858432
 O      8   6   5     2.676689565825   112.74184238   159.24033569
 C      6   5   4     2.920316541226   111.97945638   257.49853744
 C     12   6   5     2.886080643264   114.28833611    65.50908900
 C     12   6   5     2.888712372807   111.44190149   190.63881143
 H      1   2   3     2.054901004773   110.53914861    55.84813044
 H      1   2   3     2.055251882697   110.56484795   175.93594752
 H      1   2   3     2.055224565478   110.39511788   295.92404230
 H      4   2   1     2.062410371070   109.53013742    29.09756485
 H      4   2   1     2.058973510120   109.45803564   146.70426822
 H      5   4   2     2.062357125866   108.36182333    58.06333180
 H      5   4   2     2.061834313578   109.50231577   174.43306515
 H     10   8   6     2.065268524849   108.49773247    52.12180595
 H     10   8   6     2.063204914146   108.80776767   169.08884944
 H     11   8   6     1.827594642501   108.69100545   296.64010488
 H     12   6   5     2.075036091449   106.06080745   307.30424942
 H     13  12   6     2.054010136638   111.09181507    64.31907483
 H     13  12   6     2.052418928570   111.28305825   302.59929513
 H     13  12   6     2.055869842766   109.44069893   183.26971628
 H     14  12   6     2.055446555944   110.13652438   177.45077330
 H     14  12   6     2.055493589560   110.69558197    57.77153573
 H     14  12   6     2.053165643573   110.64470027   297.55726963

---------------------
BASIS SET INFORMATION
---------------------
There are 3 groups of distinct atoms

 Group   1 Type C   : 7s4p1d contracted to 3s2p1d pattern {511/31/1}
 Group   2 Type H   : 4s contracted to 2s pattern {31}
 Group   3 Type O   : 7s4p1d contracted to 3s2p1d pattern {511/31/1}

Atom   0C    basis set group =>   1
Atom   1C    basis set group =>   1
Atom   2H    basis set group =>   2
Atom   3C    basis set group =>   1
Atom   4C    basis set group =>   1
Atom   5C    basis set group =>   1
Atom   6H    basis set group =>   2
Atom   7C    basis set group =>   1
Atom   8H    basis set group =>   2
Atom   9C    basis set group =>   1
Atom  10O    basis set group =>   3
Atom  11C    basis set group =>   1
Atom  12C    basis set group =>   1
Atom  13C    basis set group =>   1
Atom  14H    basis set group =>   2
Atom  15H    basis set group =>   2
Atom  16H    basis set group =>   2
Atom  17H    basis set group =>   2
Atom  18H    basis set group =>   2
Atom  19H    basis set group =>   2
Atom  20H    basis set group =>   2
Atom  21H    basis set group =>   2
Atom  22H    basis set group =>   2
Atom  23H    basis set group =>   2
Atom  24H    basis set group =>   2
Atom  25H    basis set group =>   2
Atom  26H    basis set group =>   2
Atom  27H    basis set group =>   2
Atom  28H    basis set group =>   2
Atom  29H    basis set group =>   2
Atom  30H    basis set group =>   2
---------------------------------
AUXILIARY/J BASIS SET INFORMATION
---------------------------------
There are 3 groups of distinct atoms

 Group   1 Type C   : 12s5p4d2f1g contracted to 6s4p3d1f1g pattern {711111/2111/211/2/1}
 Group   2 Type H   : 5s2p1d contracted to 3s1p1d pattern {311/2/1}
 Group   3 Type O   : 12s5p4d2f1g contracted to 6s4p3d1f1g pattern {711111/2111/211/2/1}

Atom   0C    basis set group =>   1
Atom   1C    basis set group =>   1
Atom   2H    basis set group =>   2
Atom   3C    basis set group =>   1
Atom   4C    basis set group =>   1
Atom   5C    basis set group =>   1
Atom   6H    basis set group =>   2
Atom   7C    basis set group =>   1
Atom   8H    basis set group =>   2
Atom   9C    basis set group =>   1
Atom  10O    basis set group =>   3
Atom  11C    basis set group =>   1
Atom  12C    basis set group =>   1
Atom  13C    basis set group =>   1
Atom  14H    basis set group =>   2
Atom  15H    basis set group =>   2
Atom  16H    basis set group =>   2
Atom  17H    basis set group =>   2
Atom  18H    basis set group =>   2
Atom  19H    basis set group =>   2
Atom  20H    basis set group =>   2
Atom  21H    basis set group =>   2
Atom  22H    basis set group =>   2
Atom  23H    basis set group =>   2
Atom  24H    basis set group =>   2
Atom  25H    basis set group =>   2
Atom  26H    basis set group =>   2
Atom  27H    basis set group =>   2
Atom  28H    basis set group =>   2
Atom  29H    basis set group =>   2
Atom  30H    basis set group =>   2
------------------------------------------------------------------------------
                             ORCA STARTUP CALCULATIONS
                           -- RI-GTO INTEGRALS CHOSEN --
------------------------------------------------------------------------------
------------------------------------------------------------------------------
                   ___                                                        
                  /   \      - P O W E R E D   B Y -                         
                 /     \                                                     
                 |  |  |   _    _      __       _____    __    __             
                 |  |  |  | |  | |    /  \     |  _  \  |  |  /  |          
                  \  \/   | |  | |   /    \    | | | |  |  | /  /          
                 / \  \   | |__| |  /  /\  \   | |_| |  |  |/  /          
                |  |  |   |  __  | /  /__\  \  |    /   |      \           
                |  |  |   | |  | | |   __   |  |    \   |  |\   \          
                \     /   | |  | | |  |  |  |  | |\  \  |  | \   \       
                 \___/    |_|  |_| |__|  |__|  |_| \__\ |__|  \__/        
                                                                              
                      - O R C A' S   B I G   F R I E N D -                    
                                      &                                       
                       - I N T E G R A L  F E E D E R -                       
                                                                              
 v1 FN, 2020, v2 2021, v3 2022-2024                                           
------------------------------------------------------------------------------


----------------------
SHARK INTEGRAL PACKAGE
----------------------

Number of atoms                             ...     31
Number of basis functions                   ...    194
Number of shells                            ...    106
Maximum angular momentum                    ...      2
Integral batch strategy                     ... SHARK/LIBINT Hybrid
RI-J (if used) integral strategy            ... SPLIT-RIJ (Revised 2003 algorithm where possible)
Printlevel                                  ...      1
Contraction scheme used                     ... SEGMENTED contraction
Prescreening option                         ... SCHWARTZ
   Thresh                                   ... 1.000e-09
   Tcut                                     ... 1.000e-10
   Tpresel                                  ... 1.000e-10 
Coulomb Range Separation                    ... NOT USED
Exchange Range Separation                   ... NOT USED
Multipole approximations                    ... NOT USED
Finite Nucleus Model                        ... NOT USED
CABS basis                                  ... NOT available
Auxiliary Coulomb fitting basis             ... AVAILABLE
   # of basis functions in Aux-J            ...    759
   # of shells in Aux-J                     ...    265
   Maximum angular momentum in Aux-J        ...      4
Auxiliary J/K fitting basis                 ... NOT available
Auxiliary Correlation fitting basis         ... NOT available
Auxiliary 'external' fitting basis          ... NOT available

Checking pre-screening integrals            ... done (  0.0 sec) Dimension = 106
Check shell pair data                       ... done (  0.0 sec)
Shell pair information
Shell pair cut-off parameter TPreSel        ...   1.0e-10
Total number of shell pairs                 ...      5671
Shell pairs after pre-screening             ...      5251
Total number of primitive shell pairs       ...     22781
Primitive shell pairs kept                  ...     14286
          la=0 lb=0:   2470 shell pairs
          la=1 lb=0:   1529 shell pairs
          la=1 lb=1:    248 shell pairs
          la=2 lb=0:    715 shell pairs
          la=2 lb=1:    231 shell pairs
          la=2 lb=2:     58 shell pairs

Calculating one electron integrals          ... done (  0.0 sec)
Calculating RI/J V-Matrix + Cholesky decomp.... done (  0.1 sec)
Calculating Nuclear repulsion               ... done (  0.0 sec) ENN=    700.739029642062 Eh

Diagonalization of the overlap matrix:
Smallest eigenvalue                        ... 6.027e-04
Time for diagonalization                   ...    0.003 sec
Threshold for overlap eigenvalues          ... 1.000e-07
Number of eigenvalues below threshold      ... 0
Time for construction of square roots      ...    0.014 sec
Total time needed                          ...    0.027 sec

-------------------
DFT GRID GENERATION
-------------------

General Integration Accuracy     IntAcc      ... 4.159
Radial Grid Type                 RadialGrid  ... OptM3 with GC (2021)
Angular Grid (max. ang.)         AngularGrid ... 3 (Lebedev-194)
Angular grid pruning method      GridPruning ... 4 (adaptive)
Weight generation scheme         WeightScheme... mBecke (2022)
Basis function cutoff            BFCut       ... 1.0000e-10
Integration weight cutoff        WCut        ... 1.0000e-14
Partially contracted basis set               ... off
Rotationally invariant grid construction     ... off
Angular grids for H and He will be reduced by one unit

Total number of grid points                  ...    62725
Total number of batches                      ...      995
Average number of points per batch           ...       63
Average number of grid points per atom       ...     2023
Initializing property integral containers    ... done (  0.0 sec)

SHARK setup successfully completed in   1.0 seconds

Maximum memory used throughout the entire STARTUP-calculation: 31.3 MB
-------------------------------------------------------------------------------
                                 ORCA GUESS
                   Start orbitals & Density for SCF / CASSCF
-------------------------------------------------------------------------------

------------
SCF SETTINGS
------------
Hamiltonian:
 Density Functional     Method          .... DFT(GTOs)
 Exchange Functional    Exchange        .... PBE
   PBE kappa parameter   XKappa         ....  0.804000
   PBE mue parameter    XMuePBE         ....  0.219520
 Correlation Functional Correlation     .... PBE
   PBE beta parameter  CBetaPBE         ....  0.066725
 LDA part of GGA corr.  LDAOpt          .... PW91-LDA
 Gradients option       PostSCFGGA      .... off
   NL short-range parameter             ....  6.400000
 RI-approximation to the Coulomb term is turned on
   Number of AuxJ basis functions       .... 759


General Settings:
 Integral files         IntName         .... sp
 Hartree-Fock type      HFTyp           .... RHF
 Total Charge           Charge          ....    0
 Multiplicity           Mult            ....    1
 Number of Electrons    NEL             ....   88
 Basis Dimension        Dim             ....  194
 Nuclear Repulsion      ENuc            ....    700.7390296421 Eh

Convergence Acceleration:
 AO-DIIS                CNVDIIS         .... on
   Start iteration      DIISMaxIt       ....    12
   Startup error        DIISStart       ....  0.200000
   # of expansion vecs  DIISMaxEq       ....     5
   Bias factor          DIISBfac        ....   1.050
   Max. coefficient     DIISMaxC        ....  10.000
 MO-DIIS                CNVKDIIS        .... off
 Trust-Rad. Augm. Hess. CNVTRAH         .... auto
   Auto Start mean grad. ratio tolernc. ....  1.125000
   Auto Start start iteration           ....    50
   Auto Start num. interpolation iter.  ....    10
   Max. Number of Micro iterations      ....    24
   Max. Number of Macro iterations      .... Maxiter - #DIIS iter
   Number of Davidson start vectors     ....     2
   Converg. threshold    (grad. norm)   ....   1.000e-04
   Grad. Scal. Fac. for Micro threshold ....   0.100
   Minimum threshold for Micro iter.    ....   1.000e-02
   NR start threshold (gradient norm)   ....   1.000e-04
   Initial trust radius                 ....   0.400
   Minimum AH scaling param. (alpha)    ....   1.000
   Maximum AH scaling param. (alpha)    .... 1000.000
   Quad. conv. algorithm                .... NR
   White noise on init. David. guess    .... on
   Maximum white noise                  ....   0.010
   Pseudo random numbers                .... off
   Inactive MOs                         .... canonical
   Orbital update algorithm             .... Taylor
   Preconditioner                       .... Diag
   Full preconditioner red. dimension   ....   250
 SOSCF                  CNVSOSCF        .... on
   Start iteration      SOSCFMaxIt      ....   150
   Startup grad/error   SOSCFStart      ....  0.003300
   Hessian update       SOSCFHessUp     .... L-BFGS
 Level Shifting         CNVShift        .... on
   Level shift para.    LevelShift      ....    0.2500
   Turn off err/grad.   ShiftErr        ....    0.0010
 Zerner damping         CNVZerner       .... off
 Static damping         CNVDamp         .... on
   Fraction old density DampFac         ....    0.7000
   Max. Damping (<1)    DampMax         ....    0.9800
   Min. Damping (>=0)   DampMin         ....    0.0000
   Turn off err/grad.   DampErr         ....    0.1000

SCF Procedure:
 Maximum # iterations   MaxIter         ....   125
 SCF integral mode      SCFMode         .... Direct
   Integral package                     .... SHARK and LIBINT hybrid scheme
 Reset frequency        DirectResetFreq ....    20
 Integral Threshold     Thresh          ....  1.000e-09 Eh
 Primitive CutOff       TCut            ....  1.000e-10 Eh

Convergence Tolerance:
 Convergence Check Mode ConvCheckMode   .... Total+1el-Energy
 Convergence forced     ConvForced      .... 0
 Energy Change          TolE            ....  1.000e-05 Eh
 1-El. energy change                    ....  1.000e-02 Eh
 Orbital Gradient       TolG            ....  1.000e-04
 Orbital Rotation angle TolX            ....  1.000e-04
 DIIS Error             TolErr          ....  5.000e-04

------------------------------
INITIAL GUESS: MODEL POTENTIAL
------------------------------
Loading Hartree-Fock densities                     ... done
Calculating cut-offs                               ... done
Initializing the effective Hamiltonian             ... done
Setting up the integral package (SHARK)            ... done
Starting the Coulomb interaction                   ... done (   0.3 sec)
Making the grid                                    ... done (   0.3 sec)
Mapping shells                                     ... done
Starting the XC term evaluation                    ... done (   0.3 sec)
  promolecular density results
     # of electrons  =     87.999470733
     EX              =    -65.279552128
     EC              =     -2.924086362
     EX+EC           =    -68.203638490
Transforming the Hamiltonian                       ... done (   0.0 sec)
Diagonalizing the Hamiltonian                      ... done (   0.0 sec)
Back transforming the eigenvectors                 ... done (   0.0 sec)
Now organizing SCF variables                       ... done
                      ------------------
                      INITIAL GUESS DONE (   0.9 sec)
                      ------------------
             **** ENERGY FILE WAS UPDATED (sp.en.tmp) ****
Finished Guess after   1.1 sec
Maximum memory used throughout the entire GUESS-calculation: 24.1 MB

-------------------------------------------------------------------------------------------
                                      ORCA LEAN-SCF
                              memory conserving SCF solver
-------------------------------------------------------------------------------------------

----------------------------------------D-I-I-S--------------------------------------------
Iteration    Energy (Eh)           Delta-E    RMSDP     MaxDP     DIISErr   Damp  Time(sec)
-------------------------------------------------------------------------------------------
               ***  Starting incremental Fock matrix formation  ***
    1    -466.9760698222470410     0.00e+00  4.17e-03  8.30e-02  2.25e-01  0.700   1.3
    2    -467.1375908657688569    -1.62e-01  2.97e-03  4.79e-02  8.54e-02  0.700   1.3
                               ***Turning on AO-DIIS***
    3    -467.1925953308574435    -5.50e-02  1.19e-03  1.58e-02  2.17e-02  0.700   1.3
    4    -467.2249690806492026    -3.24e-02  1.84e-03  2.48e-02  8.27e-03  0.000   1.2
    5    -467.2994353443024238    -7.45e-02  5.65e-04  1.27e-02  1.31e-02  0.000   1.2
                              *** Initializing SOSCF ***
---------------------------------------S-O-S-C-F--------------------------------------
Iteration    Energy (Eh)           Delta-E    RMSDP     MaxDP     MaxGrad    Time(sec)
--------------------------------------------------------------------------------------
    6    -467.3003138038224051    -8.78e-04  1.97e-04  2.78e-03  3.09e-03     1.2
               *** Restarting incremental Fock matrix formation ***
    7    -467.3004085654462187    -9.48e-05  1.38e-04  3.59e-03  2.98e-04     1.3
    8    -467.3004068938658975     1.67e-06  4.91e-05  1.32e-03  6.28e-04     1.1
                 **** Energy Check signals convergence ****

               *****************************************************
               *                     SUCCESS                       *
               *           SCF CONVERGED AFTER   8 CYCLES          *
               *****************************************************

             **** ENERGY FILE WAS UPDATED (sp.en.tmp) ****

----------------
TOTAL SCF ENERGY
----------------

Total Energy       :       -467.30040689386590 Eh          -12715.89053 eV

Components:
Nuclear Repulsion  :        700.73902964206161 Eh           19068.07840 eV
Electronic Energy  :      -1168.03943653592751 Eh          -31783.96893 eV
One Electron Energy:      -2022.50443036354750 Eh          -55035.14348 eV
Two Electron Energy:        854.46499382761999 Eh           23251.17455 eV

Virial components:
Potential Energy   :       -930.35948571407744 Eh          -25316.36867 eV
Kinetic Energy     :        463.05907882021154 Eh           12600.47813 eV
Virial Ratio       :          2.00915936706059

DFT components:
N(Alpha)           :       43.999984516047 electrons
N(Beta)            :       43.999984516047 electrons
N(Total)           :       87.999969032093 electrons
E(X)               :      -66.835782877559 Eh       
E(C)               :       -2.924084722346 Eh       
E(XC)              :      -69.759867599905 Eh       

---------------
SCF CONVERGENCE
---------------

  Last Energy change         ...   -1.6716e-06  Tolerance :   1.0000e-05
  Last MAX-Density change    ...    1.3189e-03  Tolerance :   1.0000e-03
  Last RMS-Density change    ...    4.9147e-05  Tolerance :   1.0000e-04
  Last DIIS Error            ...    3.0932e-03  Tolerance :   5.0000e-04
  Last Orbital Gradient      ...    6.2827e-04  Tolerance :   1.0000e-04
  Last Orbital Rotation      ...    1.8848e-04  Tolerance :   1.0000e-04


----------------
ORBITAL ENERGIES
----------------

  NO   OCC          E(Eh)            E(eV) 
   0   2.0000     -18.738055      -509.8884 
   1   2.0000      -9.932038      -270.2645 
   2   2.0000      -9.893914      -269.2271 
   3   2.0000      -9.889702      -269.1125 
   4   2.0000      -9.889115      -269.0965 
   5   2.0000      -9.882675      -268.9212 
   6   2.0000      -9.880562      -268.8638 
   7   2.0000      -9.879375      -268.8315 
   8   2.0000      -9.873608      -268.6745 
   9   2.0000      -9.869650      -268.5668 
  10   2.0000      -9.858958      -268.2759 
  11   2.0000      -0.917141       -24.9567 
  12   2.0000      -0.759497       -20.6670 
  13   2.0000      -0.719321       -19.5737 
  14   2.0000      -0.667074       -18.1520 
  15   2.0000      -0.653332       -17.7781 
  16   2.0000      -0.608493       -16.5579 
  17   2.0000      -0.599258       -16.3066 
  18   2.0000      -0.559892       -15.2354 
  19   2.0000      -0.537962       -14.6387 
  20   2.0000      -0.495067       -13.4714 
  21   2.0000      -0.482419       -13.1273 
  22   2.0000      -0.441102       -12.0030 
  23   2.0000      -0.434551       -11.8247 
  24   2.0000      -0.419435       -11.4134 
  25   2.0000      -0.397418       -10.8143 
  26   2.0000      -0.383493       -10.4354 
  27   2.0000      -0.373880       -10.1738 
  28   2.0000      -0.368212       -10.0196 
  29   2.0000      -0.352405        -9.5894 
  30   2.0000      -0.342942        -9.3319 
  31   2.0000      -0.338038        -9.1985 
  32   2.0000      -0.335814        -9.1380 
  33   2.0000      -0.330665        -8.9979 
  34   2.0000      -0.322296        -8.7701 
  35   2.0000      -0.309968        -8.4346 
  36   2.0000      -0.297709        -8.1011 
  37   2.0000      -0.288143        -7.8408 
  38   2.0000      -0.282897        -7.6980 
  39   2.0000      -0.278651        -7.5825 
  40   2.0000      -0.266397        -7.2490 
  41   2.0000      -0.262539        -7.1440 
  42   2.0000      -0.247079        -6.7234 
  43   2.0000      -0.203178        -5.5288 
  44   0.0000       0.023409         0.6370 
  45   0.0000       0.034381         0.9356 
  46   0.0000       0.044069         1.1992 
  47   0.0000       0.054086         1.4718 
  48   0.0000       0.076007         2.0683 
  49   0.0000       0.081776         2.2252 
  50   0.0000       0.085913         2.3378 
  51   0.0000       0.090355         2.4587 
  52   0.0000       0.096847         2.6353 
  53   0.0000       0.104360         2.8398 
  54   0.0000       0.111646         3.0380 
*Only the first 10 virtual orbitals were printed.

                    ********************************
                    * MULLIKEN POPULATION ANALYSIS *
                    ********************************

-----------------------
MULLIKEN ATOMIC CHARGES
-----------------------
   0 C :   -0.241520
   1 C :   -0.184071
   2 H :    0.068057
   3 C :   -0.115398
   4 C :   -0.105631
   5 C :   -0.109888
   6 H :    0.035682
   7 C :    0.034721
   8 H :    0.066493
   9 C :   -0.075361
  10 O :   -0.412729
  11 C :   -0.144671
  12 C :   -0.271998
  13 C :   -0.237739
  14 H :    0.098591
  15 H :    0.095734
  16 H :    0.100180
  17 H :    0.077033
  18 H :    0.081705
  19 H :    0.070678
  20 H :    0.080186
  21 H :    0.047072
  22 H :    0.085214
  23 H :    0.290607
  24 H :    0.064464
  25 H :    0.106183
  26 H :    0.111611
  27 H :    0.097601
  28 H :    0.087630
  29 H :    0.080945
  30 H :    0.118618
Sum of atomic charges:    0.0000000

--------------------------------
MULLIKEN REDUCED ORBITAL CHARGES
--------------------------------
  0 C s       :     3.073686  s :     3.073686
      pz      :     1.051725  p :     3.138451
      px      :     1.030315
      py      :     1.056411
      dz2     :     0.010637  d :     0.029383
      dxz     :     0.003918
      dyz     :     0.001501
      dx2y2   :     0.003206
      dxy     :     0.010122

  1 C s       :     3.102510  s :     3.102510
      pz      :     1.038311  p :     3.038668
      px      :     1.013337
      py      :     0.987020
      dz2     :     0.011837  d :     0.042893
      dxz     :     0.006908
      dyz     :     0.004853
      dx2y2   :     0.009149
      dxy     :     0.010147

  2 H s       :     0.931943  s :     0.931943

  3 C s       :     2.984348  s :     2.984348
      pz      :     1.036352  p :     3.095047
      px      :     1.013316
      py      :     1.045378
      dz2     :     0.007279  d :     0.036003
      dxz     :     0.009649
      dyz     :     0.004983
      dx2y2   :     0.005240
      dxy     :     0.008851

  4 C s       :     2.971645  s :     2.971645
      pz      :     1.074363  p :     3.098236
      px      :     1.007098
      py      :     1.016775
      dz2     :     0.006885  d :     0.035749
      dxz     :     0.009056
      dyz     :     0.005392
      dx2y2   :     0.004852
      dxy     :     0.009564

  5 C s       :     3.065425  s :     3.065425
      pz      :     0.992412  p :     3.004435
      px      :     1.024488
      py      :     0.987536
      dz2     :     0.006769  d :     0.040028
      dxz     :     0.006007
      dyz     :     0.010258
      dx2y2   :     0.007861
      dxy     :     0.009134

  6 H s       :     0.964318  s :     0.964318

  7 C s       :     3.053146  s :     3.053146
      pz      :     1.104008  p :     2.842864
      px      :     0.956739
      py      :     0.782117
      dz2     :     0.013476  d :     0.069270
      dxz     :     0.006782
      dyz     :     0.013689
      dx2y2   :     0.018638
      dxy     :     0.016685

  8 H s       :     0.933507  s :     0.933507

  9 C s       :     2.968506  s :     2.968506
      pz      :     1.010071  p :     3.072220
      px      :     0.999531
      py      :     1.062618
      dz2     :     0.008218  d :     0.034634
      dxz     :     0.005215
      dyz     :     0.006889
      dx2y2   :     0.007411
      dxy     :     0.006902

 10 O s       :     3.794314  s :     3.794314
      pz      :     1.465226  p :     4.603131
      px      :     1.800803
      py      :     1.337103
      dz2     :     0.004959  d :     0.015283
      dxz     :     0.001729
      dyz     :     0.004020
      dx2y2   :     0.001958
      dxy     :     0.002617

 11 C s       :     3.071409  s :     3.071409
      pz      :     1.004380  p :     3.029861
      px      :     0.997828
      py      :     1.027653
      dz2     :     0.007338  d :     0.043401
      dxz     :     0.007085
      dyz     :     0.011864
      dx2y2   :     0.007944
      dxy     :     0.009171

 12 C s       :     3.092357  s :     3.092357
      pz      :     1.043385  p :     3.150529
      px      :     1.057048
      py      :     1.050096
      dz2     :     0.008095  d :     0.029112
      dxz     :     0.003089
      dyz     :     0.006597
      dx2y2   :     0.004104
      dxy     :     0.007227

 13 C s       :     3.070996  s :     3.070996
      pz      :     1.071875  p :     3.137659
      px      :     1.025411
      py      :     1.040374
      dz2     :     0.005022  d :     0.029083
      dxz     :     0.002073
      dyz     :     0.010028
      dx2y2   :     0.006722
      dxy     :     0.005238

 14 H s       :     0.901409  s :     0.901409

 15 H s       :     0.904266  s :     0.904266

 16 H s       :     0.899820  s :     0.899820

 17 H s       :     0.922967  s :     0.922967

 18 H s       :     0.918295  s :     0.918295

 19 H s       :     0.929322  s :     0.929322

 20 H s       :     0.919814  s :     0.919814

 21 H s       :     0.952928  s :     0.952928

 22 H s       :     0.914786  s :     0.914786

 23 H s       :     0.709393  s :     0.709393

 24 H s       :     0.935536  s :     0.935536

 25 H s       :     0.893817  s :     0.893817

 26 H s       :     0.888389  s :     0.888389

 27 H s       :     0.902399  s :     0.902399

 28 H s       :     0.912370  s :     0.912370

 29 H s       :     0.919055  s :     0.919055

 30 H s       :     0.881382  s :     0.881382


------------------------
MULLIKEN OVERLAP CHARGES
------------------------
B(  0-C ,  1-C ) :   0.8122 B(  0-C ,  2-H ) :  -0.0551 B(  0-C ,  3-C ) :  -0.0800 
B(  0-C ,  9-C ) :  -0.0838 B(  0-C , 14-H ) :   0.7173 B(  0-C , 15-H ) :   0.7485 
B(  0-C , 16-H ) :   0.7299 B(  1-C ,  2-H ) :   0.6404 B(  1-C ,  3-C ) :   0.7074 
B(  1-C ,  5-C ) :  -0.1064 B(  1-C ,  9-C ) :   0.4616 B(  1-C , 15-H ) :  -0.0523 
B(  2-H ,  3-C ) :  -0.0537 B(  3-C ,  4-C ) :   0.8461 B(  3-C ,  9-C ) :  -0.0807 
B(  3-C , 17-H ) :   0.6658 B(  3-C , 18-H ) :   0.6396 B(  4-C ,  5-C ) :   0.4555 
B(  4-C ,  9-C ) :  -0.0627 B(  4-C , 11-C ) :  -0.0693 B(  4-C , 19-H ) :   0.6112 
B(  4-C , 20-H ) :   0.6477 B(  5-C ,  6-H ) :   0.5277 B(  5-C ,  7-C ) :   0.3925 
B(  5-C ,  8-H ) :  -0.0863 B(  5-C , 10-O ) :  -0.0995 B(  5-C , 11-C ) :   0.7540 
B(  5-C , 12-C ) :  -0.1267 B(  5-C , 13-C ) :  -0.1252 B(  5-C , 21-H ) :  -0.0569 
B(  5-C , 24-H ) :  -0.0530 B(  7-C ,  8-H ) :   0.6735 B(  7-C ,  9-C ) :   0.6204 
B(  7-C , 10-O ) :   0.6213 B(  7-C , 11-C ) :  -0.0788 B(  7-C , 23-H ) :  -0.0963 
B(  8-H ,  9-C ) :  -0.0689 B(  8-H , 10-O ) :  -0.0671 B(  9-C , 10-O ) :  -0.0854 
B(  9-C , 21-H ) :   0.5725 B(  9-C , 22-H ) :   0.6208 B( 10-O , 23-H ) :   0.5256 
B( 11-C , 12-C ) :   0.8805 B( 11-C , 13-C ) :   0.8708 B( 11-C , 24-H ) :   0.6867 
B( 12-C , 13-C ) :  -0.1459 B( 12-C , 24-H ) :  -0.0688 B( 12-C , 25-H ) :   0.7479 
B( 12-C , 26-H ) :   0.7248 B( 12-C , 27-H ) :   0.7188 B( 13-C , 24-H ) :  -0.0685 
B( 13-C , 28-H ) :   0.7122 B( 13-C , 29-H ) :   0.7191 B( 13-C , 30-H ) :   0.7319 
B( 14-H , 15-H ) :  -0.0500 B( 15-H , 16-H ) :  -0.0504 B( 17-H , 18-H ) :  -0.0568 
B( 19-H , 20-H ) :  -0.0568 B( 21-H , 22-H ) :  -0.0778 B( 25-H , 26-H ) :  -0.0573 



                     *******************************
                     * LOEWDIN POPULATION ANALYSIS *
                     *******************************

----------------------
LOEWDIN ATOMIC CHARGES
----------------------
   0 C :   -0.328796
   1 C :   -0.150455
   2 H :    0.116456
   3 C :   -0.222371
   4 C :   -0.217738
   5 C :   -0.145904
   6 H :    0.109926
   7 C :   -0.047974
   8 H :    0.112685
   9 C :   -0.229542
  10 O :   -0.314046
  11 C :   -0.145566
  12 C :   -0.333970
  13 C :   -0.337484
  14 H :    0.116778
  15 H :    0.114712
  16 H :    0.118067
  17 H :    0.117502
  18 H :    0.115722
  19 H :    0.115583
  20 H :    0.117559
  21 H :    0.109423
  22 H :    0.120305
  23 H :    0.277689
  24 H :    0.111292
  25 H :    0.117507
  26 H :    0.116473
  27 H :    0.120248
  28 H :    0.111812
  29 H :    0.110719
  30 H :    0.123389

-------------------------------
LOEWDIN REDUCED ORBITAL CHARGES
-------------------------------
  0 C s       :     2.947848  s :     2.947848
      pz      :     1.111658  p :     3.309405
      px      :     1.079178
      py      :     1.118569
      dz2     :     0.024596  d :     0.071543
      dxz     :     0.010917
      dyz     :     0.003655
      dx2y2   :     0.008680
      dxy     :     0.023694

  1 C s       :     2.874477  s :     2.874477
      pz      :     1.079952  p :     3.171549
      px      :     1.044041
      py      :     1.047555
      dz2     :     0.028065  d :     0.104429
      dxz     :     0.017612
      dyz     :     0.009598
      dx2y2   :     0.021845
      dxy     :     0.027309

  2 H s       :     0.883544  s :     0.883544

  3 C s       :     2.905414  s :     2.905414
      pz      :     1.088728  p :     3.229159
      px      :     1.068018
      py      :     1.072413
      dz2     :     0.016938  d :     0.087799
      dxz     :     0.024332
      dyz     :     0.011321
      dx2y2   :     0.011164
      dxy     :     0.024045

  4 C s       :     2.904081  s :     2.904081
      pz      :     1.086082  p :     3.226433
      px      :     1.065854
      py      :     1.074496
      dz2     :     0.016162  d :     0.087223
      dxz     :     0.024202
      dyz     :     0.011964
      dx2y2   :     0.010620
      dxy     :     0.024276

  5 C s       :     2.890194  s :     2.890194
      pz      :     1.059741  p :     3.155964
      px      :     1.043214
      py      :     1.053009
      dz2     :     0.016009  d :     0.099747
      dxz     :     0.014266
      dyz     :     0.026414
      dx2y2   :     0.018402
      dxy     :     0.024655

  6 H s       :     0.890074  s :     0.890074

  7 C s       :     2.880046  s :     2.880046
      pz      :     1.098200  p :     3.010222
      px      :     1.025385
      py      :     0.886636
      dz2     :     0.031216  d :     0.157706
      dxz     :     0.014374
      dyz     :     0.031560
      dx2y2   :     0.044404
      dxy     :     0.036152

  8 H s       :     0.887315  s :     0.887315

  9 C s       :     2.918574  s :     2.918574
      pz      :     1.095709  p :     3.224709
      px      :     1.053795
      py      :     1.075205
      dz2     :     0.020844  d :     0.086259
      dxz     :     0.011049
      dyz     :     0.016085
      dx2y2   :     0.020816
      dxy     :     0.017466

 10 O s       :     3.541887  s :     3.541887
      pz      :     1.534837  p :     4.745441
      px      :     1.806517
      py      :     1.404088
      dz2     :     0.008534  d :     0.026718
      dxz     :     0.002169
      dyz     :     0.007249
      dx2y2   :     0.003808
      dxy     :     0.004958

 11 C s       :     2.876677  s :     2.876677
      pz      :     1.064621  p :     3.163311
      px      :     1.039223
      py      :     1.059467
      dz2     :     0.019081  d :     0.105578
      dxz     :     0.014785
      dyz     :     0.028966
      dx2y2   :     0.018619
      dxy     :     0.024128

 12 C s       :     2.944312  s :     2.944312
      pz      :     1.095130  p :     3.318643
      px      :     1.120127
      py      :     1.103386
      dz2     :     0.018949  d :     0.071014
      dxz     :     0.006798
      dyz     :     0.017865
      dx2y2   :     0.010061
      dxy     :     0.017342

 13 C s       :     2.948105  s :     2.948105
      pz      :     1.128345  p :     3.318612
      px      :     1.092403
      py      :     1.097864
      dz2     :     0.013089  d :     0.070766
      dxz     :     0.004611
      dyz     :     0.023085
      dx2y2   :     0.014952
      dxy     :     0.015029

 14 H s       :     0.883222  s :     0.883222

 15 H s       :     0.885288  s :     0.885288

 16 H s       :     0.881933  s :     0.881933

 17 H s       :     0.882498  s :     0.882498

 18 H s       :     0.884278  s :     0.884278

 19 H s       :     0.884417  s :     0.884417

 20 H s       :     0.882441  s :     0.882441

 21 H s       :     0.890577  s :     0.890577

 22 H s       :     0.879695  s :     0.879695

 23 H s       :     0.722311  s :     0.722311

 24 H s       :     0.888708  s :     0.888708

 25 H s       :     0.882493  s :     0.882493

 26 H s       :     0.883527  s :     0.883527

 27 H s       :     0.879752  s :     0.879752

 28 H s       :     0.888188  s :     0.888188

 29 H s       :     0.889281  s :     0.889281

 30 H s       :     0.876611  s :     0.876611


---------------------------------
LOEWDIN BOND ORDERS (THRESH 0.050000)
---------------------------------
B(  0-C ,  1-C ) :   1.0965 B(  0-C ,  3-C ) :   0.0539 B(  0-C ,  9-C ) :   0.0584 
B(  0-C , 14-H ) :   0.9350 B(  0-C , 15-H ) :   0.9354 B(  0-C , 16-H ) :   0.9358 
B(  1-C ,  2-H ) :   0.8765 B(  1-C ,  3-C ) :   1.0514 B(  1-C ,  7-C ) :   0.0536 
B(  1-C ,  9-C ) :   1.0475 B(  3-C ,  4-C ) :   1.0922 B(  3-C , 17-H ) :   0.8993 
B(  3-C , 18-H ) :   0.8970 B(  4-C ,  5-C ) :   1.0375 B(  4-C ,  7-C ) :   0.0507 
B(  4-C , 11-C ) :   0.0542 B(  4-C , 19-H ) :   0.9004 B(  4-C , 20-H ) :   0.8965 
B(  5-C ,  6-H ) :   0.8612 B(  5-C ,  7-C ) :   1.0224 B(  5-C ,  9-C ) :   0.0558 
B(  5-C , 10-O ) :   0.0684 B(  5-C , 11-C ) :   1.0281 B(  5-C , 13-C ) :   0.0532 
B(  7-C ,  8-H ) :   0.8709 B(  7-C ,  9-C ) :   1.0586 B(  7-C , 10-O ) :   1.2056 
B(  9-C , 10-O ) :   0.0779 B(  9-C , 21-H ) :   0.8926 B(  9-C , 22-H ) :   0.8987 
B( 10-O , 23-H ) :   0.8843 B( 11-C , 12-C ) :   1.0946 B( 11-C , 13-C ) :   1.0938 
B( 11-C , 24-H ) :   0.8684 B( 12-C , 13-C ) :   0.0565 B( 12-C , 25-H ) :   0.9315 
B( 12-C , 26-H ) :   0.9303 B( 12-C , 27-H ) :   0.9317 B( 13-C , 28-H ) :   0.9328 
B( 13-C , 29-H ) :   0.9359 B( 13-C , 30-H ) :   0.9284 

------------------------------------------
LOEWDIN REDUCED ORBITAL POPULATIONS PER MO
-------------------------------------------
THRESHOLD FOR PRINTING IS 0.1%%
                      0         1         2         3         4         5   
                 -18.73806  -9.93204  -9.89391  -9.88970  -9.88912  -9.88267
                   2.00000   2.00000   2.00000   2.00000   2.00000   2.00000
                  --------  --------  --------  --------  --------  --------
 1 C  s               0.0       0.0      99.6       0.0       0.0       0.0
 4 C  s               0.0       0.0       0.0       0.0       0.0      99.6
 5 C  s               0.0       0.0       0.0      99.5       0.0       0.0
 7 C  s               0.0      99.6       0.0       0.0       0.0       0.0
 9 C  px              0.0       0.1       0.0       0.0       0.0       0.0
10 O  s              99.9       0.0       0.0       0.0       0.0       0.0
11 C  s               0.0       0.0       0.0       0.0      99.5       0.0

                      6         7         8         9        10        11   
                  -9.88056  -9.87937  -9.87361  -9.86965  -9.85896  -0.91714
                   2.00000   2.00000   2.00000   2.00000   2.00000   2.00000
                  --------  --------  --------  --------  --------  --------
 0 C  s               0.0       0.0      99.7       0.0       0.0       0.0
 3 C  s              99.6       0.0       0.0       0.0       0.0       0.0
 5 C  s               0.0       0.0       0.0       0.0       0.0       0.9
 5 C  pz              0.0       0.0       0.0       0.0       0.0       0.4
 5 C  py              0.0       0.0       0.0       0.0       0.0       0.7
 6 H  s               0.0       0.0       0.0       0.0       0.0       0.2
 7 C  s               0.0       0.0       0.0       0.0       0.0      10.7
 7 C  px              0.0       0.1       0.0       0.0       0.0       1.0
 7 C  py              0.0       0.0       0.0       0.0       0.0       7.3
 7 C  dz2             0.0       0.0       0.0       0.0       0.0       0.2
 7 C  dx2y2           0.0       0.0       0.0       0.0       0.0       0.3
 7 C  dxy             0.0       0.0       0.0       0.0       0.0       0.3
 8 H  s               0.0       0.0       0.0       0.0       0.0       1.4
 9 C  s               0.0      99.6       0.0       0.0       0.0       0.9
 9 C  px              0.0       0.0       0.0       0.0       0.0       1.3
10 O  s               0.0       0.0       0.0       0.0       0.0      57.5
10 O  pz              0.0       0.0       0.0       0.0       0.0       1.8
10 O  px              0.0       0.0       0.0       0.0       0.0       0.8
10 O  py              0.0       0.0       0.0       0.0       0.0       0.8
12 C  s               0.0       0.0       0.0      99.7       0.0       0.0
13 C  s               0.0       0.0       0.0       0.0      99.7       0.0
21 H  s               0.0       0.1       0.0       0.0       0.0       0.2
22 H  s               0.0       0.1       0.0       0.0       0.0       0.2
23 H  s               0.0       0.0       0.0       0.0       0.0      11.9
30 H  s               0.0       0.0       0.0       0.0       0.1       0.1

                     12        13        14        15        16        17   
                  -0.75950  -0.71932  -0.66707  -0.65333  -0.60849  -0.59926
                   2.00000   2.00000   2.00000   2.00000   2.00000   2.00000
                  --------  --------  --------  --------  --------  --------
 0 C  s               3.0       4.8      10.7       1.8       9.9       9.7
 0 C  pz              0.2       0.2       0.2       0.0       0.0       0.1
 0 C  px              1.0       0.9       0.3       0.0       0.2       0.5
 0 C  py              0.0       0.0       0.0       0.2       0.0       0.0
 1 C  s              11.3       9.8       6.1       0.4       0.0       0.3
 1 C  pz              0.5       0.2       0.1       0.1       0.4       0.4
 1 C  px              0.7       0.0       2.8       0.3       4.5       4.6
 1 C  py              0.0       0.0       0.4       7.1       0.0       0.1
 1 C  dxy             0.0       0.0       0.0       0.2       0.0       0.0
 2 H  s               1.8       1.8       1.5       0.1       0.0       0.1
 3 C  s              10.3       2.5       1.5      11.5       3.0       4.4
 3 C  pz              0.2       0.1       1.3       0.4       0.2       0.2
 3 C  px              0.0       1.0       3.2       0.0       0.1       0.0
 3 C  py              1.5       0.5       0.1       0.2       0.0       0.0
 4 C  s              10.2       0.3      12.2       5.9       0.1       0.1
 4 C  pz              1.1       0.1       0.1       0.3       0.6       0.4
 4 C  px              0.0       1.8       0.0       0.9       1.1       1.7
 4 C  py              0.5       0.4       0.2       1.6       1.0       0.6
 5 C  s              10.2       7.0       4.5       1.0       5.7       3.0
 5 C  pz              0.1       0.1       0.2       1.0       0.7       0.0
 5 C  px              0.4       2.7       3.8       0.2       0.2       0.0
 5 C  py              0.5       0.2       0.4       2.9       0.2       0.1
 6 H  s               1.7       1.4       0.9       0.2       2.5       0.6
 7 C  s               4.2       0.0       0.9      12.2       0.0       0.1
 7 C  pz              0.7       0.3       0.4       0.0       0.9       0.2
 7 C  px              0.7       2.0       0.2       2.7       1.7       0.9
 7 C  py              2.9       0.4       0.7       0.7       0.2       0.2
 7 C  dx2y2           0.1       0.0       0.0       0.1       0.0       0.0
 8 H  s               0.9       0.0       0.1       2.8       0.1       0.0
 9 C  s               7.6       3.9       1.0      14.7       1.9       1.1
 9 C  pz              0.0       0.0       0.1       0.0       0.1       0.1
 9 C  px              0.0       0.5       1.8       1.7       0.1       0.0
 9 C  py              1.8       0.7       0.2       0.3       0.0       0.0
10 O  s               2.3       0.1       0.1       3.4       0.0       0.0
10 O  pz              0.1       0.0       0.0       0.8       0.0       0.0
10 O  px              0.0       0.0       0.0       0.4       0.1       0.0
10 O  py              0.4       0.0       0.2       3.1       0.0       0.0
11 C  s               4.5      18.4       4.7       0.1       0.1       0.0
11 C  pz              0.0       0.2       1.1       0.0       4.7       0.5
11 C  px              0.7       0.0       3.0       0.2       0.3       4.9
11 C  py              0.1       0.1       0.0       0.2       5.2       4.6
11 C  dz2             0.0       0.0       0.0       0.0       0.1       0.1
11 C  dxy             0.0       0.0       0.0       0.0       0.0       0.2
12 C  s               1.3       8.2       5.9       0.5      18.8       6.4
12 C  pz              0.4       1.4       0.2       0.0       0.3       0.1
12 C  px              0.0       0.0       0.1       0.0       0.0       0.2
12 C  py              0.2       0.7       0.2       0.0       0.2       0.3
13 C  s               0.9       7.4       6.2       0.1       3.7      20.2
13 C  pz              0.0       0.0       0.0       0.0       0.2       0.0
13 C  px              0.3       0.9       0.1       0.0       0.0       0.2
13 C  py              0.3       1.2       0.5       0.0       0.2       0.2
14 H  s               0.5       0.9       2.2       0.6       2.7       2.8
15 H  s               0.6       0.9       2.1       0.5       2.6       2.7
16 H  s               0.5       0.9       2.4       0.2       2.8       2.9
17 H  s               1.6       0.5       0.2       3.3       0.6       1.0
18 H  s               1.9       0.3       0.4       2.4       1.4       1.1
19 H  s               1.9       0.0       2.6       1.3       0.1       0.0
20 H  s               1.7       0.2       2.5       1.7       0.0       0.1
21 H  s               1.5       0.7       0.2       3.1       0.2       0.1
22 H  s               1.0       0.7       0.4       3.3       0.5       0.3
23 H  s               0.7       0.0       0.1       2.0       0.0       0.0
24 H  s               0.8       3.4       0.9       0.1       0.0       0.0
25 H  s               0.3       1.6       1.2       0.1       5.1       1.6
26 H  s               0.3       1.4       0.9       0.2       5.6       2.2
27 H  s               0.2       1.5       1.5       0.1       5.2       1.4
28 H  s               0.1       1.3       1.5       0.0       0.6       5.5
29 H  s               0.2       1.3       1.1       0.0       1.4       5.7
30 H  s               0.1       1.3       1.3       0.0       0.9       5.0

                     18        19        20        21        22        23   
                  -0.55989  -0.53796  -0.49507  -0.48242  -0.44110  -0.43455
                   2.00000   2.00000   2.00000   2.00000   2.00000   2.00000
                  --------  --------  --------  --------  --------  --------
 0 C  s               0.5       4.1       0.1       1.0       0.7       0.0
 0 C  pz              0.0       1.6       0.1       3.5       0.0       1.8
 0 C  px              0.1       1.9       0.2       1.7       4.0       1.6
 0 C  py              0.6       0.0       0.0       0.3       0.3       0.2
 0 C  dxz             0.0       0.1       0.0       0.1       0.0       0.0
 1 C  s               0.0       6.2       0.6       7.1       0.4       0.2
 1 C  pz              0.2       2.4       0.0       4.3       1.9       6.1
 1 C  px              0.0       0.6       0.0       0.8       0.3       2.3
 1 C  py              6.5       0.2       0.1       0.9       1.5       0.3
 2 H  s               0.1       3.5       0.2       6.9       0.1       1.9
 3 C  s               3.8       0.3       0.3       5.1       0.2       0.5
 3 C  pz              1.8       4.3       0.2       0.3       1.8       3.6
 3 C  px              0.6       2.2       0.2       0.1       7.8       0.9
 3 C  py              0.3       0.6       1.7       4.2       0.5       8.3
 3 C  dxz             0.0       0.0       0.0       0.1       0.0       0.0
 4 C  s               4.5       5.9       0.2       3.9       0.1       0.0
 4 C  pz              2.1       0.8       0.0       4.1       5.0       0.0
 4 C  px              0.4       0.9       0.1       0.9       2.8       5.0
 4 C  py              0.0       1.2       4.6       0.0       0.2       2.1
 5 C  s               0.0       3.7       2.4       0.2       0.1       1.2
 5 C  pz              4.3       0.1       0.1       0.2       6.8       2.2
 5 C  px              0.0       4.2       5.3       0.1       0.4       1.8
 5 C  py              2.9       0.2       3.7       2.2       5.2       0.0
 6 H  s               0.1       1.9       2.4       0.4       4.5       2.5
 7 C  s               8.6       1.9       0.1       0.0       0.1       0.6
 7 C  pz              2.3       1.4       5.9       5.9       2.6       0.0
 7 C  px              4.7       0.5       0.4       1.8       1.3       0.2
 7 C  py              0.7       0.6       3.3       0.3       8.7       2.1
 7 C  dxy             0.0       0.0       0.0       0.1       0.1       0.0
 8 H  s               5.8       1.0       0.6       1.4       2.8       0.3
 9 C  s               8.3       0.2       0.9       1.5       0.0       0.7
 9 C  pz              0.9       0.2       0.8       4.4       3.4       1.6
 9 C  px              2.9       1.2       0.1       1.3       0.4       2.9
 9 C  py              0.5       1.6       2.1       3.6       0.6       7.3
10 O  s               0.4       0.1       0.1       0.7       0.0       0.0
10 O  pz              3.4       1.6       4.0       4.2       2.0       0.4
10 O  px              0.0       0.3       0.6       0.2       0.3       0.0
10 O  py              9.5       2.6       2.5       2.1      12.1       0.8
11 C  s               0.2       3.1       8.7       0.4       0.0       1.9
11 C  pz              0.3       1.8       3.0       0.0       0.4       0.2
11 C  px              0.1       2.9       0.1       0.0       0.6       3.8
11 C  py              0.5       0.0       2.1       0.0       0.1       1.1
12 C  s               0.0       1.1       3.0       0.0       0.4       0.3
12 C  pz              0.1       1.1       6.3       0.1       0.3       2.9
12 C  px              0.1       0.2       0.0       0.0       1.7       1.4
12 C  py              0.1       0.1       0.5       0.0       0.3       1.3
12 C  dyz             0.0       0.0       0.1       0.0       0.0       0.1
13 C  s               0.0       4.5       2.1       0.2       0.2       0.3
13 C  pz              0.0       0.3       0.4       0.1       0.1       0.1
13 C  px              0.0       1.5       1.1       0.2       0.2       0.0
13 C  py              0.1       0.6       3.4       0.2       0.2       3.9
14 H  s               0.5       1.6       0.1       0.9       0.5       0.2
15 H  s               0.1       2.5       0.1       1.9       0.0       0.9
16 H  s               0.0       1.9       0.1       0.5       1.9       0.8
17 H  s               1.6       0.0       0.6       4.4       2.2       1.4
18 H  s               2.0       0.3       0.1       3.2       1.6       4.2
19 H  s               2.3       3.2       0.0       2.5       2.4       1.2
20 H  s               2.0       2.3       1.7       2.6       0.3       1.5
21 H  s               4.6       0.3       0.1       3.8       1.7       0.1
22 H  s               3.3       0.1       1.7       0.3       0.0       5.8
23 H  s               3.9       1.3       1.8       1.5       3.6       0.4
24 H  s               0.4       1.3       7.6       0.1       0.1       1.5
25 H  s               0.1       0.7       3.0       0.1       0.0       0.8
26 H  s               0.0       0.4       1.2       0.0       0.0       2.0
27 H  s               0.0       0.8       1.9       0.0       1.3       0.0
28 H  s               0.0       2.4       1.2       0.1       0.1       0.0
29 H  s               0.0       1.3       1.3       0.0       0.0       1.2
30 H  s               0.0       1.8       2.0       0.2       0.2       0.7

                     24        25        26        27        28        29   
                  -0.41944  -0.39742  -0.38349  -0.37388  -0.36821  -0.35240
                   2.00000   2.00000   2.00000   2.00000   2.00000   2.00000
                  --------  --------  --------  --------  --------  --------
 0 C  s               0.1       0.0       0.0       0.1       0.0       0.0
 0 C  pz              1.2       3.1       3.5       3.6       0.9       0.3
 0 C  px              2.6       0.5       1.5       3.9       0.2       5.3
 0 C  py              3.0       2.9       7.2       4.4       8.1       0.1
 1 C  s               0.0       0.0       0.0       0.5       0.0       0.0
 1 C  pz              5.8       3.4       1.6       0.4       0.0       1.5
 1 C  px              0.0       1.8       1.1       4.2       1.5       2.3
 1 C  py              2.8       0.8       1.3       2.0       3.8       0.1
 2 H  s               2.1       1.7       1.0       0.1       0.0       0.6
 3 C  s               0.0       0.1       0.1       0.6       0.0       0.0
 3 C  pz              1.9       1.5       0.9       0.8       4.0       0.2
 3 C  px              0.3       2.5       5.8       1.4       0.1       2.5
 3 C  py              0.0       2.6       0.0       0.3       3.7       6.8
 4 C  s               0.0       0.3       0.2       0.0       0.0       0.2
 4 C  pz              0.8       4.4       2.4       0.3       0.3       0.0
 4 C  px              0.7       1.2       0.0       2.9       2.4       2.9
 4 C  py              0.7       1.2       0.0       2.4       9.1       0.2
 4 C  dxy             0.0       0.0       0.0       0.0       0.1       0.1
 5 C  s               0.0       0.0       0.0       0.1       0.4       2.0
 5 C  pz              4.2       0.6       0.9       6.5       2.0       0.1
 5 C  px              2.9       0.1       3.3       0.2       0.4       0.7
 5 C  py              0.0       1.3       0.5       1.1       7.4       0.3
 5 C  dxz             0.1       0.0       0.0       0.0       0.1       0.0
 5 C  dxy             0.0       0.0       0.0       0.1       0.1       0.0
 6 H  s               0.9       0.0       0.3       4.3       0.0       0.5
 7 C  s               0.9       0.3       0.0       0.5       1.8       0.2
 7 C  pz              0.5       0.1       7.8       3.7       0.2       3.2
 7 C  px              7.2       0.5       2.4       0.0       0.8       1.2
 7 C  py              0.2       0.8       0.8       0.0       3.0       3.7
 7 C  dz2             0.0       0.0       0.0       0.0       0.1       0.2
 7 C  dxy             0.0       0.2       0.0       0.0       0.0       0.1
 8 H  s               0.1       0.3       3.8       0.9       1.2       3.5
 9 C  s               0.3       0.1       0.1       0.0       0.1       0.0
 9 C  pz              2.1       1.9       2.7       5.4       0.2       0.6
 9 C  px              9.3       0.8       0.9       0.9       0.1       2.9
 9 C  py              0.2       2.5       0.0       0.4       2.2       0.6
 9 C  dx2y2           0.1       0.0       0.0       0.0       0.0       0.0
10 O  s               0.6       1.1       0.0       0.6       1.2       0.3
10 O  pz              1.0       3.9       0.1       1.8       6.8       0.6
10 O  px              3.2       0.2       0.0       0.5       0.3       1.5
10 O  py              0.1       1.8       5.4       0.9       0.2       3.4
11 C  s               0.1       0.5       0.0       0.0       0.0       0.6
11 C  pz              4.0       5.9       2.9       0.6       2.7       0.0
11 C  px              4.9       0.1       3.2       2.2       0.7       0.0
11 C  py              4.0       3.1       0.4       2.9       0.1       2.2
11 C  dx2y2           0.0       0.0       0.0       0.0       0.0       0.1
12 C  s               0.0       0.0       0.1       0.0       0.0       0.1
12 C  pz              0.5       0.2       2.4       3.9       0.0       0.5
12 C  px              3.0       0.5       4.4       6.1       0.1       6.0
12 C  py              3.9      11.3       1.3       1.2       4.7       0.1
13 C  s               0.0       0.2       0.0       0.3       0.0       0.0
13 C  pz              1.9       4.0       4.0       0.2       7.9       3.0
13 C  px              4.0       2.9       0.6       1.8       0.4      11.1
13 C  py              1.0       1.6       3.9       2.3       0.0       0.8
13 C  dxy             0.0       0.1       0.0       0.0       0.0       0.1
14 H  s               2.8       1.8       0.6       0.6       2.8       1.3
15 H  s               0.3       1.3       2.1       1.3       0.5       0.2
16 H  s               0.0       0.2       4.3       3.5       2.1       0.7
17 H  s               0.0       2.3       0.8       0.2       1.4       5.8
18 H  s               0.1       1.4       1.6       1.6       0.5       0.2
19 H  s               0.0       2.3       0.6       1.2       0.1       1.0
20 H  s               0.0       0.4       0.0       2.6       1.6       0.0
21 H  s               1.8       0.3       0.7       1.8       0.5       0.0
22 H  s               0.1       1.2       0.4       0.9       0.7       1.6
23 H  s               0.3       1.5       0.7       0.0       1.4       0.2
24 H  s               3.4       1.7       0.0       0.0       0.9       0.0
25 H  s               1.4       1.3       1.2       1.4       0.4       1.0
26 H  s               0.2       4.9       2.0       2.6       1.3       0.9
27 H  s               2.1       0.1       0.6       2.5       0.6       2.9
28 H  s               1.6       0.6       1.2       0.6       0.7       7.4
29 H  s               0.3       3.0       3.6       0.2       2.4       1.8
30 H  s               1.7       0.1       0.0       0.6       1.8       0.0

                     30        31        32        33        34        35   
                  -0.34294  -0.33804  -0.33581  -0.33067  -0.32230  -0.30997
                   2.00000   2.00000   2.00000   2.00000   2.00000   2.00000
                  --------  --------  --------  --------  --------  --------
 0 C  pz             14.4       6.1       0.1       0.4       4.5       0.9
 0 C  px              4.4       0.5       0.2       1.4       0.1       4.8
 0 C  py              0.6       0.0      10.0       1.7       8.1       4.0
 0 C  dz2             0.3       0.1       0.0       0.0       0.2       0.2
 0 C  dxy             0.0       0.0       0.2       0.0       0.2       0.1
 1 C  s               0.5       0.0       0.1       0.1       0.1       0.0
 1 C  pz              0.0       1.2       0.3       0.5       2.9       0.6
 1 C  px              0.6       2.1       0.2       0.3       0.0       4.5
 1 C  py              0.0       0.5       0.2       0.1       0.0       4.8
 1 C  dz2             0.1       0.0       0.0       0.0       0.1       0.1
 1 C  dyz             0.0       0.0       0.0       0.1       0.0       0.0
 1 C  dxy             0.0       0.0       0.1       0.0       0.0       0.2
 2 H  s               0.2       0.3       0.2       0.1       1.8       1.2
 3 C  s               0.3       0.0       0.0       0.2       0.2       0.0
 3 C  pz              5.8       0.1       2.6       6.9       1.2       1.7
 3 C  px              0.0       0.2       1.9       0.0       2.1       0.1
 3 C  py              0.2       0.0       1.6       0.5       0.2       0.1
 3 C  dz2             0.0       0.0       0.0       0.0       0.1       0.0
 3 C  dxz             0.0       0.0       0.1       0.1       0.0       0.0
 3 C  dxy             0.1       0.0       0.0       0.0       0.0       0.0
 4 C  s               0.0       0.0       0.2       0.1       0.1       0.3
 4 C  pz              2.2       1.1       8.9       5.9       0.7       0.0
 4 C  px              8.7       1.8       1.2       0.9       1.7       0.1
 4 C  py              7.8       0.0       3.6       0.5       0.0       4.6
 4 C  dz2             0.0       0.0       0.0       0.0       0.1       0.0
 4 C  dxz             0.0       0.0       0.2       0.0       0.1       0.1
 4 C  dxy             0.2       0.0       0.0       0.1       0.0       0.0
 5 C  s               0.2       0.0       0.2       0.6       0.0       0.0
 5 C  pz              0.6       0.0       0.9       0.1       2.7       2.1
 5 C  px              0.6       0.1       0.3       0.0       0.4       1.4
 5 C  py              0.2       1.8       0.0       0.3       1.9       3.3
 6 H  s               0.2       0.3       0.2       0.0       0.2       3.2
 7 C  s               0.3       0.0       0.0       0.1       0.0       0.1
 7 C  pz              0.5       0.7       0.8       1.4       0.2       0.1
 7 C  px              0.8       0.0       0.2       0.5       9.2       0.0
 7 C  py              0.7       0.1       0.0       2.9       1.0       0.0
 7 C  dz2             0.0       0.0       0.1       0.1       0.0       0.0
 7 C  dxz             0.0       0.1       0.0       0.1       0.0       0.0
 7 C  dxy             0.0       0.0       0.0       0.0       0.0       0.2
 8 H  s               0.1       1.0       1.3       2.7       0.2       0.2
 9 C  s               0.1       0.0       0.2       0.3       0.0       0.8
 9 C  pz              0.0       7.1       1.9      13.6       0.0       0.2
 9 C  px              1.8       0.0       0.4       0.0       7.4       0.1
 9 C  py              1.7       0.0       0.0       1.0       2.4      10.2
 9 C  dz2             0.0       0.0       0.0       0.3       0.1       0.0
 9 C  dyz             0.0       0.0       0.0       0.2       0.0       0.0
10 O  s               1.0       0.1       0.0       0.7       0.0       0.4
10 O  pz              3.4       0.6       0.0       1.8       1.4       0.5
10 O  px              2.1       0.5       0.3       9.1       2.4       2.0
10 O  py              0.9       0.4       0.4       1.7       0.8       0.0
11 C  s               0.0       0.0       0.1       0.0       0.0       0.0
11 C  pz              0.1       2.4       0.4       0.2       0.0       0.4
11 C  px              0.0       0.4       0.0       0.7       1.1       0.0
11 C  py              0.3       1.0       1.8       0.0       0.0       0.0
11 C  dxz             0.0       0.0       0.1       0.0       0.1       0.0
11 C  dx2y2           0.0       0.1       0.0       0.1       0.0       0.0
12 C  pz              1.2      14.7       0.8       0.4       0.0       0.7
12 C  px              0.1       0.0      17.1       2.8       1.6       5.0
12 C  py              1.9       7.2       0.9       1.5       0.0       0.0
[...]
 9 C  s               0.7       0.0       0.0       0.4       0.1       0.0
 9 C  px              0.1       0.1       0.1       1.2       0.2       0.3
 9 C  py              0.6       0.3       0.1       0.1       0.2       0.0
 9 C  dz2             3.1       0.1       0.6       1.2       0.0       0.0
 9 C  dxz             0.0       0.2       0.3       0.0       0.1       0.5
 9 C  dyz             0.1       0.8       0.3       0.1       0.6       0.1
 9 C  dx2y2           0.3       5.7       1.2       8.4       0.6       0.6
 9 C  dxy             5.2       0.2       0.4       0.0       2.5       0.0
10 O  s               0.1       0.1       0.1       0.0       0.9       1.1
10 O  pz              0.0       0.0       0.0       0.0       1.8       0.4
10 O  px              0.0       0.0       0.0       0.0       0.2       0.5
10 O  py              0.0       0.1       0.0       0.0       0.1       0.1
10 O  dz2             3.3       0.0       0.0       0.1      17.5      10.8
10 O  dxz             3.0       0.3       0.9       3.8      32.5       1.6
10 O  dyz             2.5       0.5       5.8       0.4      11.2      50.5
10 O  dx2y2           1.3       2.0       0.7       1.6       0.1       0.0
10 O  dxy             3.1       0.5       0.3       2.5       5.7      10.8
11 C  s               0.1       0.0       0.1       0.3       0.0       0.0
11 C  pz              0.1       0.4       0.3       0.1       0.0       0.0
11 C  px              0.1       0.2       0.8       2.0       0.2       0.0
11 C  py              0.5       0.6       0.1       0.1       0.0       0.0
11 C  dz2             2.0       3.8       0.5       1.2       0.1       0.0
11 C  dxz             0.6       0.2       2.2       0.1       0.3       0.2
11 C  dyz             0.4       7.8       0.6       0.1       0.1       0.1
11 C  dx2y2           0.2       1.1      10.5       3.9       0.3       0.2
11 C  dxy             4.1       7.8       0.4       9.8       1.1       0.1
12 C  s               0.1       0.5       0.1       0.0       0.0       0.0
12 C  pz              0.1       0.7       0.1       0.1       0.0       0.0
12 C  py              0.1       0.5       0.1       0.0       0.0       0.0
12 C  dz2             0.3       2.9       1.2       0.1       0.0       0.0
12 C  dxz             0.0       0.1       0.1       0.2       0.1       0.0
12 C  dyz             0.6       3.4       0.2       0.2       0.0       0.0
12 C  dx2y2           0.0       0.6       0.1       0.1       0.0       0.0
12 C  dxy             0.1       0.0       0.2       0.0       0.0       0.0
13 C  s               0.4       0.3       0.1       0.2       0.1       0.0
13 C  px              0.3       0.4       0.1       0.4       0.1       0.0
13 C  py              0.3       0.6       0.0       0.2       0.1       0.0
13 C  dz2             0.7       1.0       0.1       0.5       0.2       0.0
13 C  dxz             0.0       0.2       0.2       0.0       0.0       0.0
13 C  dyz             0.0       0.0       0.2       0.0       0.0       0.0
13 C  dx2y2           0.3       1.6       1.9       0.0       0.0       0.0
13 C  dxy             2.5       3.7       0.3       2.2       0.4       0.0
14 H  s               0.1       0.0       0.0       0.0       0.0       0.0
17 H  s               0.0       0.2       0.0       0.0       0.0       0.0
18 H  s               0.1       0.1       0.0       0.0       0.0       0.0
19 H  s               0.1       0.0       0.1       0.0       0.0       0.0
20 H  s               0.1       0.1       0.0       0.0       0.1       0.0
21 H  s               0.2       0.1       0.1       0.1       0.0       0.0
22 H  s               0.2       0.0       0.0       0.0       0.1       0.0
23 H  s               0.0       0.0       0.1       0.0       1.1       4.8
28 H  s               0.0       0.1       0.0       0.1       0.0       0.0

                    192       193   
                   2.95610   3.33186
                   0.00000   0.00000
                  --------  --------
 0 C  dxz             0.1       0.0
 1 C  py              0.2       0.0
 1 C  dxz             0.1       0.0
 1 C  dyz             0.3       0.0
 1 C  dx2y2           1.4       0.0
 1 C  dxy             0.1       0.1
 3 C  dxz             0.2       0.0
 3 C  dx2y2           0.1       0.0
 4 C  px              0.1       0.0
 4 C  dz2             0.2       0.0
 4 C  dxz             0.2       0.0
 4 C  dxy             0.1       0.0
 5 C  pz              0.1       0.0
 5 C  py              0.5       0.0
 5 C  dz2             1.5       0.0
 5 C  dxz             1.1       0.1
 5 C  dyz             0.0       0.1
 5 C  dxy             0.5       0.2
 7 C  s               0.0       2.2
 7 C  px              0.2       0.7
 7 C  py              0.3       3.4
 7 C  dz2             0.0       2.8
 7 C  dxz             0.2       0.0
 7 C  dyz             0.3       0.0
 7 C  dx2y2           5.6       5.3
 7 C  dxy             9.3       5.2
 8 H  s               0.0       0.1
 9 C  px              0.4       0.1
 9 C  dxz             0.1       0.0
 9 C  dx2y2           0.6       0.3
 9 C  dxy             4.7       0.1
10 O  s               0.7       5.3
10 O  pz              0.7       0.2
10 O  px              0.3       0.5
10 O  py              0.1       4.2
10 O  dz2             6.1      18.9
10 O  dxz             1.7       0.0
10 O  dyz             2.4       0.9
10 O  dx2y2          39.6      22.3
10 O  dxy            16.1      25.2
11 C  s               0.1       0.0
23 H  s               2.1       0.7


                      *****************************
                      * MAYER POPULATION ANALYSIS *
                      *****************************

  NA   - Mulliken gross atomic population
  ZA   - Total nuclear charge
  QA   - Mulliken gross atomic charge
  VA   - Mayer's total valence
  BVA  - Mayer's bonded valence
  FA   - Mayer's free valence

  ATOM       NA         ZA         QA         VA         BVA        FA
  0 C      6.2415     6.0000    -0.2415     3.9699     3.9699     0.0000
  1 C      6.1841     6.0000    -0.1841     4.2737     4.2737     0.0000
  2 H      0.9319     1.0000     0.0681     0.9397     0.9397    -0.0000
  3 C      6.1154     6.0000    -0.1154     4.1483     4.1483    -0.0000
  4 C      6.1056     6.0000    -0.1056     4.1318     4.1318     0.0000
  5 C      6.1099     6.0000    -0.1099     4.0416     4.0416    -0.0000
  6 H      0.9643     1.0000     0.0357     0.9675     0.9675    -0.0000
  7 C      5.9653     6.0000     0.0347     4.1632     4.1632    -0.0000
  8 H      0.9335     1.0000     0.0665     0.9655     0.9655    -0.0000
  9 C      6.0754     6.0000    -0.0754     4.0383     4.0383     0.0000
 10 O      8.4127     8.0000    -0.4127     2.0182     2.0182     0.0000
 11 C      6.1447     6.0000    -0.1447     4.2605     4.2605     0.0000
 12 C      6.2720     6.0000    -0.2720     3.9664     3.9664     0.0000
 13 C      6.2377     6.0000    -0.2377     3.9567     3.9567     0.0000
 14 H      0.9014     1.0000     0.0986     0.9534     0.9534     0.0000
 15 H      0.9043     1.0000     0.0957     0.9668     0.9668     0.0000
 16 H      0.8998     1.0000     0.1002     0.9539     0.9539     0.0000
 17 H      0.9230     1.0000     0.0770     0.9575     0.9575    -0.0000
 18 H      0.9183     1.0000     0.0817     0.9569     0.9569    -0.0000
 19 H      0.9293     1.0000     0.0707     0.9515     0.9515    -0.0000
 20 H      0.9198     1.0000     0.0802     0.9611     0.9611     0.0000
 21 H      0.9529     1.0000     0.0471     0.9728     0.9728     0.0000
 22 H      0.9148     1.0000     0.0852     0.9614     0.9614     0.0000
 23 H      0.7094     1.0000     0.2906     0.8940     0.8940     0.0000
 24 H      0.9355     1.0000     0.0645     0.9389     0.9389     0.0000
 25 H      0.8938     1.0000     0.1062     0.9668     0.9668     0.0000
 26 H      0.8884     1.0000     0.1116     0.9571     0.9571     0.0000
 27 H      0.9024     1.0000     0.0976     0.9575     0.9575     0.0000
 28 H      0.9124     1.0000     0.0876     0.9549     0.9549    -0.0000
 29 H      0.9191     1.0000     0.0809     0.9624     0.9624     0.0000
 30 H      0.8814     1.0000     0.1186     0.9901     0.9901     0.0000

  Mayer bond orders larger than 0.100000
B(  0-C ,  1-C ) :   1.1166 B(  0-C , 14-H ) :   0.9466 B(  0-C , 15-H ) :   0.9452 
B(  0-C , 16-H ) :   0.9493 B(  1-C ,  2-H ) :   0.8949 B(  1-C ,  3-C ) :   1.0909 
B(  1-C ,  9-C ) :   1.0839 B(  3-C ,  4-C ) :   1.1944 B(  3-C , 17-H ) :   0.9138 
B(  3-C , 18-H ) :   0.8930 B(  4-C ,  5-C ) :   1.0637 B(  4-C , 19-H ) :   0.8950 
B(  4-C , 20-H ) :   0.9055 B(  5-C ,  6-H ) :   0.8659 B(  5-C ,  7-C ) :   1.0128 
B(  5-C , 11-C ) :   1.0566 B(  7-C ,  8-H ) :   0.8749 B(  7-C ,  9-C ) :   1.1401 
B(  7-C , 10-O ) :   1.0262 B(  9-C , 21-H ) :   0.8808 B(  9-C , 22-H ) :   0.9045 
B( 10-O , 23-H ) :   0.8500 B( 11-C , 12-C ) :   1.1175 B( 11-C , 13-C ) :   1.1203 
B( 11-C , 24-H ) :   0.8945 B( 12-C , 25-H ) :   0.9411 B( 12-C , 26-H ) :   0.9377 
B( 12-C , 27-H ) :   0.9442 B( 13-C , 28-H ) :   0.9455 B( 13-C , 29-H ) :   0.9475 
B( 13-C , 30-H ) :   0.9346 

-------
TIMINGS
-------

Total SCF time: 0 days 0 hours 0 min 10 sec 

Total time                  ....      10.246 sec
Sum of individual times     ....       9.833 sec  ( 96.0%)

SCF preparation             ....       0.182 sec  (  1.8%)
Fock matrix formation       ....       8.891 sec  ( 86.8%)
  Startup                   ....       0.051 sec  (  0.6% of F)
  Split-RI-J                ....       4.098 sec  ( 46.1% of F)
  XC integration            ....       4.291 sec  ( 48.3% of F)
    Basis function eval.    ....       1.502 sec  ( 35.0% of XC)
    Density eval.           ....       0.801 sec  ( 18.7% of XC)
    XC-Functional eval.     ....       0.280 sec  (  6.5% of XC)
    XC-Potential eval.      ....       1.114 sec  ( 26.0% of XC)
Diagonalization             ....       0.000 sec  (  0.0%)
Density matrix formation    ....       0.181 sec  (  1.8%)
Total Energy calculation    ....       0.032 sec  (  0.3%)
Population analysis         ....       0.099 sec  (  1.0%)
Orbital Transformation      ....       0.051 sec  (  0.5%)
Orbital Orthonormalization  ....       0.000 sec  (  0.0%)
DIIS solution               ....       0.313 sec  (  3.1%)
  MO trafo                  ....       0.000 sec  (  0.0 % of DIIS)
  Orb grad                  ....       0.000 sec  (  0.0 % of DIIS)
  Energy W gradient         ....       0.000 sec  (  0.0 % of DIIS)
  DIIS error                ....       0.004 sec  (  1.4 % of DIIS)
  DIIS work                 ....       0.260 sec  ( 83.0 % of DIIS)
  Form Q                    ....       0.000 sec  (  0.0 % of DIIS)
  Form QpQm                 ....       0.000 sec  (  0.0 % of DIIS)
  Exp/Cayley                ....       0.000 sec  (  0.0 % of DIIS)
  Orb update                ....       0.000 sec  (  0.0 % of DIIS)
  Wake-sleep                ....       0.022 sec  (  6.9 % of DIIS)
SOSCF solution              ....       0.083 sec  (  0.8%)
  MO trafo                  ....       0.048 sec  ( 57.6 % of SOSCF)
  Orb grad                  ....       0.001 sec  (  1.7 % of SOSCF)
  Rot update                ....       0.013 sec  ( 15.8 % of SOSCF)
  Step                      ....       0.021 sec  ( 24.8 % of SOSCF)
Finished LeanSCF after  10.3 sec

Maximum memory used throughout the entire LEANSCF-calculation: 20.5 MB


-------------------------------------------------------------------------------
                          DFT DISPERSION CORRECTION                            
                                                                               
                                DFTD4 V3.4.0                                   
-------------------------------------------------------------------------------
The PBE functional is recognized
Active option DFTDOPT                   ...         5   

-------------------------   ----------------
Dispersion correction           -0.032452742
-------------------------   ----------------

------------------   -----------------
gCP correction             0.144574441
------------------   -----------------

-------------------------   --------------------
FINAL SINGLE POINT ENERGY      -467.188285195385
-------------------------   --------------------


------------------------------------------------------------------------------
                              ORCA PROPERTY CALCULATIONS
------------------------------------------------------------------------------

GBWName                                 ... sp.gbw
Number of atoms                         ...     31
Number of basis functions               ...    194
Max core memory                         ...   1024 MB

Electric properties:
Dipole moment                           ... YES
Quadrupole moment                       ...  NO
Static polarizability (Dipole/Dipole)   ...  NO
Static polarizability (Dipole/Quad.)    ...  NO
Static polarizability (Quad./Quad.)     ...  NO
Static polarizability (Velocity)        ...  NO

Atomic electric properties:
Dipole moment                           ...  NO
Quadrupole moment                       ...  NO
Static polarizability                   ...  NO

Choice of electric origin               ... Center of mass
Position of electric origin             ...     0.000003     0.000016     0.000003

General magnetic properties:
Magnetizability                         ...  NO

EPR properties:
g-Tensor (aka g-matrix)                 ...  NO
Zero-Field splitting spin-orbit         ...  NO
Zero-field splitting spin-spin          ...  NO
Hyperfine couplings                     ...  NO (   0 nuclei)
Quadrupole couplings                    ...  NO (   0 nuclei)
Contact density                         ...  NO (   0 nuclei)

NMR properties:
Chemical shifts                         ...  NO (   0 nuclei)
Spin-rotation constants                 ...  NO (   0 nuclei)
Spin-spin couplings                     ...  NO (   0 nuclei,    0 pairs)

Choice of magnetic origin               ... GIAO
Position of magnetic origin             ...     0.000000     0.000000     0.000000

Properties with geometric perturbations:
SCF Hessian                             ...  NO
IR spectrum                             ...  NO
VCD spectrum                            ...  NO
X-ray spectroscopy properties:
SCF XES/XAS/RIXS spectra                ...  NO


-------------
DIPOLE MOMENT
-------------

Method             : SCF
Type of density    : Electron Density
Multiplicity       :   1
Irrep              :   0
Energy             :  -467.3004068938658975 Eh
Relativity type    : 
Basis              : AO
                                X                 Y                 Z
Electronic contribution:      0.130364355      -4.155102611      -0.535176870
Nuclear contribution   :      0.188602648       4.366807518       0.952747507
                        -----------------------------------------
Total Dipole Moment    :      0.318967003       0.211704907       0.417570637
                        -----------------------------------------
Magnitude (a.u.)       :      0.566501680
Magnitude (Debye)      :      1.439932837



--------------------
Rotational spectrum 
--------------------
 
Rotational constants in cm-1:             0.060373             0.025193             0.020501 
Rotational constants in MHz :          1809.928594           755.280228           614.605174 

Dipole components along the rotational axes: 
x,y,z [a.u.] :     0.355154    -0.206895     0.389851 
x,y,z [Debye]:     0.902731    -0.525884     0.990924 

 

Dipole moment calculation done in   0.0 sec 

Maximum memory used throughout the entire PROP-calculation: 13.0 MB

--------------------------------
SUGGESTED CITATIONS FOR THIS RUN
--------------------------------

Below you find a list of papers that are relevant to this ORCA run
We neither can nor want to force you to cite these papers, but we appreciate if you do
You receive ORCA, which is the product of decades of hard work by many enthusiastic individuals, for free
The only thing we kindly ask in return is that you cite our papers,
We deeply appreciate it, if you show your appreciation for ORCA by not just citing the generic ORCA reference.

Please note that relegating all ORCA citations to the supporting information does *not* help us.
SI sections are not indexed - citations you put there will not count into any citation statistics
But we need these citations in order to attract the funding resources that allow us to do what we are doing

Therefore, if you are a happy ORCA user, please consider citing a few of the papers listed below in the main body of your paper

In addition to the list printed below, the program has created the file sp.bibtex that contains the list in bibtex format
You can import this file easily into all common literature databanks and citation aid programs


List of essential papers. We consider these as the minimum necessary citations

  1. Neese,F.
     Software update: the ORCA program system, version 5.0
     WIRES Comput. Molec. Sci., 2022 12(1)e1606
     doi.org/10.1002/wcms.1606

List of papers to cite with high priority. The work reported in these papers was absolutely
necessary for this run to complete.
Our perspective: the developers of density functionals and basis sets usually get cited in chemistry papers
Good! But without the algorithms to do something with them, the functionals or basis sets would not do anything.
Hence, in our opinion, the algorithm design and method developments papers are equally worthy of getting cited

  1. Neese,F.
     An improvement of the resolution of the identity approximation for the formation of the Coulomb matrix
     J. Comp. Chem., 2003 24(14)1740-1747
     doi.org/10.1002/jcc.10318
  2. Neese,F.
     The SHARK Integral Generation and Digestion System
     J. Comp. Chem., 2022  1-16
     doi.org/10.1002/jcc.26942
  3. Caldeweyher,E.; Bannwarth,C.; Grimme,S.
     Extension of the D3 dispersion coefficient model
     J. Chem. Phys., 2017 147 034112-XXXX
     doi.org/10.1063/1.4993215
  4. Caldeweyher,E.; Ehlert,S.; Hansen,A.; Neugebauer,H.; Spicher,S.; Bannwarth,C.; Grimme,S.
     A generally applicable atomic-charge dependent London dispersion correction
     J. Chem. Phys., 2019 150 154122-XXXX
     doi.org/10.1063/1.5090222
  5. Caldeweyher,E.; Mewes,J.; Ehlert,S.; Grimme,S.
     Extension and evaluation of the D4 London-dispersion model for periodic systems
     Phys. Chem. Chem. Phys., 2020 22(16)8499-8512
     doi.org/10.1039/D0CP00502A

List of suggested additional citations. These are papers that are important in the 'surrounding' of 
of this run, or papers that preceded the highly important papers. If you like your results we are grateful for a citation.

  1. Neese,F.
     The ORCA program system
     WIRES Comput. Molec. Sci., 2012 2(1)73-78
     doi.org/10.1002/wcms.81
  2. Neese,F.
     Software update: the ORCA program system, version 4.0
     WIRES Comput. Molec. Sci., 2018 8(1)1-6
     doi.org/10.1002/wcms.1327
  3. Neese,F.; Wennmohs,F.; Becker,U.; Riplinger,C.
     The ORCA quantum chemistry program package
     J. Chem. Phys., 2020 152 Art. No. L224108
     doi.org/10.1063/5.0004608

List of optional additional citations

  1. Neese,F.
     Approximate second-order SCF convergence for spin unrestricted wavefunctions
     Chem. Phys. Lett., 2000 325(1-3)93-98
     doi.org/10.1016/s0009-2614(00)00662-x

Timings for individual modules:

Sum of individual times          ...       12.588 sec (=   0.210 min)
Startup calculation              ...        0.990 sec (=   0.016 min)   7.9 %
SCF iterations                   ...       11.501 sec (=   0.192 min)  91.4 %
Property calculations            ...        0.097 sec (=   0.002 min)   0.8 %
                             ****ORCA TERMINATED NORMALLY****
TOTAL RUN TIME: 0 days 0 hours 0 minutes 13 seconds 406 msec
