      -----------------------------------------------------------      
     |                   =====================                   |     
     |                           x T B                           |     
     |                   =====================                   |     
     |                         S. Grimme                         |     
     |          Mulliken Center for Theoretical Chemistry        |     
     |                    University of Bonn                     |     
      -----------------------------------------------------------      

   * xtb version 6.7.1 (edcfbbe) compiled by 'albert@albert-system' on 2024-07-22

   xtb is free software: you can redistribute it and/or modify it under
   the terms of the GNU Lesser General Public License as published by
   the Free Software Foundation, either version 3 of the License, or
   (at your option) any later version.
   
   xtb is distributed in the hope that it will be useful,
   but WITHOUT ANY WARRANTY; without even the implied warranty of
   MERCHANTABILITY or FITNESS FOR A PARTICULAR PURPOSE.  See the
   GNU Lesser General Public License for more details.
   
   Cite this work as:
   * C. Bannwarth, E. Caldeweyher, S. Ehlert, A. Hansen, P. Pracht,
     J. Seibert, S. Spicher, S. Grimme, WIREs Comput. Mol. Sci., 2020, 11,
     e01493. DOI: 10.1002/wcms.1493
   
   for GFN2-xTB:
   * C. Bannwarth, S. Ehlert and S. Grimme., J. Chem. Theory Comput., 2019,
     15, 1652-1671. DOI: 10.1021/acs.jctc.8b01176
   for GFN1-xTB:
   * S. Grimme, C. Bannwarth, P. Shushkov, J. Chem. Theory Comput., 2017,
     13, 1989-2009. DOI: 10.1021/acs.jctc.7b00118
   for GFN0-xTB:
   * P. Pracht, E. Caldeweyher, S. Ehlert, S. Grimme, ChemRxiv, 2019, preprint.
     DOI: 10.26434/chemrxiv.8326202.v1
   for GFN-FF:
   * S. Spicher and S. Grimme, Angew. Chem. Int. Ed., 2020, 59, 15665-15673.
     DOI: 10.1002/anie.202004239
   
   for ALPB and GBSA implicit solvation:
   * S. Ehlert, M. Stahn, S. Spicher, S. Grimme, J. Chem. Theory Comput.,
     2021, 17, 4250-4261. DOI: 10.1021/acs.jctc.1c00471
   
   for ddCOSMO and CPCM-X implicit solvation:
   * M. Stahn, S. Ehlert, S. Grimme, J. Phys. Chem. A,
     2023, XX, XXXX-XXXX. DOI: 10.1021/acs.jpca.3c04382
   
   for DFT-D4:
   * E. Caldeweyher, C. Bannwarth and S. Grimme, J. Chem. Phys., 2017,
     147, 034112. DOI: 10.1063/1.4993215
   * E. Caldeweyher, S. Ehlert, A. Hansen, H. Neugebauer, S. Spicher,
     C. Bannwarth and S. Grimme, J. Chem. Phys., 2019, 150, 154122.
     DOI: 10.1063/1.5090222
   * E. Caldeweyher, J.-M. Mewes, S. Ehlert and S. Grimme, Phys. Chem. Chem. Phys.
     2020, 22, 8499-8512. DOI: 10.1039/D0CP00502A
   
   for sTDA-xTB:
   * S. Grimme and C. Bannwarth, J. Chem. Phys., 2016, 145, 054103.
     DOI: 10.1063/1.4959605
   
   in the mass-spec context:
   * V. Asgeirsson, C. Bauer and S. Grimme, Chem. Sci., 2017, 8, 4879.
     DOI: 10.1039/c7sc00601b
   * J. Koopman and S. Grimme, ACS Omega 2019, 4, 12, 15120-15133.
     DOI: 10.1021/acsomega.9b02011
   
   for metadynamics refer to:
   * S. Grimme, J. Chem. Theory Comput., 2019, 155, 2847-2862
     DOI: 10.1021/acs.jctc.9b00143
   
   for SPH calculations refer to:
   * S. Spicher and S. Grimme, J. Chem. Theory Comput., 2021, 17, 1701-1714
     DOI: 10.1021/acs.jctc.0c01306
   
   for ONIOM refer to:
   * C. Plett, A. Katbashev, S. Ehlert, S. Grimme, M. Bursch,
     Phys. Chem. Chem. Phys., 2023, 25, 17860-17868. DOI: 10.1039/D3CP02178E
   
   for DIPRO refer to:
   * J. Kohn, N. Gildemeister, S. Grimme, D. Fazzi, A. Hansen,
     J. Chem. Phys., 2023, just accepted.
   
   for PTB refer to:
   * S. Grimme, M. Mueller, A. Hansen, J. Chem. Phys., 2023, 158, 124111.
     DOI: 10.1063/5.0137838
   
   with help from (in alphabetical order)
   P. Atkinson, C. Bannwarth, F. Bohle, G. Brandenburg, E. Caldeweyher
   M. Checinski, S. Dohm, S. Ehlert, S. Ehrlich, I. Gerasimov, C. Hölzer
   A. Katbashev, J. Kohn, J. Koopman, C. Lavigne, S. Lehtola, F. März, M. Müller,
   F. Musil, H. Neugebauer, J. Pisarek, C. Plett, P. Pracht, F. Pultar,
   J. Seibert, P. Shushkov, S. Spicher, M. Stahn, M. Steiner, T. Strunk,
   J. Stückrath, T. Rose, and J. Unsleber
   
 * started run on 2025/04/04 at 21:17:43.428     
   ID    Z sym.   atoms
    1    6 C      1-5
    2    1 H      6-15

           -------------------------------------------------
          |                Calculation Setup                |
           -------------------------------------------------

          program call               : /srv/scratch/z5358697/.xtb/bin/xtb xtb_rrho.coord --gfn2 --ohess vtight --chrg 0 --enso --norestart -I rrho-xcontrol-inp --parallel 1 --alpb water
          hostname                   : k159
          coordinate file            : xtb_rrho.coord
          omp threads                :                     1


           -------------------------------------------------
          |                 G F N 2 - x T B                 |
           -------------------------------------------------

        Reference                      10.1021/acs.jctc.8b01176
      * Hamiltonian:
        H0-scaling (s, p, d)           1.850000    2.230000    2.230000
        zeta-weighting                 0.500000
      * Dispersion:
        s8                             2.700000
        a1                             0.520000
        a2                             5.000000
        s9                             5.000000
      * Repulsion:
        kExp                           1.500000    1.000000
        rExp                           1.000000
      * Coulomb:
        alpha                          2.000000
        third order                    shell-resolved
        anisotropic                    true
        a3                             3.000000
        a5                             4.000000
        cn-shift                       1.200000
        cn-exp                         4.000000
        max-rad                        5.000000

      * Solvation model:               ALPB
        Solvent                        water
        Parameter file                 internal GFN2-xTB/ALPB
        Dielectric constant                8.0200E+01
        Reference state                gsolv [1 M gas/solution]
        Free energy shift                  1.0808E-03 Eh       6.7819E-01 kcal/mol
        Temperature                        2.9815E+02 K
        Density                            1.0000E+00 kg/L
        Solvent mass                       1.8000E+01 g/mol
        Interaction kernel             P16
        Born radius scaling (c1)           1.4744E+00
        Born radii integrator          GBOBC
        Born offset                        0.0000E+00 a0       0.0000E+00 AA
        H-bond correction              true
        Ion screening                  false
        Surface tension                    1.0000E-05 Eh       1.5569E+01 dyn/cm
        Grid points                               974 per atom

          ...................................................
          :                      SETUP                      :
          :.................................................:
          :  # basis functions                  30          :
          :  # atomic orbitals                  30          :
          :  # shells                           20          :
          :  # electrons                        30          :
          :  max. iterations                   250          :
          :  Hamiltonian                  GFN2-xTB          :
          :  restarted?                      false          :
          :  GBSA solvation                   true          :
          :  PC potential                    false          :
          :  electronic temp.          300.0000000     K    :
          :  accuracy                    1.0000000          :
          :  -> integral cutoff          0.2500000E+02      :
          :  -> integral neglect         0.1000000E-07      :
          :  -> SCF convergence          0.1000000E-05 Eh   :
          :  -> wf. convergence          0.1000000E-03 e    :
          :  Broyden damping             0.4000000          :
          :  net charge                          0          :
          :  unpaired electrons                  0          :
          ...................................................

 iter      E             dE          RMSdq      gap      omega  full diag
   1    -16.0113462 -0.160113E+02  0.329E+00    5.12       0.0  T
   2    -16.0284460 -0.170998E-01  0.187E+00    5.08       1.0  T
   3    -16.0290308 -0.584727E-03  0.581E-01    5.02       1.0  T
   4    -16.0288431  0.187648E-03  0.273E-01    5.03       1.0  T
   5    -16.0295650 -0.721899E-03  0.643E-02    5.03       1.0  T
   6    -16.0295780 -0.129649E-04  0.294E-02    5.03       1.0  T
   7    -16.0295782 -0.263781E-06  0.438E-03    5.03       5.9  T
   8    -16.0295783 -0.357859E-07  0.136E-03    5.03      18.9  T
   9    -16.0295783 -0.181180E-08  0.609E-04    5.03      42.4  T
  10    -16.0295783 -0.569937E-09  0.147E-04    5.03     175.2  T

   *** convergence criteria satisfied after 10 iterations ***

         #    Occupation            Energy/Eh            Energy/eV
      -------------------------------------------------------------
         1        2.0000           -0.6170395             -16.7905
       ...           ...                  ...                  ...
         9        2.0000           -0.4745573             -12.9134
        10        2.0000           -0.4566385             -12.4258
        11        2.0000           -0.4516897             -12.2911
        12        2.0000           -0.4382117             -11.9243
        13        2.0000           -0.4335097             -11.7964
        14        2.0000           -0.4174379             -11.3591
        15        2.0000           -0.3783042             -10.2942 (HOMO)
        16                         -0.1933378              -5.2610 (LUMO)
        17                          0.0910820               2.4785
        18                          0.1131338               3.0785
        19                          0.1322366               3.5983
        20                          0.1449070               3.9431
       ...                                ...                  ...
        30                          0.6037549              16.4290
      -------------------------------------------------------------
                  HL-Gap            0.1849664 Eh            5.0332 eV
             Fermi-level           -0.2858210 Eh           -7.7776 eV

 SCC (total)                   0 d,  0 h,  0 min,  0.019 sec
 SCC setup                      ...        0 min,  0.001 sec (  3.927%)
 Dispersion                     ...        0 min,  0.000 sec (  0.299%)
 classical contributions        ...        0 min,  0.000 sec (  0.079%)
 integral evaluation            ...        0 min,  0.001 sec (  3.817%)
 iterations                     ...        0 min,  0.016 sec ( 81.785%)
 molecular gradient             ...        0 min,  0.002 sec (  9.527%)
 printout                       ...        0 min,  0.000 sec (  0.498%)

         :::::::::::::::::::::::::::::::::::::::::::::::::::::
         ::                     SUMMARY                     ::
         :::::::::::::::::::::::::::::::::::::::::::::::::::::
         :: total energy             -15.773464094352 Eh    ::
         :: total w/o Gsasa/hb       -15.773078152910 Eh    ::
         :: gradient norm              0.022515794989 Eh/a0 ::
         :: HOMO-LUMO gap              5.033193108966 eV    ::
         ::.................................................::
         :: SCC energy               -16.029572652784 Eh    ::
         :: -> isotropic ES            0.003820519439 Eh    ::
         :: -> anisotropic ES          0.005224045921 Eh    ::
         :: -> anisotropic XC          0.011737414681 Eh    ::
         :: -> dispersion             -0.007390636485 Eh    ::
         :: -> Gsolv                  -0.000694023334 Eh    ::
         ::    -> Gelec               -0.000308081893 Eh    ::
         ::    -> Gsasa               -0.000972631137 Eh    ::
         ::    -> Ghb                 -0.000494070003 Eh    ::
         ::    -> Gshift               0.001080759698 Eh    ::
         :: repulsion energy           0.256108558432 Eh    ::
         :: add. restraining           0.000000000000 Eh    ::
         :: total charge               0.000000000000 e     ::
         :::::::::::::::::::::::::::::::::::::::::::::::::::::

      ----------------------------------------------------------- 
     |                   =====================                   |
     |                        A N C O P T                        |
     |                   =====================                   |
     |               Approximate Normal Coordinate               |
     |                Rational Function Optimizer                |
      ----------------------------------------------------------- 
      ----------------------------------------------------------- 
     |                   =====================                   |
     |                        A N C O P T                        |
     |                   =====================                   |
     |               Approximate Normal Coordinate               |
     |                Rational Function Optimizer                |
      ----------------------------------------------------------- 

          ...................................................
          :                      SETUP                      :
          :.................................................:
          :   optimization level         verytight          :
          :   max. optcycles                   300          :
          :   ANC micro-cycles                  20          :
          :   degrees of freedom                39          :
          :.................................................:
          :   RF solver                   davidson          :
          :   write xtbopt.log                true          :
          :   linear?                        false          :
          :   energy convergence         0.1000000E-06 Eh   :
          :   grad. convergence          0.2000000E-03 Eh/α :
          :   maxmium RF displ.          1.0000000          :
          :   Hlow (freq-cutoff)         0.1000000E-01      :
          :   Hmax (freq-cutoff)         5.0000000          :
          :   S6 in model hess.         20.0000000          :
          ...................................................

generating ANC from exact Hessian ...
Using Lindh-Hessian (1995)
 Shifting diagonal of input Hessian by   7.444779157858654E-003
 Lowest  eigenvalues of input Hessian
    0.000000    0.000000    0.000000    0.000000    0.000000    0.000000
    0.010000    0.012352    0.013371    0.017690    0.020920    0.024259
    0.036622    0.047898    0.054026    0.057779    0.059537    0.068534
 Highest eigenvalues
    1.119315    1.130288    1.208520    1.230614    1.480390    1.870457
 

........................................................................
.............................. CYCLE    1 ..............................
........................................................................

 iter      E             dE          RMSdq      gap      omega  full diag
   1    -16.0295783 -0.160296E+02  0.141E-05    5.03       0.0  T
   2    -16.0295783 -0.294875E-12  0.774E-06    5.03    3334.5  T
   3    -16.0295783 -0.241585E-12  0.573E-06    5.03    4509.3  T
     SCC iter.                  ...        0 min,  0.001 sec
     gradient                   ...        0 min,  0.002 sec
 * total energy  :   -15.7734641 Eh     change       -0.2530953E-10 Eh
   gradient norm :     0.0225158 Eh/α   predicted     0.0000000E+00 (-100.00%)
   displ. norm   :     0.1002907 α      lambda       -0.1162968E-02
   maximum displ.:     0.0504725 α      in ANC's #5, #11, #17, ...

........................................................................
.............................. CYCLE    2 ..............................
........................................................................

 iter      E             dE          RMSdq      gap      omega  full diag
   1    -16.0409114 -0.160409E+02  0.114E-01    5.15       0.0  T
   2    -16.0409145 -0.314772E-05  0.661E-02    5.15       1.0  T
   3    -16.0409142  0.346625E-06  0.101E-02    5.15       2.6  T
   4    -16.0409147 -0.503598E-06  0.469E-03    5.15       5.5  T
   5    -16.0409149 -0.178360E-06  0.150E-03    5.15      17.2  T
   6    -16.0409149 -0.817920E-09  0.514E-04    5.15      50.2  T
   7    -16.0409149 -0.373550E-09  0.139E-04    5.14     185.2  T
     SCC iter.                  ...        0 min,  0.001 sec
     gradient                   ...        0 min,  0.002 sec
 * total energy  :   -15.7741667 Eh     change       -0.7026042E-03 Eh
   gradient norm :     0.0073118 Eh/α   predicted    -0.5873313E-03 ( -16.41%)
   displ. norm   :     0.0314709 α      lambda       -0.9500203E-04
   maximum displ.:     0.0201564 α      in ANC's #5, #15, #9, ...

........................................................................
.............................. CYCLE    3 ..............................
........................................................................

 iter      E             dE          RMSdq      gap      omega  full diag
   1    -16.0439689 -0.160440E+02  0.306E-02    5.18       0.0  T
   2    -16.0439695 -0.619572E-06  0.172E-02    5.18       1.5  T
   3    -16.0439695  0.462257E-07  0.446E-03    5.18       5.8  T
   4    -16.0439695 -0.565612E-07  0.192E-03    5.17      13.4  T
   5    -16.0439696 -0.323937E-07  0.418E-04    5.17      61.7  T
   6    -16.0439696 -0.178225E-09  0.216E-04    5.17     119.3  T
     SCC iter.                  ...        0 min,  0.001 sec
     gradient                   ...        0 min,  0.003 sec
 * total energy  :   -15.7742206 Eh     change       -0.5386411E-04 Eh
   gradient norm :     0.0018683 Eh/α   predicted    -0.4754726E-04 ( -11.73%)
   displ. norm   :     0.0138223 α      lambda       -0.7711033E-05
   maximum displ.:     0.0081731 α      in ANC's #5, #15, #17, ...

........................................................................
.............................. CYCLE    4 ..............................
........................................................................

 iter      E             dE          RMSdq      gap      omega  full diag
   1    -16.0440446 -0.160440E+02  0.119E-02    5.18       0.0  T
   2    -16.0440447 -0.630124E-07  0.694E-03    5.18       3.7  T
   3    -16.0440446  0.210123E-07  0.192E-03    5.18      13.4  T
   4    -16.0440447 -0.241319E-07  0.684E-04    5.18      37.7  T
   5    -16.0440447 -0.440792E-08  0.125E-04    5.18     207.0  T
     SCC iter.                  ...        0 min,  0.001 sec
     gradient                   ...        0 min,  0.002 sec
 * total energy  :   -15.7742259 Eh     change       -0.5305293E-05 Eh
   gradient norm :     0.0005274 Eh/α   predicted    -0.3855065E-05 ( -27.34%)
   displ. norm   :     0.0047586 α      lambda       -0.6017373E-06
   maximum displ.:     0.0037425 α      in ANC's #3, #5, #11, ...

........................................................................
.............................. CYCLE    5 ..............................
........................................................................

 iter      E             dE          RMSdq      gap      omega  full diag
   1    -16.0437202 -0.160437E+02  0.324E-03    5.18       0.0  T
   2    -16.0437202 -0.416119E-08  0.185E-03    5.18      13.9  T
   3    -16.0437202 -0.879368E-10  0.303E-04    5.18      85.3  T
   4    -16.0437202 -0.143267E-09  0.141E-04    5.18     183.0  T
     SCC iter.                  ...        0 min,  0.001 sec
     gradient                   ...        0 min,  0.002 sec
 * total energy  :   -15.7742263 Eh     change       -0.4311949E-06 Eh
   gradient norm :     0.0001095 Eh/α   predicted    -0.3025498E-06 ( -29.83%)
   displ. norm   :     0.0027336 α      lambda       -0.7587472E-07
   maximum displ.:     0.0025416 α      in ANC's #3, #7, #4, ...

........................................................................
.............................. CYCLE    6 ..............................
........................................................................

 iter      E             dE          RMSdq      gap      omega  full diag
   1    -16.0437687 -0.160438E+02  0.119E-03    5.18       0.0  T
   2    -16.0437687 -0.141252E-09  0.707E-04    5.18      36.5  T
   3    -16.0437687 -0.184954E-10  0.470E-05    5.18     549.7  T
     SCC iter.                  ...        0 min,  0.001 sec
     gradient                   ...        0 min,  0.002 sec
 * total energy  :   -15.7742264 Eh     change       -0.6087751E-07 Eh
   gradient norm :     0.0000528 Eh/α   predicted    -0.3708914E-07 ( -39.08%)
   displ. norm   :     0.0019224 α      lambda       -0.2628458E-07
   maximum displ.:     0.0016599 α      in ANC's #3, #4, #5, ...

   *** GEOMETRY OPTIMIZATION CONVERGED AFTER 6 ITERATIONS ***

------------------------------------------------------------------------
 total energy gain   :        -0.0007623 Eh       -0.4783 kcal/mol
 total RMSD          :         0.0347172 a0        0.0184 Å
 total power (kW/mol):        -0.3335547 (step)  -60.4302 (real)
------------------------------------------------------------------------

 ANCopt (total)                0 d,  0 h,  0 min,  0.033 sec
 optimizer setup                ...        0 min,  0.000 sec (  0.869%)
 model hessian                  ...        0 min,  0.002 sec (  5.994%)
 ANC generation                 ...        0 min,  0.000 sec (  0.655%)
 coordinate transformation      ...        0 min,  0.000 sec (  0.078%)
 single point calculation       ...        0 min,  0.025 sec ( 76.101%)
 optimization log               ...        0 min,  0.004 sec ( 13.297%)
 hessian update                 ...        0 min,  0.000 sec (  0.065%)
 rational function              ...        0 min,  0.001 sec (  2.242%)

================
 final structure:
================
$coord
       -4.53563651845542        0.07682244312103        0.09099505771302      C
       -1.78545778030051        0.92794406847826       -0.02174668487362      C
       -0.00403547426814       -1.26952598595636       -0.26800200766304      C
        2.49264887371256       -1.15774538435557       -0.13623976842411      C
        4.03995821963428        1.16765732478654        0.27573749292155      C
       -5.78489944189589        1.69861929804965        0.27275055988814      H
       -4.83905564179277       -1.16050641169139        1.70442298531052      H
       -5.04463681184712       -0.94566685055137       -1.61833009906452      H
       -1.53086809428344        2.19881991445238       -1.63327833692032      H
       -1.33407719159087        2.00195246045642        1.68427373699521      H
       -0.89652635917143       -3.08056460453757       -0.59075578049271      H
        3.57821396468322       -2.87985306974880       -0.34569722329588      H
        5.29849627026679        1.46115499953299       -1.32704175736692      H
        5.21307357550556        0.94326271422629        1.95270942017555      H
        2.86318607116660        2.83196728747997        0.50264853711563      H
$end
 
 Bond Distances (Angstroems)
 ---------------------------
C1-C2=1.5246         C1-H6=1.0876         C1-H7=1.0879         C1-H8=1.0879         C2-C1=1.5246         C2-C3=1.5026         
C2-H9=1.0944         C2-H10=1.0932        C3-C2=1.5026         C3-C4=1.3243         C3-H11=1.0820        C4-C3=1.3243         
C4-C5=1.4941         C4-H12=1.0829        C5-C4=1.4941         C5-H13=1.0895        C5-H14=1.0895        C5-H15=1.0853        
H6-C1=1.0876         H7-C1=1.0879         H8-C1=1.0879         H9-C2=1.0944         H10-C2=1.0932        H11-C3=1.0820        
H12-C4=1.0829        H13-C5=1.0895        H14-C5=1.0895        H15-C5=1.0853        
 C  H  Rav=1.0880 sigma=0.0038  Rmin=1.0820  Rmax=1.0944    10
 C  C  Rav=1.4614 sigma=0.0799  Rmin=1.3243  Rmax=1.5246     4
 
 selected bond angles (degree)
 --------------------
H6-C1-C2=110.52                H7-C1-C2=110.45                H7-C1-H6=108.41                H8-C1-C2=110.53                
H8-C1-H6=108.39                H8-C1-H7=108.46                C3-C2-C1=111.94                H9-C2-C1=109.24                
H9-C2-C3=109.31                H10-C2-C1=109.26               H10-C2-C3=109.69               H10-C2-H9=107.29               
C4-C3-C2=125.93                H11-C3-C2=115.17               H11-C3-C4=118.90               C5-C4-C3=126.24                
H12-C4-C3=119.09               H12-C4-C5=114.66               H13-C5-C4=109.80               H14-C5-C4=109.96               
H14-C5-H13=107.54              H15-C5-C4=111.72               H15-C5-H13=108.73              H15-C5-H14=108.98              
 
 selected dihedral angles (degree)
 ---------------------------------
C3-C2-C1-H6=179.88            C3-C2-C1-H7= 59.91            C3-C2-C1-H8=299.88            H9-C2-C1-H6=301.10            
H9-C2-C1-H7=181.13            H9-C2-C1-H8= 61.09            H10-C2-C1-H6= 58.18           H10-C2-C1-H7=298.22           
H10-C2-C1-H8=178.18           C4-C3-C2-C1=187.79            C4-C3-C2-H9= 66.62            C4-C3-C2-H10=309.24           
H11-C3-C2-C1=  8.13           H11-C3-C2-H9=246.95           H11-C3-C2-H10=129.58          C5-C4-C3-C2=359.83            
C5-C4-C3-H11=179.48           H12-C4-C3-C2=180.07           H12-C4-C3-H11=359.72          H13-C5-C4-C3=240.39           
H13-C5-C4-H12= 60.17          H14-C5-C4-C3=122.26           H14-C5-C4-H12=302.03          H15-C5-C4-C3=  1.12           
H15-C5-C4-H12=180.89          
           -------------------------------------------------
          |                Final Singlepoint                |
           -------------------------------------------------

          ...................................................
          :                      SETUP                      :
          :.................................................:
          :  # basis functions                  30          :
          :  # atomic orbitals                  30          :
          :  # shells                           20          :
          :  # electrons                        30          :
          :  max. iterations                   250          :
          :  Hamiltonian                  GFN2-xTB          :
          :  restarted?                      false          :
          :  GBSA solvation                   true          :
          :  PC potential                    false          :
          :  electronic temp.          300.0000000     K    :
          :  accuracy                    1.0000000          :
          :  -> integral cutoff          0.2500000E+02      :
          :  -> integral neglect         0.1000000E-07      :
          :  -> SCF convergence          0.1000000E-05 Eh   :
          :  -> wf. convergence          0.1000000E-03 e    :
          :  Broyden damping             0.4000000          :
          :  net charge                          0          :
          :  unpaired electrons                  0          :
          ...................................................

 iter      E             dE          RMSdq      gap      omega  full diag
   1    -16.0437687 -0.160438E+02  0.253E-05    5.18       0.0  T
   2    -16.0437687 -0.124345E-11  0.207E-05    5.18    1249.2  T
   3    -16.0437687 -0.266454E-11  0.934E-06    5.18    2763.5  T

   *** convergence criteria satisfied after 3 iterations ***

         #    Occupation            Energy/Eh            Energy/eV
      -------------------------------------------------------------
         1        2.0000           -0.6187259             -16.8364
       ...           ...                  ...                  ...
         9        2.0000           -0.4759022             -12.9500
        10        2.0000           -0.4561659             -12.4129
        11        2.0000           -0.4514499             -12.2846
        12        2.0000           -0.4391233             -11.9492
        13        2.0000           -0.4333972             -11.7933
        14        2.0000           -0.4162196             -11.3259
        15        2.0000           -0.3795928             -10.3292 (HOMO)
        16                         -0.1893367              -5.1521 (LUMO)
        17                          0.0977097               2.6588
        18                          0.1225166               3.3338
        19                          0.1384354               3.7670
        20                          0.1542567               4.1975
       ...                                ...                  ...
        30                          0.6404673              17.4280
      -------------------------------------------------------------
                  HL-Gap            0.1902561 Eh            5.1771 eV
             Fermi-level           -0.2844647 Eh           -7.7407 eV

 SCC (total)                   0 d,  0 h,  0 min,  0.004 sec
 SCC setup                      ...        0 min,  0.001 sec ( 16.816%)
 Dispersion                     ...        0 min,  0.000 sec (  0.856%)
 classical contributions        ...        0 min,  0.000 sec (  0.277%)
 integral evaluation            ...        0 min,  0.001 sec ( 17.646%)
 iterations                     ...        0 min,  0.001 sec ( 14.610%)
 molecular gradient             ...        0 min,  0.002 sec ( 47.169%)
 printout                       ...        0 min,  0.000 sec (  2.318%)

         :::::::::::::::::::::::::::::::::::::::::::::::::::::
         ::                     SUMMARY                     ::
         :::::::::::::::::::::::::::::::::::::::::::::::::::::
         :: total energy             -15.774226360057 Eh    ::
         :: total w/o Gsasa/hb       -15.773817088830 Eh    ::
         :: gradient norm              0.000052855561 Eh/a0 ::
         :: HOMO-LUMO gap              5.177131811079 eV    ::
         ::.................................................::
         :: SCC energy               -16.043763129395 Eh    ::
         :: -> isotropic ES            0.004014925349 Eh    ::
         :: -> anisotropic ES          0.004814692964 Eh    ::
         :: -> anisotropic XC          0.011430483035 Eh    ::
         :: -> dispersion             -0.007417619229 Eh    ::
         :: -> Gsolv                  -0.000715991543 Eh    ::
         ::    -> Gelec               -0.000306720316 Eh    ::
         ::    -> Gsasa               -0.000971307800 Eh    ::
         ::    -> Ghb                 -0.000518723126 Eh    ::
         ::    -> Gshift               0.001080759698 Eh    ::
         :: repulsion energy           0.269536769338 Eh    ::
         :: add. restraining           0.000000000000 Eh    ::
         :: total charge               0.000000000000 e     ::
         :::::::::::::::::::::::::::::::::::::::::::::::::::::

           ------------------------------------------------- 
          |                Numerical Hessian                |
           ------------------------------------------------- 
step length          :   0.00500
SCC accuracy         :   0.30000
Hessian scale factor :   1.00000
frozen atoms in %    :   0.00000    0
RMS gradient         :   0.00005
estimated CPU  time      0.01 min
estimated wall time      0.01 min

writing file <hessian>.

 projected vibrational frequencies (cm⁻¹)
eigval :       -0.00    -0.00    -0.00     0.00     0.00     0.00
eigval :      -10.75    67.96   203.71   225.23   341.83   390.66
eigval :      589.51   696.62   830.79   914.05   927.72   984.54
eigval :     1040.43  1057.02  1084.48  1100.50  1142.67  1245.43
eigval :     1267.17  1305.08  1368.49  1401.11  1410.78  1469.13
eigval :     1478.19  1483.81  1501.81  1504.59  1731.65  2932.01
eigval :     2959.16  2994.90  3011.43  3024.69  3025.71  3033.55
eigval :     3036.49  3054.38  3063.09
           -------------------------------------------------
          |                Property Printout                |
           -------------------------------------------------

    * Orbital Energies and Occupations

         #    Occupation            Energy/Eh            Energy/eV
      -------------------------------------------------------------
         1        2.0000           -0.6187259             -16.8364
       ...           ...                  ...                  ...
         3        2.0000           -0.5835068             -15.8780
         4        2.0000           -0.5637419             -15.3402
         5        2.0000           -0.5307032             -14.4412
         6        2.0000           -0.5048109             -13.7366
         7        2.0000           -0.4989694             -13.5776
         8        2.0000           -0.4866126             -13.2414
         9        2.0000           -0.4759022             -12.9500
        10        2.0000           -0.4561659             -12.4129
        11        2.0000           -0.4514499             -12.2846
        12        2.0000           -0.4391232             -11.9492
        13        2.0000           -0.4333972             -11.7933
        14        2.0000           -0.4162196             -11.3259
        15        2.0000           -0.3795928             -10.3292 (HOMO)
        16                         -0.1893367              -5.1521 (LUMO)
        17                          0.0977097               2.6588
        18                          0.1225166               3.3338
        19                          0.1384354               3.7670
        20                          0.1542568               4.1975
        21                          0.1715709               4.6687
        22                          0.1789143               4.8685
        23                          0.1899969               5.1701
        24                          0.2073711               5.6429
        25                          0.2291824               6.2364
        26                          0.2613454               7.1116
       ...                                ...                  ...
        30                          0.6404673              17.4280
      -------------------------------------------------------------
                  HL-Gap            0.1902561 Eh            5.1771 eV
             Fermi-level           -0.2844647 Eh           -7.7407 eV

     #   Z          covCN         q      C6AA      α(0)
     1   6 C        3.753    -0.109    22.645     6.786
     2   6 C        3.803    -0.057    21.591     6.615
     3   6 C        2.889    -0.053    29.319     8.877
     4   6 C        2.886    -0.050    29.231     8.864
     5   6 C        3.755    -0.114    22.744     6.800
     6   1 H        0.925     0.035     2.516     2.480
     7   1 H        0.925     0.037     2.492     2.469
     8   1 H        0.925     0.037     2.492     2.469
     9   1 H        0.924     0.042     2.423     2.434
    10   1 H        0.924     0.041     2.432     2.439
    11   1 H        0.925     0.027     2.623     2.532
    12   1 H        0.925     0.023     2.688     2.564
    13   1 H        0.925     0.049     2.333     2.389
    14   1 H        0.925     0.048     2.345     2.395
    15   1 H        0.925     0.044     2.400     2.423

 Mol. C6AA /au·bohr⁶  :       1653.427205
 Mol. C8AA /au·bohr⁸  :      35652.038252
 Mol. α(0) /au        :         62.536233


Wiberg/Mayer (AO) data.
largest (>0.10) Wiberg bond orders for each atom

 ---------------------------------------------------------------------------
     #   Z sym  total        # sym  WBO       # sym  WBO       # sym  WBO
 ---------------------------------------------------------------------------
     1   6 C    3.997 --     2 C    1.020     7 H    0.988     8 H    0.988
                             6 H    0.988
     2   6 C    3.999 --     3 C    1.021     1 C    1.020    10 H    0.965
                             9 H    0.962
     3   6 C    3.990 --     4 C    1.929     2 C    1.021    11 H    0.967
     4   6 C    3.991 --     3 C    1.929     5 C    1.039    12 H    0.968
     5   6 C    3.997 --     4 C    1.039    15 H    0.984    14 H    0.971
                            13 H    0.970
     6   1 H    0.998 --     1 C    0.988
     7   1 H    0.999 --     1 C    0.988
     8   1 H    0.999 --     1 C    0.988
     9   1 H    0.998 --     2 C    0.962
    10   1 H    0.998 --     2 C    0.965
    11   1 H    0.999 --     3 C    0.967
    12   1 H    0.999 --     4 C    0.968
    13   1 H    0.998 --     5 C    0.970
    14   1 H    0.998 --     5 C    0.971
    15   1 H    0.998 --     5 C    0.984
 ---------------------------------------------------------------------------

Topologies differ in total number of bonds
Writing topology from bond orders to xtbtopo.mol

molecular dipole:
                 x           y           z       tot (Debye)
 q only:        0.017       0.177       0.021
   full:        0.025       0.178       0.019       0.460
molecular quadrupole (traceless):
                xx          xy          yy          xz          yz          zz
 q only:        0.968       0.495      -0.161       0.120       0.081      -0.807
  q+dip:        1.226       0.167       0.215       0.255       0.265      -1.441
   full:        0.974       0.292      -0.003       0.169       0.144      -0.971

           -------------------------------------------------
          |                Geometry Summary                 |
           -------------------------------------------------

      molecular mass/u    :       70.1330870
   center of mass at/Å    :       -0.0000363       0.0002464      -0.0007940
  moments of inertia/u·Å² :        0.3497249E+02   0.2067815E+03   0.2319757E+03
rotational constants/cm⁻¹ :        0.4820255E+00   0.8152388E-01   0.7266982E-01

 * 12 selected distances

     #   Z          #   Z                                           value/Å
     1   6 C        2   6 C                                       1.5246002 (max)
     3   6 C        4   6 C                                       1.3243488
     1   6 C        6   1 H                                       1.0875742
     1   6 C        7   1 H                                       1.0878674
     1   6 C        8   1 H                                       1.0878883
     2   6 C        9   1 H                                       1.0943836
     2   6 C       10   1 H                                       1.0932019
     3   6 C       11   1 H                                       1.0819793 (min)
     4   6 C       12   1 H                                       1.0829376
     5   6 C       13   1 H                                       1.0895091
     5   6 C       14   1 H                                       1.0894868
     5   6 C       15   1 H                                       1.0852920

 * 2 distinct bonds (by element types)

   Z      Z             #   av. dist./Å        max./Å        min./Å
   1 H    6 C          10     1.0880120     1.0943836     1.0819793
   6 C    6 C           2     1.4244745     1.5246002     1.3243488

           -------------------------------------------------
          |               Frequency Printout                |
           -------------------------------------------------
 projected vibrational frequencies (cm⁻¹)
eigval :       -0.00    -0.00    -0.00     0.00     0.00     0.00
eigval :      -10.75    67.96   203.71   225.23   341.83   390.66
eigval :      589.51   696.62   830.79   914.05   927.72   984.54
eigval :     1040.43  1057.02  1084.48  1100.50  1142.67  1245.43
eigval :     1267.17  1305.08  1368.49  1401.11  1410.78  1469.13
eigval :     1478.19  1483.81  1501.81  1504.59  1731.65  2932.01
eigval :     2959.16  2994.90  3011.43  3024.69  3025.71  3033.55
eigval :     3036.49  3054.38  3063.09
 reduced masses (amu)
   1:  7.42   2: 10.13   3:  9.82   4: 10.04   5:  9.25   6:  9.85   7:  7.34   8:  1.31
   9:  8.64  10:  2.07  11:  8.59  12:  7.95  13:  8.94  14:  2.04  15:  2.81  16:  7.32
  17:  2.86  18:  5.97  19:  4.39  20:  5.36  21:  4.50  22:  8.53  23:  7.51  24:  2.83
  25:  2.59  26:  3.66  27:  4.55  28:  3.84  29:  3.15  30:  1.80  31:  1.58  32:  1.72
  33:  1.52  34:  1.58  35: 11.60  36:  1.92  37:  1.52  38:  1.93  39:  1.52  40:  1.95
  41:  1.94  42:  1.74  43:  1.26  44:  1.84  45:  1.72
 IR intensities (km·mol⁻¹)
   1:  0.18   2:  0.02   3:  0.05   4:  0.02   5:  0.03   6:  0.01   7:  0.03   8:  0.81
   9:  0.36  10:  0.04  11:  0.13  12:  0.22  13:  3.80  14: 23.24  15:  1.97  16:  7.66
  17:  0.04  18: 30.05  19:  2.01  20:  0.35  21:  1.79  22:  3.01  23:  4.36  24:  0.12
  25:  0.01  26: 22.94  27: 12.95  28: 10.51  29:  0.44  30:  1.34  31:  2.21  32:  1.86
  33:  0.98  34:  1.13  35: 16.91  36: 61.43  37: 47.37  38: 45.23  39: 62.54  40: 77.89
  41: 81.82  42: 56.90  43: 38.83  44:121.30  45: 95.15
 Raman intensities (Ä⁴*amu⁻¹)
   1:  0.00   2:  0.00   3:  0.00   4:  0.00   5:  0.00   6:  0.00   7:  0.00   8:  0.00
   9:  0.00  10:  0.00  11:  0.00  12:  0.00  13:  0.00  14:  0.00  15:  0.00  16:  0.00
  17:  0.00  18:  0.00  19:  0.00  20:  0.00  21:  0.00  22:  0.00  23:  0.00  24:  0.00
  25:  0.00  26:  0.00  27:  0.00  28:  0.00  29:  0.00  30:  0.00  31:  0.00  32:  0.00
  33:  0.00  34:  0.00  35:  0.00  36:  0.00  37:  0.00  38:  0.00  39:  0.00  40:  0.00
  41:  0.00  42:  0.00  43:  0.00  44:  0.00  45:  0.00
 output can be read by thermo (or use thermo option).
 writing <g98.out> molden fake output.
 recommended (thermochemical) frequency scaling factor: 1.0
           -------------------------------------------------
          |             Thermodynamic Functions             |
           -------------------------------------------------

Molecule has no symmetry elements
It seems to be the C1 point group
c1  symmetry found (for desy threshold:  0.10E+00) used in thermo
 inverting freq            1   10.7533129535535     

          ...................................................
          :                      SETUP                      :
          :.................................................:
          :  # frequencies                          39      :
          :  # imaginary freq.                       0      :
          :  linear?                             false      :
          :  only rotor calc.                    false      :
          :  symmetry                               c1      :
          :  rotational number                       1      :
          :  scaling factor                  1.0000000      :
          :  rotor cutoff                    0.0000000 cm⁻¹ :
          :  imag. cutoff                 -100.0000000 cm⁻¹ :
          :.................................................:

    mode    ω/cm⁻¹     T·S(HO)/kcal·mol⁻¹    T·S(FR)/kcal·mol⁻¹   T·S(vib)
   ------------------------------------------------------------------------
       1     10.75    -2.34547 (100.00%)    -1.50889 (  0.00%)    -2.34547
       2     67.96    -1.25568 (100.00%)    -0.96517 (  0.00%)    -1.25568
       3    203.71    -0.62592 (100.00%)    -0.64027 (  0.00%)    -0.62592
       4    225.23    -0.57145 (100.00%)    -0.61054 (  0.00%)    -0.57145
   ------------------------------------------------------------------------

   temp. (K)  partition function   enthalpy   heat capacity  entropy
                                   cal/mol     cal/K/mol   cal/K/mol   J/K/mol
 298.15  VIB   300.                 2632.210     17.217     20.164
         ROT  0.989E+05              888.752      2.981     25.839
         INT  0.297E+08             3520.962     20.198     46.003
         TR   0.568E+27             1481.254      4.968     38.643
         TOT                        5002.2162    25.1664    84.6456   354.1574

       T/K    H(0)-H(T)+PV         H(T)/Eh          T*S/Eh         G(T)/Eh
   ------------------------------------------------------------------------
    298.15    0.797154E-02    0.142181E+00    0.402179E-01    0.101963E+00
   ------------------------------------------------------------------------

         :::::::::::::::::::::::::::::::::::::::::::::::::::::
         ::                  THERMODYNAMIC                  ::
         :::::::::::::::::::::::::::::::::::::::::::::::::::::
         :: total free energy         -15.672263307595 Eh   ::
         ::.................................................::
         :: total energy              -15.774226360035 Eh   ::
         :: zero point energy           0.134209391618 Eh   ::
         :: G(RRHO) w/o ZPVE           -0.032246339178 Eh   ::
         :: G(RRHO) contrib.            0.101963052440 Eh   ::
         :::::::::::::::::::::::::::::::::::::::::::::::::::::
imag cut-off (cm-1) :    5.00
 found            1  significant imaginary frequency
 writing imag mode distorted coords to xtbhess.coord
 for further optimization.

optimized geometry written to: xtbopt.coord


           -------------------------------------------------
          | TOTAL ENERGY              -15.774226360035 Eh   |
          | TOTAL ENTHALPY            -15.632045429453 Eh   |
          | TOTAL FREE ENERGY         -15.672263307595 Eh   |
          | GRADIENT NORM               0.000052846523 Eh/α |
          | HOMO-LUMO GAP               5.177131945557 eV   |
           -------------------------------------------------

------------------------------------------------------------------------
 * finished run on 2025/04/04 at 21:17:43.937     
------------------------------------------------------------------------
 total:
 * wall-time:     0 d,  0 h,  0 min,  0.508 sec
 *  cpu-time:     0 d,  0 h,  0 min,  0.419 sec
 * ratio c/w:     0.823 speedup
 SCF:
 * wall-time:     0 d,  0 h,  0 min,  0.019 sec
 *  cpu-time:     0 d,  0 h,  0 min,  0.007 sec
 * ratio c/w:     0.355 speedup
 ANC optimizer:
 * wall-time:     0 d,  0 h,  0 min,  0.047 sec
 *  cpu-time:     0 d,  0 h,  0 min,  0.033 sec
 * ratio c/w:     0.706 speedup
 analytical hessian:
 * wall-time:     0 d,  0 h,  0 min,  0.379 sec
 *  cpu-time:     0 d,  0 h,  0 min,  0.370 sec
 * ratio c/w:     0.975 speedup

