
                                 *****************
                                 * O   R   C   A *
                                 *****************

                                            #,                                       
                                            ###                                      
                                            ####                                     
                                            #####                                    
                                            ######                                   
                                           ########,                                 
                                     ,,################,,,,,                         
                               ,,#################################,,                 
                          ,,##########################################,,             
                       ,#########################################, ''#####,          
                    ,#############################################,,   '####,        
                  ,##################################################,,,,####,       
                ,###########''''           ''''###############################       
              ,#####''   ,,,,##########,,,,          '''####'''          '####       
            ,##' ,,,,###########################,,,                        '##       
           ' ,,###''''                  '''############,,,                           
         ,,##''                                '''############,,,,        ,,,,,,###''
      ,#''                                            '''#######################'''  
     '                                                          ''''####''''         
             ,#######,   #######,   ,#######,      ##                                
            ,#'     '#,  ##    ##  ,#'     '#,    #''#        ,####,   ,####,        
            ##       ##  ##   ,#'  ##            #'  '#       #'       #'  '#        
            ##       ##  #######   ##           ,######,      #####,   #    #        
            '#,     ,#'  ##    ##  '#,     ,#' ,#      #,     #,   #   #,  ,#        
             '#######'   ##     ##  '#######'  #'      '#     '####' # '####'        



                #########################################################
                #                        -***-                          #
                #          Department of theory and spectroscopy        #
                #                                                       #
                #                      Frank Neese                      #
                #                                                       #
                #     Directorship, Architecture, Infrastructure        #
                #                    SHARK, DRIVERS                     #
                #        Core code/Algorithms in most modules           #
                #                                                       #
                #        Max Planck Institute fuer Kohlenforschung      #
                #                Kaiser Wilhelm Platz 1                 #
                #                 D-45470 Muelheim/Ruhr                 #
                #                      Germany                          #
                #                                                       #
                #                  All rights reserved                  #
                #                        -***-                          #
                #########################################################


                         Program Version 6.0.0  -   RELEASE  -


 With contributions from (in alphabetic order):
   Daniel Aravena         : Magnetic Suceptibility
   Michael Atanasov       : Ab Initio Ligand Field Theory (pilot matlab implementation)
   Alexander A. Auer      : GIAO ZORA, VPT2 properties, NMR spectrum
   Ute Becker             : All parallelization in ORCA, NUMFREQ, NUMCALC
   Giovanni Bistoni       : ED, misc. LED, open-shell LED, HFLD
   Martin Brehm           : Molecular dynamics
   Dmytro Bykov           : pre 5.0 version of the SCF Hessian
   Marcos Casanova-Páez   : Triplet and SCS-CIS(D). UHF-(DLPNO)-IP/EA/STEOM-CCSD. UHF-CVS-IP/STEOM-CCSD
   Vijay G. Chilkuri      : MRCI spin determinant printing, contributions to CSF-ICE
   Pauline Colinet        : FMM embedding
   Dipayan Datta          : RHF DLPNO-CCSD density
   Achintya Kumar Dutta   : EOM-CC, STEOM-CC
   Nicolas Foglia         : Exact transition moments, OPA infrastructure, MCD improvements
   Dmitry Ganyushin       : Spin-Orbit,Spin-Spin,Magnetic field MRCI
   Miquel Garcia          : C-PCM and meta-GGA Hessian, CCSD/C-PCM, Gaussian charge scheme
   Tiago L. C. Gouveia    : GS-ROHF, GS-ROCIS
   Yang Guo               : DLPNO-NEVPT2, F12-NEVPT2, CIM, IAO-localization
   Andreas Hansen         : Spin unrestricted coupled pair/coupled cluster methods
   Ingolf Harden          : AUTO-CI MPn and infrastructure 
   Benjamin Helmich-Paris : MC-RPA, TRAH-(SCF,CASSCF), AVAS, COSX integrals, SCF dyn. polar.
   Lee Huntington         : MR-EOM, pCC
   Robert Izsak           : Overlap fitted RIJCOSX, COSX-SCS-MP3, EOM
   Riya Kayal             : Wick's Theorem for AUTO-CI, AUTO-CI UHF-CCSDT
   Emily Kempfer          : AUTO-CI, RHF CISDT and CCSDT
   Christian Kollmar      : KDIIS, OOCD, Brueckner-CCSD(T), CCSD density, CASPT2, CASPT2-K, improved NEVPT2
   Axel Koslowski         : Symmetry handling
   Simone Kossmann        : Meta GGA functionals, TD-DFT gradient, OOMP2, (MP2 Hessian; deprecated post 5.0)
   Lucas Lang             : DCDCAS
   Marvin Lechner         : AUTO-CI (C++ implementation), FIC-MRCC
   Spencer Leger          : CASSCF response
   Dagmar Lenk            : GEPOL surface, SMD, ORCA-2-JSON
   Dimitrios Liakos       : Extrapolation schemes; Compound Job, initial MDCI parallelization
   Dimitrios Manganas     : Further ROCIS development; embedding schemes. LFT, Crystal Embedding
   Dimitrios Pantazis     : SARC Basis sets
   Anastasios Papadopoulos: AUTO-CI, single reference methods and gradients
   Taras Petrenko         : pre 6.0 DFT Hessian and TD-DFT gradient, (ASA, deprecated), ECA, 1-Electron XAS/XES, NRVS
   Peter Pinski           : DLPNO-MP2, DLPNO-MP2 Gradient
   Christoph Reimann      : Effective Core Potentials
   Marius Retegan         : Local ZFS, SOC
   Christoph Riplinger    : Optimizer, TS searches, QM/MM, DLPNO-CCSD(T), (RO)-DLPNO pert. Triples
   Michael Roemelt        : Original ROCIS implementation
   Masaaki Saitow         : Open-shell DLPNO-CCSD energy and density
   Barbara Sandhoefer     : DKH picture change effects
   Kantharuban Sivalingam : CASSCF convergence/infrastructure, NEVPT2 and variants, FIC-MRCI
   Bernardo de Souza      : ESD, SOC TD-DFT
   Georgi Stoychev        : AutoAux, RI-MP2 NMR, DLPNO-MP2 response, X2C
   Van Anh Tran           : RI-MP2 g-tensors
   Willem Van den Heuvel  : Paramagnetic NMR
   Zikuan Wang            : NOTCH, Electric field optimization 
   Frank Wennmohs         : Technical directorship and infrastructure
   Hang Xu                : AUTO-CI-Response properties 


 We gratefully acknowledge several colleagues who have allowed us to
 interface, adapt or use parts of their codes:
   Stefan Grimme, W. Hujo, H. Kruse, P. Pracht,  : VdW corrections, initial TS optimization,
                  C. Bannwarth, S. Ehlert,         DFT functionals, gCP, sTDA/sTD-DF
                  L. Wittmann, M. Mueller
   Ed Valeev, F. Pavosevic, A. Kumar             : LibInt (2-el integral package), F12 methods
   Garnet Chan, S. Sharma, J. Yang, R. Olivares  : DMRG
   Ulf Ekstrom                                   : XCFun DFT Library
   Mihaly Kallay                                 : mrcc  (arbitrary order and MRCC methods)
   Frank Weinhold                                : gennbo (NPA and NBO analysis)
   Simon Mueller                                 : openCOSMO-RS
   Christopher J. Cramer and Donald G. Truhlar   : smd solvation model
   Lars Goerigk                                  : TD-DFT with DH, B97 family of functionals
   V. Asgeirsson, H. Jonsson                     : NEB implementation
   FAccTs GmbH                                   : IRC, NEB, NEB-TS, DLPNO-Multilevel, CI-OPT
                                                   MM, QMMM, 2- and 3-layer-ONIOM, Crystal-QMMM,
                                                   LR-CPCM, SF, NACMEs, symmetry and pop. for TD-DFT,
                                                   nearIR, NL-DFT gradient (VV10), updates on ESD,
                                                   ML-optimized integration grids, MBIS, APM,
                                                   GOAT, DOCKER, SOLVATOR, interface openCOSMO-RS
   S Lehtola, MJT Oliveira, MAL Marques          : LibXC Library
   Liviu Ungur et al                             : ANISO software


 Your calculation uses the libint2 library for the computation of 2-el integrals
 For citations please refer to: http://libint.valeyev.net

 Your ORCA version has been built with support for libXC version: 6.2.2
 For citations please refer to: https://libxc.gitlab.io

 This ORCA versions uses:
   CBLAS   interface :  Fast vector & matrix operations
   LAPACKE interface :  Fast linear algebra routines
   SCALAPACK package :  Parallel linear algebra routines
   Shared memory     :  Shared parallel matrices
   BLAS/LAPACK       :  OpenBLAS 0.3.27  USE64BITINT DYNAMIC_ARCH NO_AFFINITY SkylakeX SINGLE_THREADED
        Core in use  :  SkylakeX
   Copyright (c) 2011-2014, The OpenBLAS Project


Your calculation utilizes the geometrical counterpoise correction gCP
Please cite in your paper:
H.Kruse, S. Grimme J.Chem.Phys., 136, (2012), 154101 
   

Your calculation utilizes the atom-pairwise dispersion correction
based on EEQ partial charges (D4)


Your calculation utilizes the SMD solvation module
Please cite in your paper:
A.V. Marenich, C.J. Cramer, D.G. Truhlar J. Phys. Chem. B, 113, (2009), 6378 

================================================================================

----- Orbital basis set information -----
Your calculation utilizes the basis: def2-mTZVPP
   Stefan Grimme, Andreas Hansen, Sebastian Ehlert, and Jan-Michael Mewes 
   J. Chem. Phys. 154, 064103 (2021). DOI: 10.1063/5.0040021

----- AuxJ basis set information -----
Your calculation utilizes the auxiliary basis: def2/J
   F. Weigend, Phys. Chem. Chem. Phys. 8, 1057 (2006).

================================================================================
                                        WARNINGS
                       Please study these warnings very carefully!
================================================================================

Using LibXC functional ID 497 : Re-regularized SCAN exchange by Furness et al
[ 1]  J. W. Furness, A. D. Kaplan, J. Ning, J. P. Perdew, and J. Sun.,  J. Phys. Chem. Lett. 11, 8208-8215 (2020)
[ 2]  J. W. Furness, A. D. Kaplan, J. Ning, J. P. Perdew, and J. Sun.,  J. Phys. Chem. Lett. 11, 9248-9248 (2020)
Using LibXC functional ID 498 : Re-regularized SCAN correlation by Furness et al
[ 1]  J. W. Furness, A. D. Kaplan, J. Ning, J. P. Perdew, and J. Sun.,  J. Phys. Chem. Lett. 11, 8208-8215 (2020)
[ 2]  J. W. Furness, A. D. Kaplan, J. Ning, J. P. Perdew, and J. Sun.,  J. Phys. Chem. Lett. 11, 9248-9248 (2020)
Using LibXC functional ID 497 : Re-regularized SCAN exchange by Furness et al
[ 1]  J. W. Furness, A. D. Kaplan, J. Ning, J. P. Perdew, and J. Sun.,  J. Phys. Chem. Lett. 11, 8208-8215 (2020)
[ 2]  J. W. Furness, A. D. Kaplan, J. Ning, J. P. Perdew, and J. Sun.,  J. Phys. Chem. Lett. 11, 9248-9248 (2020)
Using LibXC functional ID 498 : Re-regularized SCAN correlation by Furness et al
[ 1]  J. W. Furness, A. D. Kaplan, J. Ning, J. P. Perdew, and J. Sun.,  J. Phys. Chem. Lett. 11, 8208-8215 (2020)
[ 2]  J. W. Furness, A. D. Kaplan, J. Ning, J. P. Perdew, and J. Sun.,  J. Phys. Chem. Lett. 11, 9248-9248 (2020)

================================================================================
                                       INPUT FILE
================================================================================
NAME = sp_solv.inp
|  1> ! r2scan-3c def2/J RI DEFGRID2 scfconv6 printgap
|  2> %output
|  3>     printlevel normal
|  4> end
|  5> %cpcm
|  6>     smd true
|  7>     smdsolvent "water"
|  8> end
|  9> * xyz 0 1
| 10> C -2.1120834437 -0.8828802453 0.8871548818
| 11> C -1.5990393311 0.3954803616 0.222145281
| 12> C -1.8740849478 0.3560535447 -1.2786656313
| 13> C -0.1506179193 0.7594102977 0.6089201745
| 14> C 1.0856364242 0.0322928226 0.0322228177
| 15> C 1.3996394001 0.482998995 -1.3980887767
| 16> C 2.2752326954 0.4379555304 0.9171970188
| 17> C 0.9672377419 -1.4914043733 0.0686891614
| 18> H -1.877067841 -0.8848994404 1.949017123
| 19> H -3.1936436153 -0.9412380441 0.7797826957
| 20> H -1.6844609222 -1.7720511628 0.4365969377
| 21> H -2.2000862801 1.2182771095 0.6336116549
| 22> H -1.4199143139 -0.5167994244 -1.7395885241
| 23> H -2.9473516213 0.3020046345 -1.4521205297
| 24> H -1.4954951764 1.2516828546 -1.7642474466
| 25> H -0.0174354336 1.8203848405 0.3777790689
| 26> H -0.1000030813 0.6680456935 1.6976914242
| 27> H 0.6466023621 0.1456178136 -2.1013736208
| 28> H 2.3578667207 0.0727728698 -1.7114923747
| 29> H 1.4618506127 1.5677049406 -1.4529142138
| 30> H 3.1996236487 0.0143602531 0.530832793
| 31> H 2.1379826054 0.081240415 1.9356969773
| 32> H 2.381633994 1.5202358305 0.9444685363
| 33> H 0.2304633058 -1.8468355151 -0.6455315444
| 34> H 0.6909082413 -1.8325268973 1.0629372178
| 35> H 1.9248076114 -1.9393848252 -0.1910920531
| 36> *
| 37> 
| 38>                          ****END OF INPUT****
================================================================================

                       ****************************
                       * Single Point Calculation *
                       ****************************

---------------------------------
CARTESIAN COORDINATES (ANGSTROEM)
---------------------------------
  C     -2.112083   -0.882880    0.887155
  C     -1.599039    0.395480    0.222145
  C     -1.874085    0.356054   -1.278666
  C     -0.150618    0.759410    0.608920
  C      1.085636    0.032293    0.032223
  C      1.399639    0.482999   -1.398089
  C      2.275233    0.437956    0.917197
  C      0.967238   -1.491404    0.068689
  H     -1.877068   -0.884899    1.949017
  H     -3.193644   -0.941238    0.779783
  H     -1.684461   -1.772051    0.436597
  H     -2.200086    1.218277    0.633612
  H     -1.419914   -0.516799   -1.739589
  H     -2.947352    0.302005   -1.452121
  H     -1.495495    1.251683   -1.764247
  H     -0.017435    1.820385    0.377779
  H     -0.100003    0.668046    1.697691
  H      0.646602    0.145618   -2.101374
  H      2.357867    0.072773   -1.711492
  H      1.461851    1.567705   -1.452914
  H      3.199624    0.014360    0.530833
  H      2.137983    0.081240    1.935697
  H      2.381634    1.520236    0.944469
  H      0.230463   -1.846836   -0.645532
  H      0.690908   -1.832527    1.062937
  H      1.924808   -1.939385   -0.191092

----------------------------
CARTESIAN COORDINATES (A.U.)
----------------------------
  NO LB      ZA    FRAG     MASS         X           Y           Z
   0 C     6.0000    0    12.011   -3.991259   -1.668402    1.676480
   1 C     6.0000    0    12.011   -3.021746    0.747350    0.419794
   2 C     6.0000    0    12.011   -3.541507    0.672844   -2.416328
   3 C     6.0000    0    12.011   -0.284627    1.435077    1.150692
   4 C     6.0000    0    12.011    2.051556    0.061025    0.060892
   5 C     6.0000    0    12.011    2.644935    0.912736   -2.642005
   6 C     6.0000    0    12.011    4.299567    0.827616    1.733251
   7 C     6.0000    0    12.011    1.827814   -2.818346    0.129804
   8 H     1.0000    0     1.008   -3.547144   -1.672218    3.683109
   9 H     1.0000    0     1.008   -6.035112   -1.778682    1.473576
  10 H     1.0000    0     1.008   -3.183170   -3.348691    0.825049
  11 H     1.0000    0     1.008   -4.157561    2.302210    1.197353
  12 H     1.0000    0     1.008   -2.683249   -0.976609   -3.287346
  13 H     1.0000    0     1.008   -5.569687    0.570706   -2.744110
  14 H     1.0000    0     1.008   -2.826076    2.365338   -3.333945
  15 H     1.0000    0     1.008   -0.032948    3.440029    0.713899
  16 H     1.0000    0     1.008   -0.188978    1.262423    3.208172
  17 H     1.0000    0     1.008    1.221901    0.275178   -3.971021
  18 H     1.0000    0     1.008    4.455722    0.137521   -3.234252
  19 H     1.0000    0     1.008    2.762497    2.962533   -2.745610
  20 H     1.0000    0     1.008    6.046412    0.027137    1.003129
  21 H     1.0000    0     1.008    4.040202    0.153522    3.657937
  22 H     1.0000    0     1.008    4.500636    2.872829    1.784787
  23 H     1.0000    0     1.008    0.435513   -3.490013   -1.219878
  24 H     1.0000    0     1.008    1.305627   -3.462974    2.008660
  25 H     1.0000    0     1.008    3.637359   -3.664906   -0.361112

--------------------------------
INTERNAL COORDINATES (ANGSTROEM)
--------------------------------
 C      0   0   0     0.000000000000     0.00000000     0.00000000
 C      1   0   0     1.529594021923     0.00000000     0.00000000
 C      2   1   0     1.526315157376   110.21029237     0.00000000
 C      2   1   3     1.542713324890   113.77009037   229.21087672
 C      4   2   1     1.545834553165   123.11757073    76.19516260
 C      5   4   2     1.532163561696   111.94999603    76.87029861
 C      5   4   2     1.537166502876   106.25968741   193.98848838
 C      5   4   2     1.528725347139   113.45240626   312.52100479
 H      1   2   3     1.087560494845   110.70522361   177.24571815
 H      1   2   3     1.088442384245   109.58545887   296.40969745
 H      1   2   3     1.084660500993   111.85705844    55.98773678
 H      2   1   3     1.098888756930   106.23177347   115.33280327
 H      3   2   1     1.086551049639   111.25667359   302.66201834
 H      3   2   1     1.088535364110   109.61156539    61.71550861
 H      3   2   1     1.086863273421   110.80885771   181.12637584
 H      4   2   1     1.093997607705   106.86451954   199.36169068
 H      4   2   1     1.093769713834   105.86114079   312.71991248
 H      6   5   4     1.084204968677   111.81828658   290.81760652
 H      6   5   4     1.088442413259   109.77648227   171.09353062
 H      6   5   4     1.087870880181   110.61422468    51.86566371
 H      7   5   4     1.087754066171   110.51190499   183.76218196
 H      7   5   4     1.087853586759   110.78364721    63.86910220
 H      7   5   4     1.087839887113   110.65138237   303.65562042
 H      8   5   4     1.085946169405   111.28960190    70.32628749
 H      8   5   4     1.086854068832   110.75317253   308.83918962
 H      8   5   4     1.088628871409   109.65391001   189.46524323

---------------------------
INTERNAL COORDINATES (A.U.)
---------------------------
 C      0   0   0     0.000000000000     0.00000000     0.00000000
 C      1   0   0     2.890513797518     0.00000000     0.00000000
 C      2   1   0     2.884317641493   110.21029237     0.00000000
 C      2   1   3     2.915305687193   113.77009037   229.21087672
 C      4   2   1     2.921203953834   123.11757073    76.19516260
 C      5   4   2     2.895369523979   111.94999603    76.87029861
 C      5   4   2     2.904823712674   106.25968741   193.98848838
 C      5   4   2     2.888872240077   113.45240626   312.52100479
 H      1   2   3     2.055191489329   110.70522361   177.24571815
 H      1   2   3     2.056858018775   109.58545887   296.40969745
 H      1   2   3     2.049711295158   111.85705844    55.98773678
 H      2   1   3     2.076598802243   106.23177347   115.33280327
 H      3   2   1     2.053283914342   111.25667359   302.66201834
 H      3   2   1     2.057033725257   109.61156539    61.71550861
 H      3   2   1     2.053873931782   110.80885771   181.12637584
 H      4   2   1     2.067355869728   106.86451954   199.36169068
 H      4   2   1     2.066925212723   105.86114079   312.71991248
 H      6   5   4     2.048850463836   111.81828658   290.81760652
 H      6   5   4     2.056858073603   109.77648227   171.09353062
 H      6   5   4     2.055778032610   110.61422468    51.86566371
 H      7   5   4     2.055557286123   110.51190499   183.76218196
 H      7   5   4     2.055745352778   110.78364721    63.86910220
 H      7   5   4     2.055719464200   110.65138237   303.65562042
 H      8   5   4     2.052140856356   111.28960190    70.32628749
 H      8   5   4     2.053856537631   110.75317253   308.83918962
 H      8   5   4     2.057210428443   109.65391001   189.46524323

---------------------
BASIS SET INFORMATION
---------------------
There are 2 groups of distinct atoms

 Group   1 Type C   : 11s6p1d contracted to 5s3p1d pattern {62111/411/1}
 Group   2 Type H   : 4s1p contracted to 2s1p pattern {31/1}

Atom   0C    basis set group =>   1
Atom   1C    basis set group =>   1
Atom   2C    basis set group =>   1
Atom   3C    basis set group =>   1
Atom   4C    basis set group =>   1
Atom   5C    basis set group =>   1
Atom   6C    basis set group =>   1
Atom   7C    basis set group =>   1
Atom   8H    basis set group =>   2
Atom   9H    basis set group =>   2
Atom  10H    basis set group =>   2
Atom  11H    basis set group =>   2
Atom  12H    basis set group =>   2
Atom  13H    basis set group =>   2
Atom  14H    basis set group =>   2
Atom  15H    basis set group =>   2
Atom  16H    basis set group =>   2
Atom  17H    basis set group =>   2
Atom  18H    basis set group =>   2
Atom  19H    basis set group =>   2
Atom  20H    basis set group =>   2
Atom  21H    basis set group =>   2
Atom  22H    basis set group =>   2
Atom  23H    basis set group =>   2
Atom  24H    basis set group =>   2
Atom  25H    basis set group =>   2
---------------------------------
AUXILIARY/J BASIS SET INFORMATION
---------------------------------
There are 2 groups of distinct atoms

 Group   1 Type C   : 12s5p4d2f1g contracted to 6s4p3d1f1g pattern {711111/2111/211/2/1}
 Group   2 Type H   : 5s2p1d contracted to 3s1p1d pattern {311/2/1}

Atom   0C    basis set group =>   1
Atom   1C    basis set group =>   1
Atom   2C    basis set group =>   1
Atom   3C    basis set group =>   1
Atom   4C    basis set group =>   1
Atom   5C    basis set group =>   1
Atom   6C    basis set group =>   1
Atom   7C    basis set group =>   1
Atom   8H    basis set group =>   2
Atom   9H    basis set group =>   2
Atom  10H    basis set group =>   2
Atom  11H    basis set group =>   2
Atom  12H    basis set group =>   2
Atom  13H    basis set group =>   2
Atom  14H    basis set group =>   2
Atom  15H    basis set group =>   2
Atom  16H    basis set group =>   2
Atom  17H    basis set group =>   2
Atom  18H    basis set group =>   2
Atom  19H    basis set group =>   2
Atom  20H    basis set group =>   2
Atom  21H    basis set group =>   2
Atom  22H    basis set group =>   2
Atom  23H    basis set group =>   2
Atom  24H    basis set group =>   2
Atom  25H    basis set group =>   2

Checking for AutoStart:
The File: sp_solv.gbw exists
Trying to determine its content:
     ... Fine, the file contains calculation information
     ... Fine, the calculation information was read
     ... Fine, the file contains a basis set
     ... Fine, the basis set was read
     ... Fine, the file contains a geometry
     ... Fine, the geometry was read
     ... Fine, the file contains a set of orbitals
     ... Fine, the orbitals can be read
     => possible old guess file was deleted
     => GBW file was renamed to GES file
     => GES file is set as startup file
     => Guess is set to MORead
     ... now leaving AutoStart

------------------------------------------------------------------------------
                             ORCA STARTUP CALCULATIONS
                           -- RI-GTO INTEGRALS CHOSEN --
------------------------------------------------------------------------------
------------------------------------------------------------------------------
                   ___                                                        
                  /   \      - P O W E R E D   B Y -                         
                 /     \                                                     
                 |  |  |   _    _      __       _____    __    __             
                 |  |  |  | |  | |    /  \     |  _  \  |  |  /  |          
                  \  \/   | |  | |   /    \    | | | |  |  | /  /          
                 / \  \   | |__| |  /  /\  \   | |_| |  |  |/  /          
                |  |  |   |  __  | /  /__\  \  |    /   |      \           
                |  |  |   | |  | | |   __   |  |    \   |  |\   \          
                \     /   | |  | | |  |  |  |  | |\  \  |  | \   \       
                 \___/    |_|  |_| |__|  |__|  |_| \__\ |__|  \__/        
                                                                              
                      - O R C A' S   B I G   F R I E N D -                    
                                      &                                       
                       - I N T E G R A L  F E E D E R -                       
                                                                              
 v1 FN, 2020, v2 2021, v3 2022-2024                                           
------------------------------------------------------------------------------


----------------------
SHARK INTEGRAL PACKAGE
----------------------

Number of atoms                             ...     26
Number of basis functions                   ...    242
Number of shells                            ...    126
Maximum angular momentum                    ...      2
Integral batch strategy                     ... SHARK/LIBINT Hybrid
RI-J (if used) integral strategy            ... SPLIT-RIJ (Revised 2003 algorithm where possible)
Printlevel                                  ...      1
Contraction scheme used                     ... SEGMENTED contraction
Prescreening option                         ... SCHWARTZ
   Thresh                                   ... 1.000e-10
   Tcut                                     ... 1.000e-11
   Tpresel                                  ... 1.000e-11 
Coulomb Range Separation                    ... NOT USED
Exchange Range Separation                   ... NOT USED
Multipole approximations                    ... NOT USED
Finite Nucleus Model                        ... NOT USED
CABS basis                                  ... NOT available
Auxiliary Coulomb fitting basis             ... AVAILABLE
   # of basis functions in Aux-J            ...    590
   # of shells in Aux-J                     ...    210
   Maximum angular momentum in Aux-J        ...      4
Auxiliary J/K fitting basis                 ... NOT available
Auxiliary Correlation fitting basis         ... NOT available
Auxiliary 'external' fitting basis          ... NOT available

Checking pre-screening integrals            ... done (  0.0 sec) Dimension = 126
Check shell pair data                       ... done (  0.0 sec)
Shell pair information
Shell pair cut-off parameter TPreSel        ...   1.0e-11
Total number of shell pairs                 ...      8001
Shell pairs after pre-screening             ...      7318
Total number of primitive shell pairs       ...     27725
Primitive shell pairs kept                  ...     17987
          la=0 lb=0:   2673 shell pairs
          la=1 lb=0:   2912 shell pairs
          la=1 lb=1:    821 shell pairs
          la=2 lb=0:    566 shell pairs
          la=2 lb=1:    310 shell pairs
          la=2 lb=2:     36 shell pairs

Calculating one electron integrals          ... done (  0.0 sec)
Calculating RI/J V-Matrix + Cholesky decomp.... done (  0.1 sec)
Calculating Nuclear repulsion               ... done (  0.0 sec) ENN=    425.317061432492 Eh

Diagonalization of the overlap matrix:
Smallest eigenvalue                        ... 1.172e-04
Time for diagonalization                   ...    0.006 sec
Threshold for overlap eigenvalues          ... 1.000e-07
Number of eigenvalues below threshold      ... 0
Time for construction of square roots      ...    0.038 sec
Total time needed                          ...    0.056 sec

-------------------
DFT GRID GENERATION
-------------------

General Integration Accuracy     IntAcc      ... 4.388
Radial Grid Type                 RadialGrid  ... OptM3 with GC (2021)
Angular Grid (max. ang.)         AngularGrid ... 4 (Lebedev-302)
Angular grid pruning method      GridPruning ... 4 (adaptive)
Weight generation scheme         WeightScheme... mBecke (2022)
Basis function cutoff            BFCut       ... 1.0000e-10
Integration weight cutoff        WCut        ... 1.0000e-14
Partially contracted basis set               ... off
Rotationally invariant grid construction     ... off
Angular grids for H and He will be reduced by one unit

Total number of grid points                  ...   104706
Total number of batches                      ...     1648
Average number of points per batch           ...       63
Average number of grid points per atom       ...     4027
Initializing property integral containers    ... done (  0.0 sec)

SHARK setup successfully completed in   1.9 seconds

Maximum memory used throughout the entire STARTUP-calculation: 45.3 MB
-------------------------------------------------------------------------------
                                 ORCA GUESS
                   Start orbitals & Density for SCF / CASSCF
-------------------------------------------------------------------------------

------------
SCF SETTINGS
------------
Hamiltonian:
 Density Functional     Method          .... DFT(GTOs)
  Functional kind                       .... Exchange
  Functional name                       .... Re-regularized SCAN exchange by Furness et al
  Functional family                     .... MGGA
  Functional refs                              
    [ 0] J. W. Furness, A. D. Kaplan, J. Ning, J. P. Perdew, and J. Sun.,  J. Phys. Chem. Lett. 11, 8208-8215 (2020), doi: 10.1021/acs.jpclett.0c02405
    [ 1] J. W. Furness, A. D. Kaplan, J. Ning, J. P. Perdew, and J. Sun.,  J. Phys. Chem. Lett. 11, 9248-9248 (2020), doi: 10.1021/acs.jpclett.0c03077
  Functional external parameters        .... 6
    Parameter  0 _c1        =  6.670000e-01 : c1 parameter        
    Parameter  1 _c2        =  8.000000e-01 : c2 parameter        
    Parameter  2 _d         =  1.240000e+00 : d parameter         
    Parameter  3 _k1        =  6.500000e-02 : k1 parameter        
    Parameter  4 _eta       =  1.000000e-03 : eta parameter       
    Parameter  5 _dp2       =  3.610000e-01 : dp2 parameter       
  Functional kind                       .... Correlation
  Functional name                       .... Re-regularized SCAN correlation by Furness et al
  Functional family                     .... MGGA
  Functional refs                              
    [ 0] J. W. Furness, A. D. Kaplan, J. Ning, J. P. Perdew, and J. Sun.,  J. Phys. Chem. Lett. 11, 8208-8215 (2020), doi: 10.1021/acs.jpclett.0c02405
    [ 1] J. W. Furness, A. D. Kaplan, J. Ning, J. P. Perdew, and J. Sun.,  J. Phys. Chem. Lett. 11, 9248-9248 (2020), doi: 10.1021/acs.jpclett.0c03077
  Functional external parameters        .... 1
    Parameter  0 _eta       =  1.000000e-03 : Regularization parameter
 Gradients option       PostSCFGGA      .... off
 RI-approximation to the Coulomb term is turned on
   Number of AuxJ basis functions       .... 590


General Settings:
 Integral files         IntName         .... sp_solv
 Hartree-Fock type      HFTyp           .... RHF
 Total Charge           Charge          ....    0
 Multiplicity           Mult            ....    1
 Number of Electrons    NEL             ....   66
 Basis Dimension        Dim             ....  242
 Nuclear Repulsion      ENuc            ....    425.3170614325 Eh

Convergence Acceleration:
 AO-DIIS                CNVDIIS         .... on
   Start iteration      DIISMaxIt       ....    12
   Startup error        DIISStart       ....  0.200000
   # of expansion vecs  DIISMaxEq       ....     5
   Bias factor          DIISBfac        ....   1.050
   Max. coefficient     DIISMaxC        ....  10.000
 MO-DIIS                CNVKDIIS        .... off
 Trust-Rad. Augm. Hess. CNVTRAH         .... auto
   Auto Start mean grad. ratio tolernc. ....  1.125000
   Auto Start start iteration           ....     1
   Auto Start num. interpolation iter.  ....    10
   Max. Number of Micro iterations      ....    24
   Max. Number of Macro iterations      .... Maxiter - #DIIS iter
   Number of Davidson start vectors     ....     2
   Converg. threshold    (grad. norm)   ....   3.330e-04
   Grad. Scal. Fac. for Micro threshold ....   0.100
   Minimum threshold for Micro iter.    ....   1.000e-02
   NR start threshold (gradient norm)   ....   1.000e-04
   Initial trust radius                 ....   0.400
   Minimum AH scaling param. (alpha)    ....   1.000
   Maximum AH scaling param. (alpha)    .... 1000.000
   Quad. conv. algorithm                .... NR
   White noise on init. David. guess    .... on
   Maximum white noise                  ....   0.010
   Pseudo random numbers                .... off
   Inactive MOs                         .... canonical
   Orbital update algorithm             .... Taylor
   Preconditioner                       .... Diag
   Full preconditioner red. dimension   ....   250
   COSX micro iterations for RIJONX calc.... off
 SOSCF                  CNVSOSCF        .... on
   Start iteration      SOSCFMaxIt      ....   150
   Startup grad/error   SOSCFStart      ....  0.003300
   Hessian update       SOSCFHessUp     .... L-BFGS
 Level Shifting         CNVShift        .... on
   Level shift para.    LevelShift      ....    0.2500
   Turn off err/grad.   ShiftErr        ....    0.0010
 Zerner damping         CNVZerner       .... off
 Static damping         CNVDamp         .... on
   Fraction old density DampFac         ....    0.7000
   Max. Damping (<1)    DampMax         ....    0.9800
   Min. Damping (>=0)   DampMin         ....    0.0000
   Turn off err/grad.   DampErr         ....    0.1000

SCF Procedure:
 Maximum # iterations   MaxIter         ....   125
 SCF integral mode      SCFMode         .... Direct
   Integral package                     .... SHARK and LIBINT hybrid scheme
 Reset frequency        DirectResetFreq ....    20
 Integral Threshold     Thresh          ....  1.000e-10 Eh
 Primitive CutOff       TCut            ....  1.000e-11 Eh

Convergence Tolerance:
 Convergence Check Mode ConvCheckMode   .... Total+1el-Energy
 Convergence forced     ConvForced      .... 0
 Energy Change          TolE            ....  1.000e-06 Eh
 1-El. energy change                    ....  1.000e-03 Eh
 Orbital Gradient       TolG            ....  3.330e-04
 Orbital Rotation angle TolX            ....  3.330e-04
 DIIS Error             TolErr          ....  1.000e-06

---------------------
INITIAL GUESS: MOREAD
---------------------
Guess MOs are being read from file: sp_solv.ges
Input Geometry matches current geometry (good)
Atom 0: N(Shells)= 9 and 6 - projection required
Input basis set needs projection
NBasis(read)= 148
NBasis(calc)= 242
Basis set overlap was calculated
Using GuessMode=FMatrix for the initial guess
C*T matrix was formed
Effective Fockian was calculated
Effective Fockian was diagonalized
Initial density was built
                      ------------------
                      INITIAL GUESS DONE (   0.1 sec)
                      ------------------
             **** ENERGY FILE WAS UPDATED (sp_solv.en.tmp) ****
Finished Guess after   0.5 sec
Maximum memory used throughout the entire GUESS-calculation: 17.9 MB

-------------------------------------------------------------------------------------------
                                      ORCA LEAN-SCF
                              memory conserving SCF solver
-------------------------------------------------------------------------------------------

--------------------
CPCM SOLVATION MODEL
--------------------
CPCM parameters:
  Epsilon                                         ...      78.3550
  Refrac                                          ...       1.3328
  Rsolv                                           ...       1.3000
  Surface type                                    ... GAUSSIAN VDW
  Discretization scheme                           ... Constant charge density
    Threshold for H atoms                         ...       5.0000 (charges/Ang^2)
    Threshold for non-H atoms                     ...       5.0000 (charges/Ang^2)
  Epsilon function type                           ...         CPCM
Solvent:                                          ... WATER
SMD-CDS solvent descriptors:
  Soln                                            ...       1.3328
  Soln25                                          ...       1.3323
  Sola                                            ...       0.0000
  Solb                                            ...       0.0000
  Solg                                            ...       0.0000
  Solc                                            ...       0.0000
  Solh                                            ...       0.0000
Radii:
  Scheme                                          ... Element-dependent radii
  Radius for C  used is    3.4960 Bohr (=   1.8500 Ang.)
  Radius for H  used is    2.2677 Bohr (=   1.2000 Ang.)
Calculating surface                               ...        done! (  0.0s)
Cavity surface points                             ...         1834
Cavity Volume                                     ...    1029.4605
Cavity Surface-area                               ...     642.9048
Calculating surface distance matrix               ...        done! (  0.0s)
Performing Cholesky decomposition & store         ...        done! (  0.1s)
Overall time for CPCM initialization              ...                 0.2s

----------------------------------------D-I-I-S--------------------------------------------
Iteration    Energy (Eh)           Delta-E    RMSDP     MaxDP     DIISErr   Damp  Time(sec)
-------------------------------------------------------------------------------------------
               ***  Starting incremental Fock matrix formation  ***
    1    -315.4156557845803377     0.00e+00  4.61e-03  2.63e-01  2.88e-01  0.700   4.8
    2    -315.4673096675379043    -5.17e-02  3.59e-03  1.75e-01  2.03e-01  0.700   4.4
                               ***Turning on AO-DIIS***
    3    -315.5039206488299328    -3.66e-02  2.63e-03  1.15e-01  1.42e-01  0.700   4.3
    4    -315.5296438569760653    -2.57e-02  1.88e-03  7.81e-02  9.93e-02  0.700   4.2
    5    -315.5476996943919517    -1.81e-02  4.42e-03  1.80e-01  6.95e-02  0.000   4.0
                              *** Initializing SOSCF ***
---------------------------------------S-O-S-C-F--------------------------------------
Iteration    Energy (Eh)           Delta-E    RMSDP     MaxDP     MaxGrad    Time(sec)
--------------------------------------------------------------------------------------
    6    -315.5900051424783328    -4.23e-02  6.32e-05  2.28e-03  2.57e-04     4.3
               *** Restarting incremental Fock matrix formation ***
    7    -315.5900065636046179    -1.42e-06  2.75e-05  5.01e-04  4.60e-05     4.7
                  *** Gradient check signals convergence ***

               *****************************************************
               *                     SUCCESS                       *
               *           SCF CONVERGED AFTER   7 CYCLES          *
               *****************************************************


SMD CDS free energy correction energy :                 4.20142     Kcal/mol
Total Energy after SMD CDS correction =              -315.583311173 Eh
             **** ENERGY FILE WAS UPDATED (sp_solv.en.tmp) ****

----------------
TOTAL SCF ENERGY
----------------

Total Energy       :       -315.58331117308813 Eh           -8587.45847 eV

Components:
Nuclear Repulsion  :        425.31706143249227 Eh           11573.46563 eV
Electronic Energy  :       -740.90398801082051 Eh          -20161.02248 eV
One Electron Energy:      -1266.63106392898908 Eh          -34466.78351 eV
Two Electron Energy:        525.72707591816857 Eh           14305.76103 eV
CPCM Dielectric    :         -0.00307998527642 Eh              -0.08381 eV
SMD CDS (Gcds)     :          0.00669539051647 Eh               0.18219 eV

Virial components:
Potential Energy   :       -629.66677337297165 Eh          -17134.10398 eV
Kinetic Energy     :        314.08346219988346 Eh            8546.64551 eV
Virial Ratio       :          2.00477531979143

DFT components:
N(Alpha)           :       33.000038432631 electrons
N(Beta)            :       33.000038432631 electrons
N(Total)           :       66.000076865263 electrons
E(X)               :      -48.058139380267 Eh       
E(C)               :       -2.034254052332 Eh       
E(XC)              :      -50.092393432599 Eh       

CPCM Solvation Model Properties:
Surface-charge          :         -0.05452186779021
Corrected charge        :          0.00000000000000
Outlying charge corr.   :          0.00022148730373 Eh               0.00603 eV
Free-energy (cav+disp)  :          0.00669539051647 Eh               0.18219 eV

---------------
SCF CONVERGENCE
---------------

  Last Energy change         ...    1.4211e-06  Tolerance :   1.0000e-06
  Last MAX-Density change    ...    5.0073e-04  Tolerance :   1.0000e-05
  Last RMS-Density change    ...    2.7477e-05  Tolerance :   1.0000e-06
  Last DIIS Error            ...    2.5678e-04  Tolerance :   1.0000e-06
  Last Orbital Gradient      ...    4.6041e-05  Tolerance :   3.3300e-04
  Last Orbital Rotation      ...    1.1844e-04  Tolerance :   3.3300e-04


----------------
ORBITAL ENERGIES
----------------

  NO   OCC          E(Eh)            E(eV) 
   0   2.0000     -10.032008      -272.9848 
   1   2.0000     -10.023532      -272.7542 
   2   2.0000     -10.009384      -272.3692 
   3   2.0000     -10.003988      -272.2224 
   4   2.0000     -10.003326      -272.2043 
   5   2.0000     -10.002717      -272.1878 
   6   2.0000     -10.002557      -272.1834 
   7   2.0000     -10.001708      -272.1603 
   8   2.0000      -0.785660       -21.3789 
   9   2.0000      -0.742547       -20.2057 
  10   2.0000      -0.645869       -17.5750 
  11   2.0000      -0.645527       -17.5657 
  12   2.0000      -0.634114       -17.2551 
  13   2.0000      -0.632147       -17.2016 
  14   2.0000      -0.528283       -14.3753 
  15   2.0000      -0.479047       -13.0355 
  16   2.0000      -0.427124       -11.6226 
  17   2.0000      -0.414750       -11.2859 
  18   2.0000      -0.405362       -11.0305 
  19   2.0000      -0.389454       -10.5976 
  20   2.0000      -0.380430       -10.3520 
  21   2.0000      -0.373433       -10.1616 
  22   2.0000      -0.351970        -9.5776 
  23   2.0000      -0.341970        -9.3055 
  24   2.0000      -0.331383        -9.0174 
  25   2.0000      -0.320365        -8.7176 
  26   2.0000      -0.318675        -8.6716 
  27   2.0000      -0.312440        -8.5019 
  28   2.0000      -0.294998        -8.0273 
  29   2.0000      -0.287428        -7.8213 
  30   2.0000      -0.273605        -7.4452 
  31   2.0000      -0.267118        -7.2687 
  32   2.0000      -0.252535        -6.8718 
  33   0.0000       0.077252         2.1021 
  34   0.0000       0.112510         3.0615 
  35   0.0000       0.119216         3.2440 
  36   0.0000       0.127983         3.4826 
  37   0.0000       0.131457         3.5771 
  38   0.0000       0.136272         3.7081 
  39   0.0000       0.139264         3.7896 
  40   0.0000       0.142418         3.8754 
  41   0.0000       0.153132         4.1669 
  42   0.0000       0.157907         4.2969 
  43   0.0000       0.160674         4.3722 
*Only the first 10 virtual orbitals were printed.

                    ********************************
                    * MULLIKEN POPULATION ANALYSIS *
                    ********************************

-----------------------
MULLIKEN ATOMIC CHARGES
-----------------------
   0 C :   -0.543712
   1 C :    0.007699
   2 C :   -0.562957
   3 C :   -0.350689
   4 C :    0.224740
   5 C :   -0.564178
   6 C :   -0.547908
   7 C :   -0.579741
   8 H :    0.159009
   9 H :    0.154503
  10 H :    0.163195
  11 H :    0.150543
  12 H :    0.166664
  13 H :    0.154236
  14 H :    0.160928
  15 H :    0.162285
  16 H :    0.157145
  17 H :    0.168003
  18 H :    0.159767
  19 H :    0.169210
  20 H :    0.164649
  21 H :    0.165121
  22 H :    0.162231
  23 H :    0.171004
  24 H :    0.169367
  25 H :    0.158884
Sum of atomic charges:    0.0000000

--------------------------------
MULLIKEN REDUCED ORBITAL CHARGES
--------------------------------
  0 C s       :     3.349977  s :     3.349977
      pz      :     1.081384  p :     3.166628
      px      :     1.092549
      py      :     0.992695
      dz2     :     0.007987  d :     0.027107
      dxz     :     0.001750
      dyz     :     0.004929
      dx2y2   :     0.008038
      dxy     :     0.004403

  1 C s       :     3.076996  s :     3.076996
      pz      :     0.903197  p :     2.868632
      px      :     0.982776
      py      :     0.982659
      dz2     :     0.011317  d :     0.046673
      dxz     :     0.008432
      dyz     :     0.008688
      dx2y2   :     0.008444
      dxy     :     0.009791

  2 C s       :     3.363186  s :     3.363186
      pz      :     0.958689  p :     3.172504
      px      :     1.114752
      py      :     1.099064
      dz2     :     0.006969  d :     0.027267
      dxz     :     0.004443
      dyz     :     0.007311
      dx2y2   :     0.005831
      dxy     :     0.002713

  3 C s       :     3.259291  s :     3.259291
      pz      :     1.074687  p :     3.054993
      px      :     0.912814
      py      :     1.067492
      dz2     :     0.010645  d :     0.036405
      dxz     :     0.005785
      dyz     :     0.001706
      dx2y2   :     0.011385
      dxy     :     0.006885

  4 C s       :     2.941359  s :     2.941359
      pz      :     0.905518  p :     2.779245
      px      :     0.956586
      py      :     0.917141
      dz2     :     0.012029  d :     0.054656
      dxz     :     0.011714
      dyz     :     0.008867
      dx2y2   :     0.012303
      dxy     :     0.009744

  5 C s       :     3.363729  s :     3.363729
      pz      :     0.975844  p :     3.173290
      px      :     1.099263
      py      :     1.098183
      dz2     :     0.006906  d :     0.027159
      dxz     :     0.007471
      dyz     :     0.003889
      dx2y2   :     0.006360
      dxy     :     0.002533

  6 C s       :     3.359806  s :     3.359806
      pz      :     1.053597  p :     3.160870
      px      :     1.007291
      py      :     1.099982
      dz2     :     0.007744  d :     0.027231
      dxz     :     0.005228
      dyz     :     0.002668
      dx2y2   :     0.007654
      dxy     :     0.003938

  7 C s       :     3.376244  s :     3.376244
      pz      :     1.108334  p :     3.176216
      px      :     1.112951
      py      :     0.954930
      dz2     :     0.005305  d :     0.027281
      dxz     :     0.004449
      dyz     :     0.005303
      dx2y2   :     0.006041
      dxy     :     0.006183

  8 H s       :     0.822659  s :     0.822659
      pz      :     0.010660  p :     0.018332
      px      :     0.004056
      py      :     0.003616

  9 H s       :     0.827230  s :     0.827230
      pz      :     0.003744  p :     0.018267
      px      :     0.010841
      py      :     0.003682

 10 H s       :     0.818094  s :     0.818094
      pz      :     0.004936  p :     0.018711
      px      :     0.005113
      py      :     0.008663

 11 H s       :     0.832103  s :     0.832103
      pz      :     0.004337  p :     0.017354
      px      :     0.005542
      py      :     0.007475

 12 H s       :     0.814851  s :     0.814851
      pz      :     0.004927  p :     0.018485
      px      :     0.005113
      py      :     0.008445

 13 H s       :     0.827505  s :     0.827505
      pz      :     0.003814  p :     0.018259
      px      :     0.010715
      py      :     0.003729

 14 H s       :     0.820748  s :     0.820748
      pz      :     0.005164  p :     0.018325
      px      :     0.004603
      py      :     0.008557

 15 H s       :     0.819895  s :     0.819895
      pz      :     0.003881  p :     0.017819
      px      :     0.003458
      py      :     0.010480

 16 H s       :     0.824915  s :     0.824915
      pz      :     0.010933  p :     0.017939
      px      :     0.003406
      py      :     0.003601

 17 H s       :     0.813222  s :     0.813222
      pz      :     0.006744  p :     0.018775
      px      :     0.007629
      py      :     0.004403

 18 H s       :     0.821982  s :     0.821982
      pz      :     0.004202  p :     0.018251
      px      :     0.009372
      py      :     0.004677

 19 H s       :     0.812544  s :     0.812544
      pz      :     0.003533  p :     0.018246
      px      :     0.003774
      py      :     0.010938

 20 H s       :     0.817151  s :     0.817151
      pz      :     0.004471  p :     0.018200
      px      :     0.008975
      py      :     0.004754

 21 H s       :     0.816671  s :     0.816671
      pz      :     0.010138  p :     0.018208
      px      :     0.003629
      py      :     0.004440

 22 H s       :     0.819528  s :     0.819528
      pz      :     0.003639  p :     0.018241
      px      :     0.003671
      py      :     0.010931

 23 H s       :     0.810461  s :     0.810461
      pz      :     0.006851  p :     0.018535
      px      :     0.007290
      py      :     0.004394

 24 H s       :     0.812363  s :     0.812363
      pz      :     0.009777  p :     0.018270
      px      :     0.004178
      py      :     0.004315

 25 H s       :     0.822875  s :     0.822875
      pz      :     0.004096  p :     0.018241
      px      :     0.009291
      py      :     0.004854


------------------------
MULLIKEN OVERLAP CHARGES
------------------------
B(  0-C ,  1-C ) :   0.5485 B(  0-C ,  2-C ) :  -0.2192 B(  0-C ,  3-C ) :  -0.2164 
B(  0-C ,  8-H ) :   0.8302 B(  0-C ,  9-H ) :   0.8073 B(  0-C , 10-H ) :   0.8446 
B(  0-C , 11-H ) :  -0.0795 B(  1-C ,  2-C ) :   0.3790 B(  1-C ,  3-C ) :   0.3080 
B(  1-C ,  4-C ) :  -0.0939 B(  1-C ,  7-C ) :   0.0644 B(  1-C ,  8-H ) :  -0.1096 
B(  1-C ,  9-H ) :  -0.0959 B(  1-C , 10-H ) :  -0.0655 B(  1-C , 11-H ) :   0.9316 
B(  1-C , 12-H ) :  -0.0883 B(  1-C , 13-H ) :  -0.0746 B(  1-C , 14-H ) :  -0.0807 
B(  1-C , 16-H ) :  -0.0938 B(  2-C ,  3-C ) :  -0.1581 B(  2-C , 11-H ) :  -0.0706 
B(  2-C , 12-H ) :   0.8682 B(  2-C , 13-H ) :   0.7965 B(  2-C , 14-H ) :   0.8020 
B(  3-C ,  4-C ) :   0.2427 B(  3-C ,  5-C ) :  -0.2384 B(  3-C ,  6-C ) :  -0.2637 
B(  3-C ,  7-C ) :  -0.2230 B(  3-C , 11-H ) :  -0.1528 B(  3-C , 15-H ) :   0.8013 
B(  3-C , 16-H ) :   0.8361 B(  4-C ,  5-C ) :   0.5728 B(  4-C ,  6-C ) :   0.6137 
B(  4-C ,  7-C ) :   0.4159 B(  4-C , 15-H ) :  -0.0830 B(  4-C , 16-H ) :  -0.0796 
B(  4-C , 17-H ) :  -0.0526 B(  4-C , 18-H ) :  -0.0925 B(  4-C , 19-H ) :  -0.0994 
B(  4-C , 20-H ) :  -0.0917 B(  4-C , 21-H ) :  -0.0608 B(  4-C , 22-H ) :  -0.0883 
B(  4-C , 23-H ) :  -0.0760 B(  4-C , 24-H ) :  -0.0880 B(  4-C , 25-H ) :  -0.0736 
B(  5-C ,  6-C ) :  -0.3055 B(  5-C ,  7-C ) :  -0.2922 B(  5-C , 17-H ) :   0.7881 
B(  5-C , 18-H ) :   0.8222 B(  5-C , 19-H ) :   0.8366 B(  6-C ,  7-C ) :  -0.3118 
B(  6-C , 20-H ) :   0.8271 B(  6-C , 21-H ) :   0.8139 B(  6-C , 22-H ) :   0.8092 
B(  7-C , 23-H ) :   0.8169 B(  7-C , 24-H ) :   0.8013 B(  7-C , 25-H ) :   0.8003 



                     *******************************
                     * LOEWDIN POPULATION ANALYSIS *
                     *******************************

----------------------
LOEWDIN ATOMIC CHARGES
----------------------
   0 C :   -0.428731
   1 C :   -0.238106
   2 C :   -0.425801
   3 C :   -0.294201
   4 C :   -0.200803
   5 C :   -0.417498
   6 C :   -0.420430
   7 C :   -0.414321
   8 H :    0.154894
   9 H :    0.153497
  10 H :    0.155824
  11 H :    0.158386
  12 H :    0.153829
  13 H :    0.154162
  14 H :    0.156091
  15 H :    0.165088
  16 H :    0.165616
  17 H :    0.159300
  18 H :    0.157101
  19 H :    0.158445
  20 H :    0.156475
  21 H :    0.157379
  22 H :    0.158706
  23 H :    0.157268
  24 H :    0.159929
  25 H :    0.157904

-------------------------------
LOEWDIN REDUCED ORBITAL CHARGES
-------------------------------
  0 C s       :     2.970653  s :     2.970653
      pz      :     1.140817  p :     3.394731
      px      :     1.147445
      py      :     1.106469
      dz2     :     0.018960  d :     0.063348
      dxz     :     0.004119
      dyz     :     0.011469
      dx2y2   :     0.018897
      dxy     :     0.009904

  1 C s       :     2.904411  s :     2.904411
      pz      :     1.072066  p :     3.238514
      px      :     1.071890
      py      :     1.094559
      dz2     :     0.024082  d :     0.095181
      dxz     :     0.016016
      dyz     :     0.017298
      dx2y2   :     0.017390
      dxy     :     0.020395

  2 C s       :     2.968889  s :     2.968889
      pz      :     1.083201  p :     3.393201
      px      :     1.155137
      py      :     1.154863
      dz2     :     0.016483  d :     0.063711
      dxz     :     0.009249
      dyz     :     0.016264
      dx2y2   :     0.014614
      dxy     :     0.007100

  3 C s       :     2.929907  s :     2.929907
      pz      :     1.118714  p :     3.285349
      px      :     1.051438
      py      :     1.115198
      dz2     :     0.024290  d :     0.078945
      dxz     :     0.011540
      dyz     :     0.003883
      dx2y2   :     0.025167
      dxy     :     0.014065

  4 C s       :     2.882056  s :     2.882056
      pz      :     1.073692  p :     3.211068
      px      :     1.059940
      py      :     1.077436
      dz2     :     0.024281  d :     0.107680
      dxz     :     0.023659
      dyz     :     0.016178
      dx2y2   :     0.025004
      dxy     :     0.018557

  5 C s       :     2.966438  s :     2.966438
      pz      :     1.085198  p :     3.387305
      px      :     1.151577
      py      :     1.150530
      dz2     :     0.016148  d :     0.063756
      dxz     :     0.017086
      dyz     :     0.008432
      dx2y2   :     0.015809
      dxy     :     0.006281

  6 C s       :     2.972021  s :     2.972021
      pz      :     1.129772  p :     3.384645
      px      :     1.102729
      py      :     1.152143
      dz2     :     0.017954  d :     0.063764
      dxz     :     0.012407
      dyz     :     0.006263
      dx2y2   :     0.018263
      dxy     :     0.008877

  7 C s       :     2.964586  s :     2.964586
      pz      :     1.154509  p :     3.385666
      px      :     1.156551
      py      :     1.074606
      dz2     :     0.013156  d :     0.064070
      dxz     :     0.011424
      dyz     :     0.011420
      dx2y2   :     0.014434
      dxy     :     0.013636

  8 H s       :     0.801251  s :     0.801251
      pz      :     0.026575  p :     0.043855
      px      :     0.009074
      py      :     0.008207

  9 H s       :     0.802655  s :     0.802655
      pz      :     0.008381  p :     0.043848
      px      :     0.027006
      py      :     0.008461

 10 H s       :     0.798986  s :     0.798986
      pz      :     0.011640  p :     0.045190
      px      :     0.011829
      py      :     0.021721

 11 H s       :     0.798829  s :     0.798829
      pz      :     0.010650  p :     0.042785
      px      :     0.013765
      py      :     0.018370

 12 H s       :     0.801734  s :     0.801734
      pz      :     0.011766  p :     0.044437
      px      :     0.011833
      py      :     0.020838

 13 H s       :     0.802020  s :     0.802020
      pz      :     0.008880  p :     0.043818
      px      :     0.026744
      py      :     0.008194

 14 H s       :     0.800007  s :     0.800007
      pz      :     0.012175  p :     0.043902
      px      :     0.010478
      py      :     0.021249

 15 H s       :     0.791118  s :     0.791118
      pz      :     0.009059  p :     0.043795
      px      :     0.008464
      py      :     0.026272

 16 H s       :     0.790548  s :     0.790548
      pz      :     0.027382  p :     0.043836
      px      :     0.008057
      py      :     0.008397

 17 H s       :     0.795237  s :     0.795237
      pz      :     0.016877  p :     0.045463
      px      :     0.018411
      py      :     0.010174

 18 H s       :     0.798842  s :     0.798842
      pz      :     0.009947  p :     0.044057
      px      :     0.023229
      py      :     0.010880

 19 H s       :     0.797535  s :     0.797535
      pz      :     0.008227  p :     0.044020
      px      :     0.008323
      py      :     0.027470

 20 H s       :     0.799434  s :     0.799434
      pz      :     0.010461  p :     0.044091
      px      :     0.022543
      py      :     0.011088

 21 H s       :     0.798523  s :     0.798523
      pz      :     0.025472  p :     0.044098
      px      :     0.008386
      py      :     0.010240

 22 H s       :     0.797180  s :     0.797180
      pz      :     0.008270  p :     0.044114
      px      :     0.008374
      py      :     0.027470

 23 H s       :     0.798101  s :     0.798101
      pz      :     0.016604  p :     0.044631
      px      :     0.017468
      py      :     0.010560

 24 H s       :     0.795977  s :     0.795977
      pz      :     0.024436  p :     0.044094
      px      :     0.009372
      py      :     0.010286

 25 H s       :     0.798110  s :     0.798110
      pz      :     0.009213  p :     0.043986
      px      :     0.023123
      py      :     0.011650


---------------------------------
LOEWDIN BOND ORDERS (THRESH 0.050000)
---------------------------------
B(  0-C ,  1-C ) :   1.1095 B(  0-C ,  2-C ) :   0.0711 B(  0-C ,  3-C ) :   0.0646 
B(  0-C ,  8-H ) :   0.9241 B(  0-C ,  9-H ) :   0.9236 B(  0-C , 10-H ) :   0.9189 
B(  1-C ,  2-C ) :   1.1108 B(  1-C ,  3-C ) :   1.0771 B(  1-C ,  4-C ) :   0.0514 
B(  1-C , 11-H ) :   0.8573 B(  2-C ,  3-C ) :   0.0597 B(  2-C , 12-H ) :   0.9209 
B(  2-C , 13-H ) :   0.9217 B(  2-C , 14-H ) :   0.9213 B(  3-C ,  4-C ) :   1.0386 
B(  3-C ,  5-C ) :   0.0649 B(  3-C ,  6-C ) :   0.0855 B(  3-C ,  7-C ) :   0.0584 
B(  3-C , 15-H ) :   0.8738 B(  3-C , 16-H ) :   0.8695 B(  4-C ,  5-C ) :   1.0795 
B(  4-C ,  6-C ) :   1.0745 B(  4-C ,  7-C ) :   1.0818 B(  5-C ,  6-C ) :   0.0741 
B(  5-C ,  7-C ) :   0.0715 B(  5-C , 17-H ) :   0.9129 B(  5-C , 18-H ) :   0.9159 
B(  5-C , 19-H ) :   0.9179 B(  6-C ,  7-C ) :   0.0739 B(  6-C , 20-H ) :   0.9176 
B(  6-C , 21-H ) :   0.9185 B(  6-C , 22-H ) :   0.9166 B(  7-C , 23-H ) :   0.9146 
B(  7-C , 24-H ) :   0.9145 B(  7-C , 25-H ) :   0.9138 

------------------------------------------
LOEWDIN REDUCED ORBITAL POPULATIONS PER MO
-------------------------------------------
THRESHOLD FOR PRINTING IS 0.1%%
                      0         1         2         3         4         5   
                 -10.03201 -10.02353 -10.00938 -10.00399 -10.00333 -10.00272
                   2.00000   2.00000   2.00000   2.00000   2.00000   2.00000
                  --------  --------  --------  --------  --------  --------
 1 C  s               0.0      99.7       0.0       0.0       0.0       0.0
 2 C  s               0.0       0.0       0.0      99.7       0.0       0.0
 3 C  s               0.0       0.0      99.7       0.0       0.0       0.0
 4 C  s              99.6       0.0       0.0       0.0       0.0       0.0
 6 C  s               0.0       0.0       0.0       0.0      99.7       0.0
 7 C  s               0.0       0.0       0.0       0.0       0.0      99.7

                      6         7         8         9        10        11   
                 -10.00256 -10.00171  -0.78566  -0.74255  -0.64587  -0.64553
                   2.00000   2.00000   2.00000   2.00000   2.00000   2.00000
                  --------  --------  --------  --------  --------  --------
 0 C  s              99.7       0.0       2.8      11.3       4.8       5.4
 0 C  pz              0.0       0.0       0.2       0.6       0.4       0.0
 0 C  px              0.0       0.0       0.3       0.1       0.0       0.0
 0 C  py              0.0       0.0       0.7       1.6       0.0       0.3
 1 C  s               0.0       0.0       8.8      20.4       0.0       0.1
 1 C  pz              0.0       0.0       0.0       0.2       6.9       0.0
 1 C  px              0.0       0.0       0.9       0.4       0.4       2.1
 1 C  py              0.1       0.0       0.0       0.5       0.5       2.5
 1 C  dz2             0.0       0.0       0.0       0.0       0.1       0.0
 2 C  s               0.0       0.0       2.9      11.1      13.6       0.0
 2 C  pz              0.0       0.0       1.0       2.3       0.5       0.0
 2 C  px              0.0       0.0       0.2       0.0       0.0       0.1
 2 C  py              0.0       0.0       0.0       0.0       0.0       0.2
 3 C  s               0.0       0.0      13.3       1.3       2.8       8.3
 3 C  pz              0.0       0.0       0.6       0.0       1.5       0.1
 3 C  px              0.0       0.0       0.3       7.5       0.0       0.1
 3 C  py              0.0       0.0       0.8       0.0       0.1       1.2
 4 C  s               0.0       0.0      21.6       6.6       0.0       0.0
 4 C  pz              0.0       0.1       0.0       0.1       9.5       1.2
 4 C  px              0.0       0.0       0.1       1.9       0.1       0.0
 4 C  py              0.0       0.0       0.0       0.2       0.2      13.4
 4 C  dz2             0.0       0.0       0.0       0.0       0.1       0.0
 4 C  dx2y2           0.0       0.0       0.0       0.0       0.0       0.2
 5 C  s               0.0      99.7       7.0       3.7      18.3       0.0
 5 C  pz              0.0       0.0       2.4       0.7       0.6       0.1
 5 C  px              0.0       0.0       0.2       0.0       0.0       0.0
 5 C  py              0.0       0.0       0.2       0.1       0.0       0.8
 6 C  s               0.0       0.0       7.3       4.6       3.6       4.5
 6 C  pz              0.0       0.0       0.9       0.4       0.6       0.1
 6 C  px              0.0       0.0       1.8       0.3       0.0       0.0
 6 C  py              0.0       0.0       0.2       0.1       0.0       0.9
 7 C  s               0.0       0.0       7.2       3.3       0.7      25.4
 7 C  pz              0.0       0.0       0.0       0.0       0.7       0.0
 7 C  px              0.0       0.0       0.0       0.3       0.0       0.0
 7 C  py              0.0       0.0       2.8       0.7       0.0       0.7
 8 H  s               0.0       0.0       0.3       1.5       1.4       1.1
 8 H  pz              0.0       0.0       0.0       0.1       0.1       0.1
 9 H  s               0.0       0.0       0.3       1.7       1.0       1.3
 9 H  px              0.0       0.0       0.0       0.1       0.1       0.1
10 H  s               0.0       0.0       0.4       1.5       1.0       1.6
11 H  s               0.0       0.0       1.1       3.0       0.0       0.0
11 H  py              0.0       0.0       0.0       0.2       0.0       0.0
12 H  s               0.0       0.0       0.3       1.5       3.3       0.0
12 H  py              0.0       0.0       0.0       0.1       0.2       0.0
13 H  s               0.0       0.0       0.3       1.7       3.1       0.0
13 H  px              0.0       0.0       0.0       0.1       0.3       0.0
14 H  s               0.0       0.0       0.4       1.5       3.5       0.0
14 H  py              0.0       0.0       0.0       0.1       0.2       0.0
15 H  s               0.0       0.0       1.6       0.2       0.4       2.5
15 H  py              0.0       0.0       0.1       0.0       0.0       0.2
16 H  s               0.0       0.0       1.6       0.2       1.2       2.0
16 H  pz              0.0       0.0       0.1       0.0       0.1       0.2
17 H  s               0.0       0.0       0.8       0.4       4.9       0.0
17 H  pz              0.0       0.0       0.0       0.0       0.2       0.0
17 H  px              0.0       0.0       0.0       0.0       0.2       0.0
18 H  s               0.0       0.0       0.8       0.6       4.1       0.0
18 H  px              0.0       0.0       0.1       0.0       0.3       0.0
19 H  s               0.0       0.0       0.8       0.5       4.1       0.1
19 H  py              0.0       0.0       0.1       0.0       0.4       0.0
20 H  s               0.0       0.0       0.9       0.7       0.6       0.8
21 H  s               0.0       0.0       0.8       0.6       1.1       1.0
22 H  s               0.0       0.0       0.9       0.6       0.8       1.4
22 H  py              0.0       0.0       0.1       0.1       0.1       0.1
23 H  s               0.0       0.0       0.8       0.4       0.1       6.3
23 H  pz              0.0       0.0       0.0       0.0       0.0       0.2
23 H  px              0.0       0.0       0.0       0.0       0.0       0.2
24 H  s               0.0       0.0       0.8       0.4       0.3       5.7
24 H  pz              0.0       0.0       0.1       0.0       0.0       0.4
25 H  s               0.0       0.0       0.8       0.6       0.1       6.0
25 H  px              0.0       0.0       0.1       0.0       0.0       0.4

                     12        13        14        15        16        17   
                  -0.63411  -0.63215  -0.52828  -0.47905  -0.42712  -0.41475
                   2.00000   2.00000   2.00000   2.00000   2.00000   2.00000
                  --------  --------  --------  --------  --------  --------
 0 C  s               8.9       9.6       3.5       0.4       0.2       0.1
 0 C  pz              0.5       0.0       0.3       0.8       3.5       1.4
 0 C  px              0.0       0.4       0.4       0.2       7.4       1.4
 0 C  py              0.1       0.2       5.9       3.0       0.2       1.6
 1 C  s               0.0       0.0      10.9       3.2       0.7       0.0
 1 C  pz              6.7       0.0       1.3       0.1       1.5       3.2
 1 C  px              0.1       5.5       0.2       3.0       6.8       0.1
 1 C  py              1.0       3.1       4.0       0.0       7.7       0.4
 1 C  dz2             0.1       0.0       0.0       0.0       0.0       0.0
 1 C  dx2y2           0.0       0.1       0.0       0.0       0.0       0.0
 2 C  s              14.4       0.6       3.3       0.6       0.2       0.3
 2 C  pz              0.4       0.0       5.7       4.2       0.9       2.4
 2 C  px              0.1       0.2       0.1       0.2       7.4       0.5
 2 C  py              0.0       0.2       0.6       0.0       4.8       0.2
 2 C  dz2             0.0       0.0       0.2       0.1       0.0       0.0
 3 C  s               0.5      12.3       0.7       2.9       0.2       0.0
 3 C  pz              0.0       0.0       0.0       2.8       2.5      12.5
 3 C  px              0.0       0.1      10.7       0.2       0.7       0.6
 3 C  py              0.0       0.1       0.3       2.9       8.6       6.6
 4 C  s               0.0       0.1       4.3      11.1       0.0       0.0
 4 C  pz              5.1       0.0       0.6       0.3       0.2       3.5
 4 C  px              0.5      10.2       2.5       0.6       4.2       0.2
 4 C  py              1.6       0.6       1.0       0.4       0.4       6.3
 4 C  dxz             0.1       0.1       0.0       0.0       0.0       0.0
 5 C  s              13.3       0.9       1.3       1.5       0.0       0.5
 5 C  pz              0.4       0.0       1.7       8.1       0.7       5.7
 5 C  px              0.0       0.6       1.0       0.0       2.8       1.6
 5 C  py              0.1       0.0       0.0       1.6       0.4       2.1
 5 C  dz2             0.0       0.0       0.0       0.2       0.0       0.0
 6 C  s               5.9      17.6       1.8       1.0       0.5       0.1
 6 C  pz              0.4       0.0       0.3       3.9       2.3       1.3
 6 C  px              0.1       1.1       3.3       2.6       1.4       0.8
 6 C  py              0.1       0.1       0.0       1.3       0.1       8.3
 6 C  dxz             0.0       0.0       0.1       0.1       0.0       0.0
 7 C  s               3.1       3.4       1.3       1.7       0.3       0.5
 7 C  pz              0.2       0.0       0.1       0.1       0.2       3.1
 7 C  px              0.1       0.3       0.5       0.5       5.8       0.9
 7 C  py              0.1       0.1       2.0       9.8       0.8       5.0
 7 C  dx2y2           0.0       0.0       0.1       0.2       0.0       0.1
 8 H  s               2.5       2.1       1.6       0.8       1.0       0.6
 8 H  pz              0.2       0.2       0.1       0.0       0.0       0.0
 9 H  s               2.1       2.7       1.8       0.1       2.9       0.9
 9 H  px              0.2       0.2       0.1       0.0       0.1       0.0
10 H  s               1.9       2.2       2.7       1.1       1.1       0.8
10 H  py              0.1       0.1       0.1       0.0       0.1       0.0
11 H  s               0.0       0.0       7.3       2.1       2.9       0.0
11 H  px              0.0       0.0       0.2       0.0       0.0       0.0
11 H  py              0.0       0.0       0.3       0.1       0.0       0.0
12 H  s               3.2       0.2       2.6       1.2       1.4       0.4
12 H  py              0.2       0.0       0.1       0.0       0.0       0.0
13 H  s               3.6       0.3       1.8       0.2       3.3       0.8
13 H  px              0.3       0.0       0.1       0.0       0.1       0.0
14 H  s               3.5       0.1       1.4       1.0       1.1       0.1
14 H  py              0.2       0.0       0.1       0.0       0.0       0.0
15 H  s               0.2       2.9       0.2       3.0       2.9       3.9
15 H  py              0.0       0.3       0.0       0.1       0.1       0.1
16 H  s               0.1       2.6       0.2       3.5       0.9       5.6
16 H  pz              0.0       0.3       0.0       0.1       0.0       0.1
17 H  s               2.9       0.1       0.5       2.2       1.5       1.1
17 H  pz              0.1       0.0       0.0       0.0       0.0       0.0
17 H  px              0.1       0.0       0.0       0.1       0.0       0.1
18 H  s               3.1       0.4       1.3       1.0       0.4       3.1
18 H  px              0.2       0.0       0.1       0.0       0.0       0.1
19 H  s               3.3       0.3       0.5       2.2       0.2       0.2
19 H  py              0.3       0.0       0.0       0.1       0.0       0.0
20 H  s               1.4       4.8       1.8       0.6       0.3       0.0
20 H  px              0.1       0.3       0.1       0.0       0.0       0.0
21 H  s               1.7       3.9       0.8       1.6       1.1       1.4
21 H  pz              0.1       0.3       0.0       0.0       0.0       0.0
22 H  s               1.2       4.3       0.7       1.7       0.4       3.9
22 H  py              0.1       0.4       0.0       0.1       0.0       0.1
23 H  s               0.5       0.9       0.5       2.2       0.7       3.6
24 H  s               0.8       0.8       0.4       2.4       0.1       0.0
24 H  pz              0.1       0.1       0.0       0.1       0.0       0.0
25 H  s               0.8       0.6       1.3       1.2       2.5       0.5

                     18        19        20        21        22        23   
                  -0.40536  -0.38945  -0.38043  -0.37343  -0.35197  -0.34197
                   2.00000   2.00000   2.00000   2.00000   2.00000   2.00000
                  --------  --------  --------  --------  --------  --------
 0 C  s               0.2       0.1       0.1       0.1       0.0       0.0
 0 C  pz              4.8       7.3       1.2       9.2       1.9       0.0
 0 C  px              0.7       2.7       4.4       7.1       1.0       0.4
 0 C  py              1.8       0.1       2.2       5.0       9.6       0.3
 1 C  s               0.3       0.1       0.2       0.0       0.1       0.2
 1 C  pz              0.4       0.2       1.0       6.6       1.3       1.0
 1 C  px              7.3       0.7       3.1       0.0       0.0       0.0
 1 C  py              1.2       6.5       0.3       0.1       2.0       0.0
 2 C  s               0.1       0.1       0.0       0.1       0.0       0.0
 2 C  pz              3.2       0.3       0.1       3.9       1.6       0.4
 2 C  px              4.4       0.8       5.8       0.7       6.1       9.0
 2 C  py              1.2      12.6       5.6       0.1      10.3       1.6
 2 C  dx2y2           0.0       0.0       0.0       0.0       0.0       0.1
 3 C  s               0.3       0.6       0.3       0.6       0.0       0.4
 3 C  pz              0.4       2.4       3.3       1.2       0.3       0.8
 3 C  px              5.9       0.1       0.7       0.1       0.0       0.2
 3 C  py              1.0       0.2       0.4       4.2       0.2       0.0
 4 C  s               0.0       0.2       0.0       0.1       0.0       0.0
 4 C  pz              5.6       0.0       2.0       0.6       0.0       1.1
 4 C  px              1.7       4.5       1.2       0.0       0.2       2.0
 4 C  py              2.0       0.7       0.4       1.4       0.8       0.3
 4 C  dyz             0.0       0.0       0.2       0.0       0.0       0.2
 4 C  dxy             0.0       0.0       0.0       0.2       0.1       0.0
 5 C  s               0.4       0.0       0.0       0.0       0.0       0.0
 5 C  pz              1.5       1.5       0.3       2.9       0.1       0.6
 5 C  px              0.1      14.0       1.5       0.1       8.5       2.7
 5 C  py              7.9       0.2      10.8       1.3       3.2       4.4
 6 C  s               0.0       0.2       0.1       0.0       0.0       0.0
 6 C  pz              3.2       8.6       1.8       2.6       0.1       2.3
 6 C  px              6.6       0.1       0.5       0.0       0.4      19.6
 6 C  py              1.5       0.0       1.9      12.4       0.5       8.4
 6 C  dxz             0.0       0.0       0.0       0.0       0.0       0.1
 6 C  dx2y2           0.0       0.0       0.0       0.0       0.0       0.1
 6 C  dxy             0.0       0.0       0.0       0.0       0.0       0.1
 7 C  s               0.2       0.0       0.0       0.1       0.0       0.0
 7 C  pz              6.8       0.0      17.5       0.7       0.0       2.9
 7 C  px              2.6       2.2       0.5       5.6      13.4       3.3
 7 C  py              1.0       1.6       0.2       0.5       1.2       0.5
 8 H  s               2.9       2.3       1.1       4.8       0.7       0.0
 8 H  pz              0.1       0.0       0.0       0.1       0.0       0.0
 9 H  s               0.1       1.0       1.5       4.6       0.2       0.2
 9 H  px              0.0       0.0       0.0       0.1       0.0       0.0
10 H  s               0.3       1.0       1.2       1.8       6.3       0.3
10 H  px              0.0       0.0       0.0       0.2       0.0       0.0
11 H  s               0.3       2.2       0.2       0.4       0.1       0.0
12 H  s               0.4       1.9       0.6       0.2       7.9       0.0
12 H  py              0.0       0.0       0.0       0.0       0.1       0.0
13 H  s               0.9       0.4       2.7       0.8       2.0       5.1
14 H  s               2.6       4.5       3.3       0.5       0.7       1.8
15 H  s               0.6       0.2       0.2       3.4       0.0       0.4
15 H  py              0.0       0.0       0.0       0.1       0.0       0.0
16 H  s               0.0       1.4       2.1       0.1       0.2       0.1
17 H  s               0.1       5.1       1.9       1.1       1.0       0.0
17 H  pz              0.0       0.1       0.0       0.0       0.0       0.0
18 H  s               0.1       3.0       0.0       0.4       5.6       2.6
19 H  s               4.5       0.1       4.4       0.4       1.1       1.9
19 H  py              0.1       0.0       0.1       0.0       0.0       0.0
20 H  s               4.6       0.4       0.0       0.4       0.1      14.8
20 H  px              0.1       0.0       0.0       0.0       0.0       0.2
21 H  s               0.9       4.0       0.3       2.8       0.1       0.5
21 H  px              0.0       0.0       0.0       0.0       0.0       0.1
21 H  py              0.0       0.0       0.0       0.0       0.0       0.1
22 H  s               0.3       0.0       1.1       5.2       0.2       3.1
22 H  px              0.0       0.0       0.0       0.0       0.0       0.2
22 H  py              0.0       0.0       0.0       0.1       0.0       0.0
23 H  s               0.0       0.1       4.0       2.5       1.9       0.0
23 H  px              0.0       0.0       0.1       0.0       0.0       0.0
24 H  s               4.4       0.0       5.9       0.0       0.1       1.5
24 H  pz              0.1       0.0       0.1       0.0       0.0       0.0
24 H  px              0.0       0.0       0.0       0.0       0.1       0.0
25 H  s               0.7       1.7       0.0       0.9       6.5       2.4
25 H  pz              0.0       0.0       0.1       0.0       0.0       0.0

                     24        25        26        27        28        29   
                  -0.33138  -0.32036  -0.31867  -0.31244  -0.29500  -0.28743
                   2.00000   2.00000   2.00000   2.00000   2.00000   2.00000
                  --------  --------  --------  --------  --------  --------
 0 C  s               0.0       0.0       0.1       0.0       0.0       0.4
 0 C  pz              0.0       0.1       5.4       8.1       2.0       7.6
 0 C  px             17.4       3.0       1.6       1.1       2.0       0.2
 0 C  py              1.6       0.3       0.3       2.7       2.9       6.5
 0 C  dz2             0.0       0.0       0.1       0.2       0.2       0.2
 0 C  dx2y2           0.2       0.0       0.0       0.1       0.0       0.0
 1 C  pz              0.0       0.0       0.1       4.1       3.4       8.2
 1 C  px              0.0       0.0       0.2       2.7       4.6       0.0
 1 C  py              0.2       0.0       3.2       2.4       2.3       5.5
 1 C  dz2             0.0       0.0       0.0       0.0       0.2       0.2
 1 C  dyz             0.0       0.0       0.1       0.1       0.1       0.1
 1 C  dx2y2           0.0       0.0       0.0       0.2       0.0       0.0
 2 C  s               0.0       0.0       0.0       0.2       0.1       0.2
 2 C  pz              0.4       0.3       0.0       3.7       4.8       9.2
 2 C  px             10.9       2.8       0.0       2.6       1.2       0.0
 2 C  py              1.0       0.3      12.8       0.1       1.2       3.3
 2 C  dxz             0.0       0.0       0.0       0.1       0.0       0.0
 2 C  dyz             0.0       0.0       0.3       0.0       0.0       0.2
 2 C  dx2y2           0.1       0.1       0.0       0.1       0.0       0.0
 3 C  s               0.0       0.0       0.4       0.9       0.0       0.0
 3 C  pz              0.0       0.6       3.1       7.9       0.3       1.3
 3 C  px              0.0       0.0       0.1       0.3      10.1       0.0
 3 C  py              0.2       0.8       9.6       2.3       0.4       0.2
 3 C  dz2             0.0       0.0       0.1       0.0       0.0       0.0
 4 C  pz              0.7       0.2       0.1       0.1       2.8       4.5
 4 C  px              0.1       0.0       1.1       6.5       0.1       0.0
[...]
12 H  pz              1.4       0.3       0.2       0.0       0.0       0.6
12 H  px              0.4       0.4       0.0       0.0       0.0       0.7
12 H  py              2.5       1.7       0.0       0.3       0.0       1.4
13 H  s               1.3       0.3       0.1       0.2       0.1       0.0
13 H  px              3.4       0.8       0.1       0.7       0.3       0.1
13 H  py              0.2       0.0       0.0       0.0       0.0       0.0
14 H  s               1.2       0.1       0.2       0.1       0.0       0.4
14 H  pz              0.5       0.1       0.4       0.0       0.0       0.2
14 H  px              1.0       0.1       0.0       0.0       0.0       0.0
14 H  py              2.1       0.0       0.3       0.3       0.0       0.6
15 H  s               0.1       1.1       3.5       0.4       1.1       4.0
15 H  pz              0.0       0.2       0.5       0.0       0.4       0.6
15 H  px              0.1       0.1       0.5       0.1       0.1       0.0
15 H  py              0.1       3.1       9.3       0.6       1.8       9.0
16 H  s               0.1       0.1       0.1       0.2       9.5       0.4
16 H  pz              0.4       0.3       0.0       0.1      23.8       0.7
16 H  px              0.0       0.0       0.0       0.0       0.0       0.2
16 H  py              0.0       0.1       0.3       0.0       0.1       0.4
17 H  s               1.8       1.4       0.1       3.3       0.1       0.1
17 H  pz              2.0       1.1       0.2       3.3       0.4       0.1
17 H  px              1.7       2.3       0.0       3.8       0.0       0.0
17 H  py              0.7       0.6       0.0       0.5       0.1       0.0
18 H  s               1.8       0.2       0.4       0.3       0.5       0.0
18 H  pz              0.6       0.0       0.0       0.1       0.0       0.0
18 H  px              2.8       0.9       0.7       0.4       0.8       0.0
18 H  py              0.7       0.0       0.3       0.7       0.2       0.0
19 H  s               0.1       0.4       0.0       2.8       0.0       0.3
19 H  pz              0.0       0.1       0.0       0.0       0.0       0.0
19 H  px              0.2       0.0       0.1       0.0       0.1       0.0
19 H  py              0.3       0.7       0.0       6.9       0.0       0.9
20 H  s               0.0       0.1       0.7       0.8       0.1       0.0
20 H  pz              0.0       0.1       0.4       0.5       0.0       0.0
20 H  px              0.0       0.1       1.1       1.3       0.1       0.0
20 H  py              0.0       0.1       0.3       0.5       0.1       0.0
21 H  s               0.0       0.1       0.1       0.5       0.1       0.3
21 H  pz              0.0       0.2       0.2       0.9       0.1       0.7
21 H  px              0.0       0.1       0.1       0.0       0.1       0.1
21 H  py              0.0       0.0       0.0       0.1       0.0       0.1
22 H  s               0.1       0.0       0.3       0.3       0.1       0.0
22 H  py              0.4       0.0       0.5       0.9       0.0       0.0
23 H  s               0.1       1.9       2.1       0.1       0.0       0.3
23 H  pz              0.2       1.8       2.0       0.5       0.0       0.2
23 H  px              0.0       2.3       1.8       0.2       0.1       0.2
23 H  py              0.0       0.3       0.9       0.0       0.0       0.2
24 H  s               0.2       1.6       0.9       0.1       0.0       0.1
24 H  pz              0.4       3.2       2.1       0.3       0.0       0.1
24 H  px              0.0       0.5       0.6       0.0       0.0       0.0
24 H  py              0.1       0.5       0.0       0.0       0.0       0.0
25 H  s               0.6       0.1       1.7       0.4       0.0       0.0
25 H  pz              0.0       0.2       0.8       0.1       0.0       0.0
25 H  px              1.0       0.1       3.3       1.2       0.0       0.1
25 H  py              0.2       0.0       0.5       0.0       0.0       0.0

                    234       235       236       237       238       239   
                  21.95721  22.01644  22.06240  22.10184  22.11466  22.13596
                   0.00000   0.00000   0.00000   0.00000   0.00000   0.00000
                  --------  --------  --------  --------  --------  --------
 0 C  s              22.7      16.4      47.6       0.2       0.0       0.5
 1 C  s               7.1       2.3       0.1      15.5      20.6       2.2
 2 C  s              20.9      21.1      34.5       0.3      19.2       0.4
 3 C  s               2.6       1.2       7.9      47.2       7.6       0.0
 4 C  s               9.8       3.2       2.2       3.2       0.1      11.0
 5 C  s              11.8       7.4       5.0      22.7      31.8       6.6
 6 C  s               8.2      43.5       1.7      10.0      18.9       4.5
 7 C  s              16.7       4.7       0.6       0.5       1.4      74.4

                    240       241   
                  22.17880  22.22840
                   0.00000   0.00000
                  --------  --------
 0 C  s              10.6       1.6
 1 C  s              51.9       0.1
 2 C  s               0.5       2.7
 3 C  s              23.6       9.5
 4 C  s               8.3      62.3
 5 C  s               3.7      10.5
 6 C  s               1.0      11.8
 7 C  s               0.2       1.1


                      *****************************
                      * MAYER POPULATION ANALYSIS *
                      *****************************

  NA   - Mulliken gross atomic population
  ZA   - Total nuclear charge
  QA   - Mulliken gross atomic charge
  VA   - Mayer's total valence
  BVA  - Mayer's bonded valence
  FA   - Mayer's free valence

  ATOM       NA         ZA         QA         VA         BVA        FA
  0 C      6.5437     6.0000    -0.5437     3.7547     3.7547     0.0000
  1 C      5.9923     6.0000     0.0077     3.5216     3.5216     0.0000
  2 C      6.5630     6.0000    -0.5630     3.7345     3.7345    -0.0000
  3 C      6.3507     6.0000    -0.3507     3.4775     3.4775     0.0000
  4 C      5.7753     6.0000     0.2247     3.4030     3.4030    -0.0000
  5 C      6.5642     6.0000    -0.5642     3.6784     3.6784     0.0000
  6 C      6.5479     6.0000    -0.5479     3.6529     3.6529     0.0000
  7 C      6.5797     6.0000    -0.5797     3.6436     3.6436     0.0000
  8 H      0.8410     1.0000     0.1590     0.9611     0.9611     0.0000
  9 H      0.8455     1.0000     0.1545     0.9605     0.9605    -0.0000
 10 H      0.8368     1.0000     0.1632     0.9602     0.9602     0.0000
 11 H      0.8495     1.0000     0.1505     0.9553     0.9553     0.0000
 12 H      0.8333     1.0000     0.1667     0.9575     0.9575    -0.0000
 13 H      0.8458     1.0000     0.1542     0.9609     0.9609     0.0000
 14 H      0.8391     1.0000     0.1609     0.9574     0.9574    -0.0000
 15 H      0.8377     1.0000     0.1623     0.9601     0.9601     0.0000
 16 H      0.8429     1.0000     0.1571     0.9607     0.9607    -0.0000
 17 H      0.8320     1.0000     0.1680     0.9580     0.9580    -0.0000
 18 H      0.8402     1.0000     0.1598     0.9619     0.9619     0.0000
 19 H      0.8308     1.0000     0.1692     0.9593     0.9593     0.0000
 20 H      0.8354     1.0000     0.1646     0.9602     0.9602     0.0000
 21 H      0.8349     1.0000     0.1651     0.9596     0.9596    -0.0000
 22 H      0.8378     1.0000     0.1622     0.9613     0.9613    -0.0000
 23 H      0.8290     1.0000     0.1710     0.9553     0.9553     0.0000
 24 H      0.8306     1.0000     0.1694     0.9563     0.9563     0.0000
 25 H      0.8411     1.0000     0.1589     0.9623     0.9623     0.0000

  Mayer bond orders larger than 0.100000
B(  0-C ,  1-C ) :   0.9071 B(  0-C ,  8-H ) :   0.9789 B(  0-C ,  9-H ) :   0.9712 
B(  0-C , 10-H ) :   0.9718 B(  1-C ,  2-C ) :   0.8673 B(  1-C ,  3-C ) :   0.9158 
B(  1-C , 11-H ) :   0.9778 B(  2-C , 12-H ) :   0.9810 B(  2-C , 13-H ) :   0.9683 
B(  2-C , 14-H ) :   0.9707 B(  3-C ,  4-C ) :   0.8645 B(  3-C , 15-H ) :   0.9697 
B(  3-C , 16-H ) :   0.9794 B(  4-C ,  5-C ) :   0.9126 B(  4-C ,  6-C ) :   0.9178 
B(  4-C ,  7-C ) :   0.8836 B(  5-C , 17-H ) :   0.9623 B(  5-C , 18-H ) :   0.9761 
B(  5-C , 19-H ) :   0.9805 B(  6-C , 20-H ) :   0.9770 B(  6-C , 21-H ) :   0.9747 
B(  6-C , 22-H ) :   0.9741 B(  7-C , 23-H ) :   0.9742 B(  7-C , 24-H ) :   0.9719 
B(  7-C , 25-H ) :   0.9715 

-------
TIMINGS
-------

Total SCF time: 0 days 0 hours 0 min 31 sec 

Total time                  ....      31.455 sec
Sum of individual times     ....      30.936 sec  ( 98.4%)

SCF preparation             ....       0.368 sec  (  1.2%)
Fock matrix formation       ....      29.568 sec  ( 94.0%)
  Startup                   ....       0.059 sec  (  0.2% of F)
  Split-RI-J                ....       4.622 sec  ( 15.6% of F)
  XC integration            ....      18.460 sec  ( 62.4% of F)
    Basis function eval.    ....       3.029 sec  ( 16.4% of XC)
    Density eval.           ....       6.232 sec  ( 33.8% of XC)
    XC-Functional eval.     ....       1.836 sec  (  9.9% of XC)
    XC-Potential eval.      ....       6.290 sec  ( 34.1% of XC)
  CPCM terms                ....       6.045 sec  ( 20.4% of F)
Diagonalization             ....       0.000 sec  (  0.0%)
Density matrix formation    ....       0.164 sec  (  0.5%)
Total Energy calculation    ....       0.036 sec  (  0.1%)
Population analysis         ....       0.152 sec  (  0.5%)
Orbital Transformation      ....       0.063 sec  (  0.2%)
Orbital Orthonormalization  ....       0.000 sec  (  0.0%)
DIIS solution               ....       0.534 sec  (  1.7%)
  MO trafo                  ....       0.000 sec  (  0.0 % of DIIS)
  Orb grad                  ....       0.000 sec  (  0.0 % of DIIS)
  Energy W gradient         ....       0.000 sec  (  0.0 % of DIIS)
  DIIS error                ....       0.011 sec  (  2.0 % of DIIS)
  DIIS work                 ....       0.474 sec  ( 88.7 % of DIIS)
  Form Q                    ....       0.000 sec  (  0.0 % of DIIS)
  Form QpQm                 ....       0.000 sec  (  0.0 % of DIIS)
  Exp/Cayley                ....       0.000 sec  (  0.0 % of DIIS)
  Orb update                ....       0.000 sec  (  0.0 % of DIIS)
  Wake-sleep                ....       0.016 sec  (  2.9 % of DIIS)
SOSCF solution              ....       0.051 sec  (  0.2%)
  MO trafo                  ....       0.039 sec  ( 76.4 % of SOSCF)
  Orb grad                  ....       0.001 sec  (  1.2 % of SOSCF)
  Rot update                ....       0.000 sec  (  0.1 % of SOSCF)
  Step                      ....       0.011 sec  ( 22.1 % of SOSCF)
Finished LeanSCF after  31.6 sec

Maximum memory used throughout the entire LEANSCF-calculation: 41.4 MB


-------------------------------------------------------------------------------
                          DFT DISPERSION CORRECTION                            
                                                                               
                                DFTD4 V3.4.0                                   
-------------------------------------------------------------------------------
The R2SCAN3C composite method is recognized
Using three-body term ABC
Active option DFTDOPT                   ...         5   

-------------------------   ----------------
Dispersion correction           -0.008252238
-------------------------   ----------------

------------------   -----------------
gCP correction             0.013081622
------------------   -----------------

-------------------------   --------------------
FINAL SINGLE POINT ENERGY      -315.578481789147
-------------------------   --------------------


------------------------------------------------------------------------------
                              ORCA PROPERTY CALCULATIONS
------------------------------------------------------------------------------

GBWName                                 ... sp_solv.gbw
Number of atoms                         ...     26
Number of basis functions               ...    242
Max core memory                         ...   1024 MB

Electric properties:
Dipole moment                           ... YES
Quadrupole moment                       ...  NO
Static polarizability (Dipole/Dipole)   ...  NO
Static polarizability (Dipole/Quad.)    ...  NO
Static polarizability (Quad./Quad.)     ...  NO
Static polarizability (Velocity)        ...  NO

Atomic electric properties:
Dipole moment                           ...  NO
Quadrupole moment                       ...  NO
Static polarizability                   ...  NO

Choice of electric origin               ... Center of mass
Position of electric origin             ...     0.000000    -0.000002    -0.000001

General magnetic properties:
Magnetizability                         ...  NO

EPR properties:
g-Tensor (aka g-matrix)                 ...  NO
Zero-Field splitting spin-orbit         ...  NO
Zero-field splitting spin-spin          ...  NO
Hyperfine couplings                     ...  NO (   0 nuclei)
Quadrupole couplings                    ...  NO (   0 nuclei)
Contact density                         ...  NO (   0 nuclei)

NMR properties:
Chemical shifts                         ...  NO (   0 nuclei)
Spin-rotation constants                 ...  NO (   0 nuclei)
Spin-spin couplings                     ...  NO (   0 nuclei,    0 pairs)

Choice of magnetic origin               ... GIAO
Position of magnetic origin             ...     0.000000     0.000000     0.000000

Properties with geometric perturbations:
SCF Hessian                             ...  NO
IR spectrum                             ...  NO
VCD spectrum                            ...  NO
X-ray spectroscopy properties:
SCF XES/XAS/RIXS spectra                ...  NO


-------------
DIPOLE MOMENT
-------------

Method             : SCF
Type of density    : Electron Density
Multiplicity       :   1
Irrep              :   0
Energy             :  -315.5833111730881342 Eh
Relativity type    : 
Basis              : AO
                                X                 Y                 Z
Electronic contribution:     -0.140221578       1.052256976       0.685274584
Nuclear contribution   :      0.090326969      -1.005153930      -0.666043985
                        -----------------------------------------
Total Dipole Moment    :     -0.049894610       0.047103047       0.019230599
                        -----------------------------------------
Magnitude (a.u.)       :      0.071259982
Magnitude (Debye)      :      0.181128480



--------------------
Rotational spectrum 
--------------------
 
Rotational constants in cm-1:             0.094414             0.044897             0.040545 
Rotational constants in MHz :          2830.467897          1345.992365          1215.512793 

Dipole components along the rotational axes: 
x,y,z [a.u.] :    -0.046891     0.006013     0.053320 
x,y,z [Debye]:    -0.119188     0.015285     0.135529 

 

Dipole moment calculation done in   0.0 sec 

Maximum memory used throughout the entire PROP-calculation: 16.4 MB

--------------------------------
SUGGESTED CITATIONS FOR THIS RUN
--------------------------------

Below you find a list of papers that are relevant to this ORCA run
We neither can nor want to force you to cite these papers, but we appreciate if you do
You receive ORCA, which is the product of decades of hard work by many enthusiastic individuals, for free
The only thing we kindly ask in return is that you cite our papers,
We deeply appreciate it, if you show your appreciation for ORCA by not just citing the generic ORCA reference.

Please note that relegating all ORCA citations to the supporting information does *not* help us.
SI sections are not indexed - citations you put there will not count into any citation statistics
But we need these citations in order to attract the funding resources that allow us to do what we are doing

Therefore, if you are a happy ORCA user, please consider citing a few of the papers listed below in the main body of your paper

In addition to the list printed below, the program has created the file sp_solv.bibtex that contains the list in bibtex format
You can import this file easily into all common literature databanks and citation aid programs


List of essential papers. We consider these as the minimum necessary citations

  1. Neese,F.
     Software update: the ORCA program system, version 5.0
     WIRES Comput. Molec. Sci., 2022 12(1)e1606
     doi.org/10.1002/wcms.1606
  2. Grimme,S.; Hansen,A.; Ehlert,S.; Mewes,J.
     r2SCAN-3c: A 'Swiss army knife' composite electronic-structure method
     J. Chem. Phys., 2021 154 064103
     doi.org/10.1063/5.0040021

List of papers to cite with high priority. The work reported in these papers was absolutely
necessary for this run to complete.
Our perspective: the developers of density functionals and basis sets usually get cited in chemistry papers
Good! But without the algorithms to do something with them, the functionals or basis sets would not do anything.
Hence, in our opinion, the algorithm design and method developments papers are equally worthy of getting cited

  1. Neese,F.
     An improvement of the resolution of the identity approximation for the formation of the Coulomb matrix
     J. Comp. Chem., 2003 24(14)1740-1747
     doi.org/10.1002/jcc.10318
  2. Garcia-Rates,M.; Neese,F.
     Effect of the Solute Cavity on the Solvation Energy and its Derivatives within the Framework of the Gaussian Charge Scheme
     J. Comput. Chem., 2020 41 922-939
     doi.org/10.1002/jcc.26139
  3. Neese,F.
     The SHARK Integral Generation and Digestion System
     J. Comp. Chem., 2022  1-16
     doi.org/10.1002/jcc.26942
  4. Lehtola,S.; Steigemann,C.; Oliveira,M.; Marques,M.
     Recent developments in Libxc - A comprehensive library of functionals for density functional theory
     Software X, 2018 7 
     doi.org/10.1016/j.softx.2017.11.002
  5. Caldeweyher,E.; Bannwarth,C.; Grimme,S.
     Extension of the D3 dispersion coefficient model
     J. Chem. Phys., 2017 147 034112-XXXX
     doi.org/10.1063/1.4993215
  6. Caldeweyher,E.; Ehlert,S.; Hansen,A.; Neugebauer,H.; Spicher,S.; Bannwarth,C.; Grimme,S.
     A generally applicable atomic-charge dependent London dispersion correction
     J. Chem. Phys., 2019 150 154122-XXXX
     doi.org/10.1063/1.5090222
  7. Caldeweyher,E.; Mewes,J.; Ehlert,S.; Grimme,S.
     Extension and evaluation of the D4 London-dispersion model for periodic systems
     Phys. Chem. Chem. Phys., 2020 22(16)8499-8512
     doi.org/10.1039/D0CP00502A

List of suggested additional citations. These are papers that are important in the 'surrounding' of 
of this run, or papers that preceded the highly important papers. If you like your results we are grateful for a citation.

  1. Neese,F.
     The ORCA program system
     WIRES Comput. Molec. Sci., 2012 2(1)73-78
     doi.org/10.1002/wcms.81
  2. Neese,F.
     Software update: the ORCA program system, version 4.0
     WIRES Comput. Molec. Sci., 2018 8(1)1-6
     doi.org/10.1002/wcms.1327
  3. Neese,F.; Wennmohs,F.; Becker,U.; Riplinger,C.
     The ORCA quantum chemistry program package
     J. Chem. Phys., 2020 152 Art. No. L224108
     doi.org/10.1063/5.0004608

List of optional additional citations

  1. Neese,F.
     Approximate second-order SCF convergence for spin unrestricted wavefunctions
     Chem. Phys. Lett., 2000 325(1-3)93-98
     doi.org/10.1016/s0009-2614(00)00662-x

Timings for individual modules:

Sum of individual times          ...       34.234 sec (=   0.571 min)
Startup calculation              ...        2.015 sec (=   0.034 min)   5.9 %
SCF iterations                   ...       32.099 sec (=   0.535 min)  93.8 %
Property calculations            ...        0.120 sec (=   0.002 min)   0.3 %
                             ****ORCA TERMINATED NORMALLY****
TOTAL RUN TIME: 0 days 0 hours 0 minutes 35 seconds 113 msec
