27
 energy: -465.791816553189 gnorm: 0.005128226012 xtb: 6.7.1 (edcfbbe)
C           -3.41766803956718        0.57763214283491       -0.01389890885795
C           -1.94263546571753        0.55311645624789        0.35286956065205
H           -1.79485219136173        0.99186679015592        1.35197321838646
C           -1.07795169137044        1.37854628696613       -0.62870202458964
C            0.40545445089019        1.34095901974284       -0.27541549349301
C            0.93166288932086       -0.10575049743029       -0.22738499342342
H            0.76866341200803       -0.54496640484789       -1.22381665498263
C            0.09564964491704       -0.91416122954497        0.78574204104704
C           -1.36605432714174       -0.83907594632278        0.43303599691288
O           -2.02890078813370       -1.84896964267882        0.19995437106256
C            2.41991806007259       -0.14846305660643        0.03889071182818
C            2.95192597061836       -0.48923989500160        1.21822054368309
C            3.28459826016625        0.22615652018265       -1.13168199205776
H           -3.77222695650155        1.61193916334585       -0.05448678390624
H           -3.58655774963317        0.12120605774515       -0.99495222872777
H           -4.02328644880637        0.03787266936561        0.71999094814949
H           -1.23004219970347        0.98822879426010       -1.64487316643627
H           -1.44311466329887        2.41191338433238       -0.62197601495972
H            0.96941568337597        1.92426119951799       -1.01095627401135
H            0.56760143256383        1.80668959774339        0.70683162478077
H            0.41152267844762       -1.96004519278713        0.82103640954920
H            0.21767479007478       -0.47135637943278        1.78342871221125
H            4.02915160267517       -0.47888422955877        1.36136604360293
H            2.34736215756651       -0.78580905180450        2.07114426965031
H            3.02193666199216        1.21569483268105       -1.52869407405165
H            4.34267554699240        0.23256750297093       -0.85543365928435
H            3.14181947105203       -0.48912873836990       -1.95484149499856
27
 energy: -465.791845188102 gnorm: 0.001471953275 xtb: 6.7.1 (edcfbbe)
C           -3.41706220318905        0.57769171102671       -0.01450676401998
C           -1.94247377817831        0.55465007594995        0.35358051276079
H           -1.79616097503937        0.99421937890452        1.35223887243504
C           -1.07826016995445        1.37883957600225       -0.62865546162531
C            0.40507350597404        1.34072813171885       -0.27493615738048
C            0.93153332049851       -0.10546468675948       -0.22696215439168
H            0.76810074523053       -0.54494006713536       -1.22305109857891
C            0.09532627412501       -0.91396120864327        0.78578694585804
C           -1.36619803530881       -0.83797276470498        0.43527455710300
O           -2.02932446633861       -1.84593385041862        0.20250685545392
C            2.42024923109471       -0.14829139650942        0.03896661223821
C            2.95151943928499       -0.48843576762570        1.21751181681575
C            3.28522853478285        0.22598617411897       -1.13125982612394
H           -3.77481723965623        1.61092772271031       -0.05360605723488
H           -3.58297193784483        0.12263434923053       -0.99640475164915
H           -4.02185761769672        0.03435129039148        0.71725128272304
H           -1.22921982859142        0.98567155420598       -1.64325174333806
H           -1.44331286181025        2.41163668652907       -0.62463409016392
H            0.96951604020088        1.92348558813412       -1.00978411315583
H            0.56717479948039        1.80510370400744        0.70728711121645
H            0.41083191913085       -1.96003667147780        0.81966124056536
H            0.21873546497181       -0.47242086530872        1.78378982281864
H            4.02885597493758       -0.48084936329918        1.36046856653008
H            2.34677169163152       -0.78505761432344        2.06894012178818
H            3.02231674175849        1.21442545265803       -1.52585701021309
H            4.34374791821308        0.23248167590275       -0.85952693309953
H            3.14041958270409       -0.48666895465864       -1.95345665344180
27
 energy: -465.791853237625 gnorm: 0.001573383996 xtb: 6.7.1 (edcfbbe)
C           -3.41608694105274        0.57715513537824       -0.01544619849256
C           -1.94195503618091        0.55713216573774        0.35456422244939
H           -1.79729079627130        0.99828150052630        1.35256137263131
C           -1.07757264893539        1.37854371859271       -0.62883834424682
C            0.40567151030916        1.34126961948276       -0.27410006587335
C            0.93128010092504       -0.10487675466223       -0.22672871417296
H            0.76750946572093       -0.54467281294680       -1.22250153663083
C            0.09542651975610       -0.91347945418216        0.78621314010408
C           -1.36569356393973       -0.83633564263050        0.43665858701283
O           -2.03051000048550       -1.84288777526514        0.20787541100612
C            2.42052772419490       -0.14905022857266        0.03893514173982
C            2.95115321572782       -0.49019977466233        1.21669224420974
C            3.28404906578898        0.22600565352381       -1.13190780549238
H           -3.77832748379537        1.60893883500622       -0.05071662384986
H           -3.57782539028413        0.12578118518154       -0.99961675097603
H           -4.02000023404147        0.02754728952294        0.71228946906226
H           -1.22717974765667        0.98135642014566       -1.64165880098475
H           -1.44252151009773        2.41093614142532       -0.62902591676229
H            0.97064317374826        1.92418258908412       -1.00789409706928
H            0.56687200780164        1.80415684134110        0.70853184090743
H            0.40987869446320       -1.95997408408062        0.81871333711518
H            0.22053046571283       -0.47344915737568        1.78466384814805
H            4.02835367749474       -0.48197786345930        1.36079895823457
H            2.34565629042203       -0.78394762494967        2.06776728270462
H            3.02206224182407        1.21518817525548       -1.52232357201256
H            4.34309574431967        0.23052133575539       -0.86359900925721
H            3.13599534857654       -0.48334608155765       -1.95453445924499
27
 energy: -465.791858209103 gnorm: 0.001256089420 xtb: 6.7.1 (edcfbbe)
C           -3.41552675470564        0.57691144656322       -0.01691062905228
C           -1.94181078209813        0.55835195778254        0.35485528307519
H           -1.79837908555791        1.00103386041303        1.35236667966711
C           -1.07718542210061        1.37825457754426       -0.62928049521603
C            0.40580693063280        1.34152003724248       -0.27321710619011
C            0.93132371378706       -0.10452029866722       -0.22614248133699
H            0.76727613710051       -0.54420860209845       -1.22193920872797
C            0.09560405956557       -0.91320242915856        0.78678874788694
C           -1.36628986596790       -0.83579146672666        0.44070492809862
O           -2.03188623181195       -1.84227976544756        0.21316994702344
C            2.42081973568599       -0.14858138671995        0.03899986254982
C            2.95162825429330       -0.48959190594568        1.21686910238651
C            3.28314942367755        0.22644886799104       -1.13268951685457
H           -3.78026968439249        1.60792162001397       -0.04853781442282
H           -3.57475846197519        0.12893132145338       -1.00312069883084
H           -4.01898141171051        0.02282377381316        0.70781331831158
H           -1.22540081735500        0.97842697686212       -1.64136865907279
H           -1.44213806306737        2.41073209025737       -0.63278343182837
H            0.97107654244448        1.92505420278245       -1.00635193087679
H            0.56595362250412        1.80411065069844        0.70980862989505
H            0.40970470819186       -1.95986239450606        0.81808923757816
H            0.22194657626907       -0.47420635905630        1.78556399092306
H            4.02894003170754       -0.48434016254145        1.36029032580160
H            2.34593075848438       -0.78545161524210        2.06724881170011
H            3.02248470014966        1.21727520176128       -1.52051342846095
H            4.34268250080453        0.22819230973684       -0.86573167809439
H            3.13204049077142       -0.48115368181388       -1.95660710146468
27
 energy: -465.791862510135 gnorm: 0.000677548775 xtb: 6.7.1 (edcfbbe)
C           -3.41557705894431        0.57682557434451       -0.01870021601230
C           -1.94214043023112        0.55903388694631        0.35434591031261
H           -1.79944813075541        1.00333968450135        1.35141554743770
C           -1.07682925576045        1.37751925382563       -0.63024325473477
C            0.40570404714296        1.34161555634635       -0.27222464902532
C            0.93145864459424       -0.10431720529334       -0.22496051326181
H            0.76694275047235       -0.54363041902915       -1.22087123509957
C            0.09598913302596       -0.91284374132063        0.78815810772370
C           -1.36625343558306       -0.83512369492763        0.44282506248323
O           -2.03329337247126       -1.84259384109474        0.22105340275922
C            2.42109785225187       -0.14902899858583        0.03875049938538
C            2.95297530641018       -0.49119648956776        1.21624290848518
C            3.28238457479359        0.22714838743932       -1.13336958388106
H           -3.78235942472529        1.60723921647587       -0.04489762903296
H           -3.57269480003915        0.13413743751570       -1.00777551838231
H           -4.01865203761110        0.01730980652226        0.70213200701075
H           -1.22342705197460        0.97567310324907       -1.64203254167712
H           -1.44230482823103        2.41006208839347       -0.63659886103679
H            0.97155364772850        1.92603803751440       -1.00450077908086
H            0.56441029930503        1.80434337273247        0.71126576244529
H            0.40975323304300       -1.95961271080148        0.81939843635913
H            0.22287931204123       -0.47393483323559        1.78697264948304
H            4.03029422837279       -0.48557859482110        1.35934594613444
H            2.34746544878918       -0.78690774514126        2.06732875053601
H            3.02440827119845        1.22085225778613       -1.51765575784295
H            4.34257161149249        0.22397239961694       -0.86794823510583
H            3.12683258729719       -0.47754363806515       -1.96007925194221
27
 energy: -465.791862510135 gnorm: 0.000677548775 xtb: 6.7.1 (edcfbbe)
C           -3.41557705894431        0.57682557434451       -0.01870021601230
C           -1.94214043023112        0.55903388694631        0.35434591031261
H           -1.79944813075541        1.00333968450135        1.35141554743770
C           -1.07682925576045        1.37751925382563       -0.63024325473477
C            0.40570404714296        1.34161555634635       -0.27222464902532
C            0.93145864459424       -0.10431720529334       -0.22496051326181
H            0.76694275047235       -0.54363041902915       -1.22087123509957
C            0.09598913302596       -0.91284374132063        0.78815810772370
C           -1.36625343558306       -0.83512369492763        0.44282506248323
O           -2.03329337247126       -1.84259384109474        0.22105340275922
C            2.42109785225187       -0.14902899858583        0.03875049938538
C            2.95297530641018       -0.49119648956776        1.21624290848518
C            3.28238457479359        0.22714838743932       -1.13336958388106
H           -3.78235942472529        1.60723921647587       -0.04489762903296
H           -3.57269480003915        0.13413743751570       -1.00777551838231
H           -4.01865203761110        0.01730980652226        0.70213200701075
H           -1.22342705197460        0.97567310324907       -1.64203254167712
H           -1.44230482823103        2.41006208839347       -0.63659886103679
H            0.97155364772850        1.92603803751440       -1.00450077908086
H            0.56441029930503        1.80434337273247        0.71126576244529
H            0.40975323304300       -1.95961271080148        0.81939843635913
H            0.22287931204123       -0.47393483323559        1.78697264948304
H            4.03029422837279       -0.48557859482110        1.35934594613444
H            2.34746544878918       -0.78690774514126        2.06732875053601
H            3.02440827119845        1.22085225778613       -1.51765575784295
H            4.34257161149249        0.22397239961694       -0.86794823510583
H            3.12683258729719       -0.47754363806515       -1.96007925194221
