 Entering Gaussian System
 *********************************************
 Gaussian 98:
 frequency output generated by the xtb code
 *********************************************
                         Standard orientation:
 --------------------------------------------------------------------
  Center     Atomic     Atomic              Coordinates (Angstroms)
  Number     Number      Type              X           Y           Z
 --------------------------------------------------------------------
    1          6             0       -2.643012    1.028105    0.089377
    2          6             0       -1.719783   -0.062277   -0.375875
    3          8             0       -2.087672   -0.924886   -1.150199
    4          6             0       -0.304549   -0.007482    0.160540
    5          6             0        0.398032    1.272983   -0.317625
    6          6             0        1.822945    1.330778    0.227070
    7          6             0        2.617819    0.100880   -0.199459
    8          6             0        1.922484   -1.169475    0.279994
    9          6             0        0.500359   -1.235560   -0.265805
   10          1             0       -3.673376    0.688844    0.023901
   11          1             0       -2.408017    1.345965    1.099346
   12          1             0       -2.528663    1.878702   -0.580585
   13          1             0       -0.365681    0.021175    1.253976
   14          1             0        0.424307    1.274816   -1.409693
   15          1             0       -0.154535    2.152070    0.013540
   16          1             0        2.313215    2.235271   -0.136933
   17          1             0        1.791407    1.379909    1.317501
   18          1             0        2.697602    0.079609   -1.288542
   19          1             0        3.628052    0.150110    0.210520
   20          1             0        2.481144   -2.048115   -0.046716
   21          1             0        1.892915   -1.178206    1.371938
   22          1             0        0.521629   -1.282669   -1.357074
   23          1             0       -0.002170   -2.138897    0.087074
 --------------------------------------------------------------------
     1 basis functions        1 primitive gaussians
     1 alpha electrons        1 beta electrons
 
 Harmonic frequencies (cm**-1), IR intensities (km*mol⁻¹),
 Raman scattering activities (A**4/amu), Raman depolarization ratios,
 reduced masses (AMU), force constants (mDyne/A) and normal coordinates:
                      1                      2                      3
                        a                      a                      a 
 Frequencies --    36.9710               101.2230               114.9717
 Red. masses --    11.5276                 5.1686                 5.6671
 Frc consts  --     0.0000                 0.0000                 0.0000
 IR Inten    --     6.4026                 0.5767                 2.2075
 Raman Activ --     0.0000                 0.0000                 0.0000
 Depolar     --     0.0000                 0.0000                 0.0000
 Atom AN      X      Y      Z        X      Y      Z        X      Y      Z
   1   6    -0.13  -0.25   0.36     0.08  -0.01   0.22     0.03   0.07  -0.18
   2   6     0.02   0.04  -0.01    -0.02  -0.00  -0.00     0.04   0.01   0.00
   3   8     0.20   0.38  -0.47    -0.19   0.05   0.02     0.17   0.11  -0.17
   4   6    -0.01   0.02   0.06     0.04  -0.03  -0.20    -0.04  -0.08   0.22
   5   6    -0.00  -0.06  -0.17     0.04  -0.06  -0.26    -0.10  -0.02   0.26
   6   6     0.01   0.01  -0.23    -0.07   0.04   0.03    -0.02  -0.04   0.03
   7   6    -0.02  -0.07  -0.04     0.06   0.03   0.29    -0.09   0.02  -0.26
   8   6    -0.02   0.02   0.20    -0.03  -0.01   0.07     0.08   0.00  -0.08
   9   6    -0.03  -0.06   0.24     0.07  -0.00  -0.21    -0.04  -0.08   0.23
  10   1    -0.02  -0.11   0.09     0.04  -0.13   0.45     0.03  -0.11   0.28
  11   1    -0.04  -0.15   0.13     0.29   0.24  -0.08     0.21   0.32  -0.20
  12   1    -0.08  -0.01   0.18    -0.29  -0.14  -0.17    -0.26  -0.16  -0.33
  13   1    -0.00   0.06   0.02     0.04  -0.00  -0.06    -0.04  -0.03   0.06
  14   1    -0.01  -0.07  -0.05     0.07  -0.06  -0.07    -0.07   0.02   0.07
  15   1     0.00  -0.00  -0.09    -0.02  -0.01  -0.14    -0.03  -0.02   0.12
  16   1     0.00  -0.02  -0.12    -0.00   0.01   0.02    -0.03   0.00   0.01
  17   1     0.01   0.06  -0.07    -0.09   0.04   0.01     0.05  -0.05   0.01
  18   1    -0.01  -0.07  -0.01     0.11   0.01   0.09    -0.12   0.02  -0.08
  19   1    -0.00  -0.00  -0.02    -0.02   0.01   0.17     0.01   0.01  -0.16
  20   1    -0.01  -0.01   0.10     0.02   0.01   0.04     0.01   0.00  -0.05
  21   1     0.00   0.06   0.06    -0.08  -0.02   0.02     0.09   0.01  -0.02
  22   1    -0.02  -0.07   0.07     0.08   0.03  -0.06    -0.07  -0.06   0.07
  23   1    -0.01   0.00   0.12     0.01  -0.01  -0.11     0.02  -0.02   0.12
                      4                      5                      6
                        a                      a                      a 
 Frequencies --   182.4927               228.8286               282.3611
 Red. masses --     9.6642                 6.3856                 8.5989
 Frc consts  --     0.0000                 0.0000                 0.0000
 IR Inten    --     4.9195                 0.2784                 1.2719
 Raman Activ --     0.0000                 0.0000                 0.0000
 Depolar     --     0.0000                 0.0000                 0.0000
 Atom AN      X      Y      Z        X      Y      Z        X      Y      Z
   1   6     0.37   0.25   0.03    -0.10  -0.00  -0.01     0.01  -0.08   0.09
   2   6     0.00  -0.06  -0.01    -0.01   0.06   0.03    -0.06  -0.01  -0.24
   3   8    -0.27   0.18  -0.15     0.06   0.02   0.05    -0.37  -0.10  -0.04
   4   6    -0.01  -0.31   0.03     0.00   0.13   0.02     0.00   0.07  -0.31
   5   6    -0.19  -0.24  -0.04     0.13  -0.08  -0.33     0.19   0.12   0.03
   6   6    -0.23   0.06  -0.01    -0.12  -0.06   0.27     0.12  -0.09   0.26
   7   6    -0.04   0.19   0.01     0.02   0.12   0.04    -0.02   0.01  -0.26
   8   6     0.17   0.08   0.04     0.13  -0.08  -0.32     0.06   0.16   0.20
   9   6     0.14  -0.23   0.08    -0.11  -0.05   0.26     0.08  -0.05   0.13
  10   1     0.07   0.21  -0.07    -0.02  -0.02  -0.04     0.00  -0.03   0.08
  11   1     0.09  -0.02   0.04    -0.06  -0.01   0.01     0.06  -0.07   0.03
  12   1     0.25   0.10   0.07    -0.03   0.01   0.01    -0.04   0.01   0.07
  13   1    -0.00  -0.08   0.01     0.01   0.13   0.00    -0.06   0.03  -0.09
  14   1    -0.05  -0.09  -0.01     0.17  -0.16  -0.09     0.12   0.11   0.01
  15   1    -0.09  -0.09  -0.03     0.00   0.02  -0.27     0.05   0.02   0.04
  16   1    -0.11   0.04  -0.01    -0.01   0.03   0.23     0.05   0.02   0.21
  17   1    -0.08   0.02  -0.00    -0.16  -0.14   0.08     0.01  -0.18   0.08
  18   1    -0.01   0.06   0.00     0.03   0.13   0.01    -0.19   0.00  -0.09
  19   1    -0.01   0.10   0.00    -0.00   0.02   0.04     0.06  -0.01  -0.24
  20   1     0.09   0.05   0.02     0.01   0.02  -0.27     0.02   0.01   0.17
  21   1     0.06   0.03   0.01     0.17  -0.16  -0.09     0.01   0.18   0.06
  22   1     0.03  -0.10   0.03    -0.16  -0.13   0.08     0.05  -0.14   0.04
  23   1     0.10  -0.08   0.06    -0.00   0.03   0.22     0.02   0.02   0.13
                      7                      8                      9
                        a                      a                      a 
 Frequencies --   313.8089               373.2531               427.2170
 Red. masses --    10.6278                 7.2062                 9.2195
 Frc consts  --     0.0000                 0.0000                 0.0000
 IR Inten    --     1.5180                 0.8706                 0.3303
 Raman Activ --     0.0000                 0.0000                 0.0000
 Depolar     --     0.0000                 0.0000                 0.0000
 Atom AN      X      Y      Z        X      Y      Z        X      Y      Z
   1   6    -0.38  -0.01  -0.12     0.20  -0.07   0.08    -0.07  -0.02  -0.03
   2   6    -0.21   0.04   0.01    -0.00  -0.07  -0.24     0.06   0.07   0.02
   3   8    -0.41   0.15  -0.04    -0.17  -0.18  -0.10     0.05   0.04   0.07
   4   6    -0.11  -0.09   0.09    -0.02   0.10  -0.14     0.08  -0.19  -0.03
   5   6     0.09  -0.17   0.13    -0.03   0.25   0.16     0.28  -0.21   0.10
   6   6     0.21  -0.05  -0.10     0.11   0.19  -0.13     0.25   0.32   0.10
   7   6     0.41   0.03   0.06     0.04   0.01   0.21    -0.09   0.18   0.01
   8   6     0.25   0.07  -0.05    -0.01  -0.13  -0.17    -0.29   0.20  -0.11
   9   6     0.14   0.04   0.07    -0.15  -0.09   0.22    -0.24  -0.34  -0.13
  10   1    -0.09  -0.06  -0.07     0.04   0.03   0.10    -0.00  -0.06  -0.04
  11   1    -0.17   0.04  -0.04     0.15  -0.08   0.02    -0.06   0.00  -0.00
  12   1    -0.13  -0.02  -0.06     0.04   0.01   0.06    -0.05  -0.00  -0.01
  13   1    -0.06  -0.04   0.02    -0.08   0.03  -0.04     0.03  -0.09  -0.01
  14   1    -0.01  -0.05   0.03    -0.08   0.19   0.04     0.15  -0.12   0.03
  15   1     0.05  -0.03   0.04     0.01   0.03   0.18    -0.00  -0.08  -0.06
  16   1     0.00  -0.01  -0.09     0.04  -0.00  -0.17     0.02   0.07  -0.09
  17   1     0.11   0.04  -0.03     0.09   0.19  -0.04     0.14   0.18   0.03
  18   1     0.21   0.01   0.02     0.14   0.01   0.07    -0.05   0.09   0.00
  19   1     0.08   0.02   0.11    -0.03  -0.02   0.17    -0.01  -0.07  -0.02
  20   1     0.04   0.01  -0.04    -0.02   0.01  -0.20    -0.00   0.07   0.06
  21   1     0.10  -0.00  -0.02     0.08  -0.18  -0.05    -0.15   0.11  -0.03
  22   1     0.02   0.02   0.02    -0.14  -0.18   0.07    -0.13  -0.17  -0.03
  23   1     0.10  -0.02   0.02    -0.05   0.04   0.23    -0.02  -0.08   0.07
                     10                     11                     12
                        a                      a                      a 
 Frequencies --   436.0351               517.6897               553.8416
 Red. masses --     9.3259                 7.0209                 8.4452
 Frc consts  --     0.0000                 0.0000                 0.0000
 IR Inten    --     3.0395                 4.5844                 9.3340
 Raman Activ --     0.0000                 0.0000                 0.0000
 Depolar     --     0.0000                 0.0000                 0.0000
 Atom AN      X      Y      Z        X      Y      Z        X      Y      Z
   1   6    -0.23  -0.01  -0.10    -0.08   0.14   0.06     0.10  -0.21  -0.08
   2   6     0.16   0.20   0.06     0.02   0.20  -0.05    -0.01  -0.38   0.45
   3   8    -0.06   0.24   0.19     0.29  -0.04   0.14    -0.18   0.23  -0.15
   4   6     0.27  -0.06  -0.21    -0.02  -0.06  -0.18     0.14   0.06  -0.03
   5   6    -0.08   0.19  -0.03    -0.17   0.01   0.01     0.02   0.23  -0.09
   6   6    -0.12   0.10  -0.03    -0.14  -0.25  -0.09     0.03  -0.03   0.00
   7   6    -0.23  -0.04   0.08     0.28   0.02  -0.05     0.07  -0.01  -0.02
   8   6     0.18  -0.27   0.08    -0.06   0.21  -0.07    -0.12   0.08  -0.05
   9   6     0.20  -0.30  -0.03    -0.08  -0.19  -0.05    -0.08  -0.04  -0.02
  10   1    -0.01  -0.16  -0.12    -0.01  -0.01   0.04     0.01   0.04  -0.13
  11   1    -0.20   0.03  -0.01    -0.01  -0.01   0.03    -0.09   0.15  -0.06
  12   1    -0.14   0.01  -0.02    -0.08   0.08   0.06     0.23  -0.23  -0.21
  13   1     0.12  -0.03  -0.06     0.02  -0.04  -0.05     0.15   0.06  -0.00
  14   1    -0.06   0.18  -0.01    -0.15   0.16   0.00    -0.03   0.15  -0.02
  15   1    -0.07  -0.02   0.11    -0.01  -0.04   0.19     0.03   0.04   0.08
  16   1     0.02  -0.01  -0.04    -0.06   0.00   0.13     0.05   0.01   0.11
  17   1    -0.04   0.07  -0.01    -0.10  -0.22  -0.02    -0.05  -0.10   0.01
  18   1    -0.12  -0.03   0.02     0.30   0.01   0.01     0.11   0.01   0.00
  19   1    -0.04   0.04  -0.04    -0.01   0.02   0.20    -0.01  -0.03   0.08
  20   1     0.11  -0.02  -0.03    -0.01  -0.00   0.16    -0.02  -0.00   0.08
  21   1     0.06  -0.13   0.02    -0.10   0.21  -0.02    -0.09   0.10  -0.01
  22   1     0.09  -0.16  -0.00    -0.09  -0.22  -0.00    -0.09  -0.10  -0.00
  23   1     0.01  -0.04   0.04     0.03  -0.01   0.17    -0.02   0.03   0.11
                     13                     14                     15
                        a                      a                      a 
 Frequencies --   613.4705               811.5498               823.3830
 Red. masses --     9.8531                 7.4659                 4.7650
 Frc consts  --     0.0000                 0.0000                 0.0000
 IR Inten    --    13.5666                 0.8894                 0.0607
 Raman Activ --     0.0000                 0.0000                 0.0000
 Depolar     --     0.0000                 0.0000                 0.0000
 Atom AN      X      Y      Z        X      Y      Z        X      Y      Z
   1   6    -0.26   0.29   0.16    -0.11   0.13  -0.03     0.03  -0.03   0.01
   2   6    -0.45  -0.15   0.21    -0.07  -0.06  -0.10     0.02   0.02   0.03
   3   8     0.32  -0.16  -0.17    -0.09  -0.13  -0.11     0.04   0.03   0.04
   4   6    -0.11  -0.02  -0.23     0.13  -0.06   0.39    -0.05  -0.15  -0.13
   5   6     0.06   0.06  -0.03     0.07   0.28  -0.10     0.14  -0.21  -0.15
   6   6     0.10   0.08   0.05     0.12   0.24  -0.09     0.13   0.03  -0.14
   7   6    -0.02   0.00   0.04    -0.04   0.04  -0.13     0.02   0.14   0.05
   8   6     0.13  -0.08   0.05    -0.01  -0.15   0.00    -0.17   0.18   0.17
   9   6     0.09  -0.13  -0.05    -0.01  -0.30   0.05    -0.16  -0.01   0.16
  10   1    -0.15   0.33   0.10    -0.04   0.05   0.09     0.02  -0.03  -0.02
  11   1     0.03   0.14   0.01     0.07  -0.08   0.01    -0.03   0.03   0.00
  12   1     0.13  -0.01  -0.04    -0.10   0.12   0.09     0.02  -0.03  -0.02
  13   1     0.04  -0.01  -0.06     0.05   0.03   0.10    -0.00   0.06  -0.04
  14   1     0.05   0.08  -0.01    -0.06   0.01  -0.03    -0.16   0.24  -0.04
  15   1     0.02   0.01   0.02    -0.01   0.06  -0.04     0.06  -0.16   0.30
  16   1     0.03  -0.00  -0.04     0.14   0.13   0.28     0.00   0.11   0.17
  17   1     0.05   0.08   0.01    -0.11  -0.21  -0.01    -0.12  -0.17  -0.03
  18   1    -0.10  -0.00   0.00     0.18  -0.01  -0.02    -0.07  -0.06   0.01
  19   1     0.03   0.00  -0.08    -0.08  -0.02   0.14     0.04  -0.02  -0.06
  20   1     0.06   0.01  -0.03     0.09  -0.02   0.10    -0.10   0.15  -0.32
  21   1     0.05  -0.07   0.01    -0.02   0.06   0.00     0.19  -0.26   0.05
  22   1     0.07  -0.11  -0.01     0.04   0.16   0.00     0.16   0.18   0.04
  23   1     0.03  -0.02   0.02    -0.04  -0.15  -0.20    -0.05  -0.09  -0.20
                     16                     17                     18
                        a                      a                      a 
 Frequencies --   888.2227               897.1217               931.1000
 Red. masses --     4.8162                 9.0564                 3.6175
 Frc consts  --     0.0000                 0.0000                 0.0000
 IR Inten    --     4.2469                 2.5180                 8.1083
 Raman Activ --     0.0000                 0.0000                 0.0000
 Depolar     --     0.0000                 0.0000                 0.0000
 Atom AN      X      Y      Z        X      Y      Z        X      Y      Z
   1   6    -0.04   0.12  -0.11     0.12  -0.11  -0.01     0.00   0.02   0.00
   2   6    -0.03  -0.10  -0.00     0.00   0.08   0.03     0.01  -0.02  -0.01
   3   8    -0.07  -0.07  -0.09     0.06   0.08   0.08    -0.01  -0.01  -0.01
   4   6     0.15  -0.03   0.26    -0.25  -0.01  -0.06     0.01   0.05  -0.01
   5   6    -0.04  -0.03  -0.20    -0.25   0.11  -0.06     0.11  -0.12  -0.17
   6   6     0.06  -0.05   0.01     0.06   0.27   0.09    -0.11  -0.11   0.19
   7   6     0.15  -0.03   0.27     0.51   0.03  -0.03     0.02   0.06  -0.01
   8   6    -0.00   0.09  -0.06     0.09  -0.27   0.12     0.11  -0.12  -0.16
   9   6     0.01   0.11  -0.16    -0.24  -0.15  -0.07    -0.12  -0.10   0.18
  10   1     0.00  -0.03   0.08     0.04  -0.06  -0.05     0.00  -0.00   0.01
  11   1     0.08  -0.13   0.01    -0.01   0.00  -0.01    -0.01   0.00   0.00
  12   1    -0.16   0.16   0.12     0.04  -0.06  -0.04    -0.01   0.01   0.00
  13   1     0.20   0.02   0.07    -0.11  -0.01  -0.02     0.03   0.31  -0.01
  14   1    -0.22   0.11  -0.05    -0.04  -0.03  -0.02     0.00   0.28  -0.04
  15   1     0.05  -0.04   0.15    -0.11   0.03  -0.09     0.04  -0.12   0.22
  16   1     0.07  -0.04   0.01    -0.06   0.14   0.08    -0.06  -0.12  -0.23
  17   1    -0.17   0.08  -0.01    -0.04   0.04   0.03    -0.01   0.29   0.03
  18   1    -0.34  -0.01   0.04    -0.11  -0.01  -0.03    -0.01   0.29  -0.01
  19   1     0.18  -0.04  -0.28     0.23   0.01  -0.25     0.01  -0.01  -0.00
  20   1     0.02   0.02   0.02    -0.04  -0.14   0.09     0.04  -0.12   0.22
  21   1    -0.19  -0.06  -0.02    -0.03  -0.04   0.03     0.01   0.28  -0.04
  22   1    -0.24  -0.10  -0.04    -0.03   0.01  -0.02     0.00   0.27   0.03
  23   1     0.11   0.06   0.18    -0.12  -0.04  -0.09    -0.08  -0.10  -0.22
                     19                     20                     21
                        a                      a                      a 
 Frequencies --   945.7523               951.1333               978.2640
 Red. masses --     6.9340                 7.6764                 6.1526
 Frc consts  --     0.0000                 0.0000                 0.0000
 IR Inten    --    16.0601                 6.1811                 1.4976
 Raman Activ --     0.0000                 0.0000                 0.0000
 Depolar     --     0.0000                 0.0000                 0.0000
 Atom AN      X      Y      Z        X      Y      Z        X      Y      Z
   1   6     0.01   0.29  -0.05     0.16   0.04  -0.09     0.04  -0.03  -0.27
   2   6     0.05  -0.25   0.15    -0.02  -0.05   0.15    -0.13  -0.08   0.19
   3   8    -0.02  -0.06  -0.12     0.06   0.05   0.03    -0.01   0.07  -0.01
   4   6     0.17  -0.13  -0.18    -0.36  -0.14   0.00     0.06   0.15  -0.02
   5   6    -0.19  -0.04   0.00    -0.11   0.36  -0.12     0.12   0.01   0.14
   6   6     0.01   0.18   0.17     0.11  -0.20   0.09    -0.15  -0.21  -0.06
   7   6     0.13  -0.14  -0.17    -0.04  -0.10   0.09     0.07   0.22  -0.06
   8   6    -0.18  -0.02   0.01    -0.01   0.30  -0.06     0.07  -0.03   0.21
   9   6     0.05   0.21   0.15     0.05  -0.23   0.03    -0.24  -0.13  -0.11
  10   1     0.07  -0.16   0.01     0.11  -0.19  -0.03     0.01  -0.03   0.11
  11   1    -0.09  -0.05   0.05    -0.03  -0.08   0.02     0.22  -0.27  -0.03
  12   1    -0.26   0.21   0.12    -0.15   0.10   0.07    -0.14   0.17   0.14
  13   1     0.18   0.01  -0.04    -0.09   0.01  -0.00     0.24   0.02   0.01
  14   1     0.10   0.02   0.00     0.07   0.02  -0.03     0.16  -0.02   0.04
  15   1    -0.24  -0.11  -0.06     0.03   0.17  -0.14     0.10   0.07  -0.04
  16   1    -0.07   0.06  -0.01     0.17  -0.18  -0.11    -0.18  -0.02  -0.11
  17   1     0.12   0.05   0.05     0.08   0.09   0.02     0.15  -0.04  -0.01
  18   1     0.13   0.01  -0.04    -0.05   0.02   0.02     0.04  -0.05  -0.01
  19   1     0.00  -0.15   0.05     0.01  -0.11  -0.00     0.00   0.27  -0.00
  20   1    -0.23  -0.10  -0.06     0.03   0.14  -0.12     0.06   0.06  -0.06
  21   1     0.10   0.02   0.01     0.09   0.01  -0.02     0.08  -0.12   0.05
  22   1     0.13   0.01   0.04     0.09   0.04   0.00     0.03  -0.05  -0.03
  23   1    -0.05   0.09   0.02     0.18  -0.20  -0.10    -0.21   0.03  -0.07
                     22                     23                     24
                        a                      a                      a 
 Frequencies --  1000.9790              1010.2922              1065.7389
 Red. masses --     6.6903                 7.7645                 1.6119
 Frc consts  --     0.0000                 0.0000                 0.0000
 IR Inten    --    11.0237                18.5550                 0.8504
 Raman Activ --     0.0000                 0.0000                 0.0000
 Depolar     --     0.0000                 0.0000                 0.0000
 Atom AN      X      Y      Z        X      Y      Z        X      Y      Z
   1   6     0.04   0.33   0.29    -0.22  -0.04   0.12    -0.01  -0.04  -0.01
   2   6     0.21  -0.21  -0.07     0.15   0.08  -0.23     0.01   0.04  -0.03
   3   8    -0.06  -0.21  -0.17    -0.08  -0.07  -0.02     0.00   0.01   0.02
   4   6     0.02   0.05   0.03     0.36   0.01   0.12    -0.04   0.03   0.02
   5   6     0.11   0.07   0.08    -0.19   0.17   0.01    -0.07  -0.05  -0.01
   6   6    -0.08  -0.14  -0.11    -0.11  -0.18   0.10    -0.03   0.08   0.05
   7   6     0.05   0.16   0.04     0.24  -0.04  -0.00     0.00  -0.12  -0.02
   8   6     0.04  -0.03   0.07    -0.17   0.24   0.04     0.02   0.07  -0.02
   9   6    -0.15  -0.07  -0.07    -0.07  -0.19   0.05     0.08  -0.05  -0.01
  10   1     0.11  -0.20  -0.15    -0.14   0.25   0.04    -0.02   0.05   0.02
  11   1    -0.41   0.30   0.10     0.03   0.10  -0.02     0.03  -0.02  -0.01
  12   1    -0.13   0.01  -0.05     0.18  -0.12  -0.08     0.03  -0.02  -0.01
  13   1    -0.13   0.05  -0.00     0.17  -0.02   0.03     0.03   0.43  -0.01
  14   1     0.07  -0.04   0.02     0.06  -0.06   0.00     0.27   0.19   0.01
  15   1     0.08   0.07  -0.04    -0.10   0.06  -0.12    -0.23  -0.15   0.01
  16   1    -0.07  -0.01  -0.04    -0.06  -0.10  -0.14    -0.17   0.10   0.00
  17   1     0.03  -0.06  -0.03     0.07   0.11   0.02     0.28  -0.13   0.03
  18   1    -0.05  -0.06   0.01    -0.05   0.01  -0.01     0.03  -0.38   0.00
  19   1     0.03   0.21  -0.06     0.10  -0.07  -0.09    -0.01   0.05   0.01
  20   1     0.09   0.05   0.00    -0.11   0.08  -0.17     0.14   0.10  -0.01
  21   1    -0.08  -0.09   0.01     0.12  -0.07   0.01    -0.25  -0.16  -0.01
  22   1    -0.11   0.03  -0.02     0.12   0.04   0.01    -0.25   0.14  -0.02
  23   1    -0.08   0.00  -0.03    -0.06  -0.07  -0.11     0.26  -0.14   0.01
                     25                     26                     27
                        a                      a                      a 
 Frequencies --  1092.0739              1110.0815              1131.7626
 Red. masses --     6.3684                 5.4680                 6.7081
 Frc consts  --     0.0000                 0.0000                 0.0000
 IR Inten    --     1.6935                 1.5087                56.2039
 Raman Activ --     0.0000                 0.0000                 0.0000
 Depolar     --     0.0000                 0.0000                 0.0000
 Atom AN      X      Y      Z        X      Y      Z        X      Y      Z
   1   6    -0.04  -0.01  -0.03     0.05   0.03  -0.02    -0.21   0.06  -0.12
   2   6     0.03  -0.02   0.03    -0.04  -0.06   0.05     0.32  -0.24   0.16
   3   8     0.01   0.03   0.02    -0.02  -0.01  -0.04     0.00   0.12   0.05
   4   6    -0.07  -0.14   0.04     0.00   0.44  -0.02     0.13  -0.01  -0.29
   5   6     0.35   0.17   0.05    -0.07  -0.16   0.13    -0.05   0.02   0.14
   6   6    -0.33   0.05  -0.09    -0.03   0.05  -0.03     0.04  -0.05  -0.15
   7   6     0.16   0.02  -0.05     0.05  -0.06   0.03     0.01   0.03   0.16
   8   6    -0.28  -0.10  -0.06    -0.14   0.03  -0.09     0.02   0.02  -0.16
   9   6     0.24  -0.01   0.10     0.23  -0.24  -0.00    -0.05   0.00   0.20
  10   1    -0.02   0.02   0.03     0.04  -0.06  -0.01    -0.12   0.18   0.17
  11   1     0.04  -0.03  -0.01    -0.03  -0.01   0.01     0.13  -0.12  -0.03
  12   1     0.01   0.02   0.02    -0.05   0.03   0.02    -0.00   0.10   0.09
  13   1    -0.11  -0.07   0.01    -0.06   0.20  -0.01    -0.42  -0.03  -0.09
  14   1     0.15   0.08   0.02    -0.15  -0.13   0.03    -0.02  -0.14   0.03
  15   1     0.22   0.12   0.02     0.20   0.11   0.02    -0.09  -0.01  -0.08
  16   1    -0.23   0.09  -0.04    -0.31   0.19   0.02     0.09  -0.02   0.05
  17   1    -0.15   0.08  -0.03    -0.09  -0.01  -0.01    -0.06  -0.09  -0.04
  18   1    -0.03  -0.01  -0.02    -0.04   0.04   0.00    -0.11  -0.02   0.03
  19   1     0.05   0.11  -0.07     0.04  -0.43  -0.03     0.05   0.04  -0.07
  20   1    -0.34  -0.20  -0.02     0.19   0.14  -0.02     0.09   0.02   0.06
  21   1    -0.14  -0.07  -0.02    -0.05  -0.02  -0.02    -0.14   0.05  -0.04
  22   1     0.06  -0.01   0.03     0.21  -0.08   0.00    -0.08   0.20   0.04
  23   1     0.29  -0.13   0.04    -0.05  -0.01  -0.04    -0.06  -0.02  -0.09
                     28                     29                     30
                        a                      a                      a 
 Frequencies --  1141.0718              1167.4037              1196.1030
 Red. masses --     7.7075                 7.8615                 4.6769
 Frc consts  --     0.0000                 0.0000                 0.0000
 IR Inten    --     1.1235               109.4903                 7.6011
 Raman Activ --     0.0000                 0.0000                 0.0000
 Depolar     --     0.0000                 0.0000                 0.0000
 Atom AN      X      Y      Z        X      Y      Z        X      Y      Z
   1   6     0.02   0.01  -0.00     0.20  -0.05   0.02     0.01  -0.02   0.02
   2   6    -0.04  -0.01   0.02    -0.44   0.18  -0.01    -0.11   0.10  -0.03
   3   8     0.00  -0.01  -0.01     0.04  -0.05  -0.03     0.03  -0.00   0.02
   4   6     0.05  -0.05  -0.02     0.22   0.07  -0.14     0.04  -0.35  -0.03
   5   6     0.25   0.05   0.10    -0.01  -0.00   0.24    -0.03   0.15  -0.14
   6   6    -0.31   0.20  -0.03    -0.03  -0.03  -0.22     0.03  -0.10  -0.03
   7   6     0.03  -0.42   0.03     0.04   0.01   0.21    -0.00   0.12   0.07
   8   6     0.29   0.24  -0.02    -0.06   0.04  -0.23    -0.03  -0.10  -0.10
   9   6    -0.26   0.03  -0.05     0.02  -0.06   0.23     0.02   0.18   0.24
  10   1     0.01  -0.02  -0.01     0.11  -0.17  -0.12     0.01  -0.03  -0.04
  11   1    -0.01  -0.00   0.00    -0.05   0.01   0.02     0.01   0.01  -0.00
  12   1    -0.01   0.01   0.00    -0.03  -0.04  -0.05     0.02  -0.03  -0.02
  13   1    -0.01  -0.17  -0.00     0.22   0.02  -0.02     0.10  -0.31   0.00
  14   1     0.11   0.04   0.03     0.07  -0.14   0.06     0.15   0.12  -0.03
  15   1    -0.01  -0.03   0.02    -0.17  -0.05  -0.09     0.15   0.13  -0.03
  16   1    -0.09   0.06   0.02     0.17  -0.05   0.08    -0.31   0.13  -0.04
  17   1    -0.28   0.11  -0.02    -0.08  -0.11  -0.05     0.19  -0.09  -0.00
  18   1    -0.01  -0.26   0.01    -0.15  -0.02   0.04    -0.05   0.01   0.01
  19   1     0.02  -0.20  -0.01     0.06   0.15  -0.10     0.03  -0.27  -0.02
  20   1     0.11   0.09  -0.01    -0.08  -0.07   0.06     0.30   0.14   0.08
  21   1     0.25   0.15  -0.00    -0.10   0.09  -0.06    -0.20  -0.02  -0.03
  22   1    -0.13   0.07  -0.02     0.09   0.14   0.05    -0.05   0.13   0.06
  23   1    -0.05  -0.01  -0.04     0.03  -0.09  -0.10    -0.22   0.14  -0.01
                     31                     32                     33
                        a                      a                      a 
 Frequencies --  1221.1991              1244.8090              1248.5907
 Red. masses --     5.4193                 3.8801                 3.4787
 Frc consts  --     0.0000                 0.0000                 0.0000
 IR Inten    --    43.2551                 0.7432                 1.1485
 Raman Activ --     0.0000                 0.0000                 0.0000
 Depolar     --     0.0000                 0.0000                 0.0000
 Atom AN      X      Y      Z        X      Y      Z        X      Y      Z
   1   6     0.10  -0.02  -0.02    -0.01   0.01   0.00    -0.00  -0.00  -0.00
   2   6    -0.29   0.05   0.07     0.02  -0.02   0.00     0.08  -0.03  -0.01
   3   8     0.04   0.00  -0.01    -0.01  -0.00  -0.01    -0.01   0.01   0.01
   4   6     0.27   0.11   0.03     0.03   0.14   0.01    -0.21   0.02   0.25
   5   6     0.08   0.01  -0.11    -0.05  -0.07  -0.21     0.12  -0.00  -0.04
   6   6    -0.09  -0.03   0.22     0.06   0.09   0.25    -0.11   0.01  -0.10
   7   6     0.12   0.01  -0.28    -0.06  -0.09   0.09     0.09  -0.02   0.08
   8   6    -0.12   0.03   0.11     0.05   0.09  -0.26    -0.11   0.02  -0.18
   9   6     0.10  -0.05   0.05    -0.04  -0.07   0.11     0.12  -0.01  -0.03
  10   1     0.05  -0.08  -0.04     0.00  -0.01  -0.00    -0.02   0.04   0.02
  11   1    -0.01  -0.03   0.01    -0.00   0.01  -0.00    -0.01  -0.00   0.00
  12   1    -0.03   0.00  -0.00     0.00   0.01   0.01    -0.01   0.01   0.00
  13   1    -0.40  -0.22  -0.01    -0.02  -0.24   0.01    -0.12   0.01   0.06
  14   1    -0.14  -0.01  -0.03    -0.26  -0.03  -0.06     0.28   0.22  -0.00
  15   1    -0.12  -0.12   0.05     0.22   0.08   0.07    -0.28  -0.21   0.04
  16   1     0.13  -0.15  -0.10    -0.13   0.07  -0.02     0.14  -0.08   0.01
  17   1    -0.10   0.20   0.04     0.25  -0.02   0.07    -0.02  -0.03  -0.02
  18   1     0.14  -0.08  -0.06    -0.02  -0.48   0.03    -0.06  -0.08   0.01
  19   1    -0.02   0.05   0.04    -0.02   0.36  -0.00     0.05   0.07  -0.07
  20   1     0.15   0.16  -0.07    -0.11  -0.09   0.04     0.12   0.08   0.01
  21   1    -0.24  -0.24   0.02    -0.02   0.13  -0.06    -0.06   0.05  -0.05
  22   1    -0.10   0.08   0.01     0.22  -0.03   0.03     0.43  -0.27   0.02
  23   1    -0.06   0.03   0.00    -0.06  -0.02  -0.06    -0.34   0.21   0.02
                     34                     35                     36
                        a                      a                      a 
 Frequencies --  1261.4696              1294.4336              1328.6931
 Red. masses --     3.9379                 4.1741                 4.4055
 Frc consts  --     0.0000                 0.0000                 0.0000
 IR Inten    --    26.6358                 6.6455                 3.2110
 Raman Activ --     0.0000                 0.0000                 0.0000
 Depolar     --     0.0000                 0.0000                 0.0000
 Atom AN      X      Y      Z        X      Y      Z        X      Y      Z
   1   6     0.07  -0.01  -0.02     0.03  -0.02  -0.01     0.02  -0.02  -0.00
   2   6    -0.16   0.01   0.04    -0.17   0.08   0.02    -0.04   0.04   0.00
   3   8     0.01  -0.00  -0.01     0.03   0.01   0.02     0.01  -0.01   0.01
   4   6     0.23   0.18   0.15     0.19  -0.35   0.04    -0.03  -0.22  -0.01
   5   6    -0.00   0.04  -0.15    -0.11  -0.00   0.03     0.32   0.30   0.00
   6   6     0.05  -0.09  -0.10     0.00   0.04   0.02     0.08  -0.12   0.05
   7   6    -0.07   0.05   0.19    -0.01  -0.03   0.04    -0.02  -0.16   0.03
   8   6     0.03  -0.01   0.05    -0.01   0.11   0.00    -0.02   0.00  -0.02
   9   6    -0.03  -0.06  -0.15     0.21  -0.07  -0.12    -0.05   0.09  -0.02
  10   1     0.02  -0.03  -0.01     0.02  -0.04  -0.01    -0.01   0.03  -0.00
  11   1    -0.01  -0.02   0.01     0.01  -0.01  -0.00    -0.00  -0.02   0.00
  12   1    -0.03   0.01  -0.00     0.01  -0.00   0.00    -0.01  -0.01  -0.02
  13   1    -0.41  -0.20   0.02    -0.27   0.46  -0.02    -0.01   0.25  -0.01
  14   1     0.11   0.14  -0.04     0.03   0.00   0.01    -0.44  -0.28  -0.01
  15   1    -0.21  -0.14   0.02     0.24   0.18  -0.02    -0.31  -0.16  -0.04
  16   1    -0.24   0.11  -0.02     0.03   0.01   0.02    -0.34   0.15  -0.04
  17   1     0.27  -0.21  -0.01    -0.00   0.01   0.01     0.04   0.01   0.01
  18   1    -0.10   0.17   0.04    -0.02  -0.10   0.01    -0.03   0.14   0.00
  19   1     0.01  -0.12  -0.01    -0.00   0.07   0.00    -0.02   0.17   0.02
  20   1    -0.21  -0.13  -0.01    -0.19  -0.07  -0.07     0.10   0.07  -0.01
  21   1     0.27   0.15   0.02     0.14   0.09  -0.00    -0.00   0.03  -0.01
  22   1    -0.07  -0.03  -0.04    -0.16   0.01  -0.04     0.11  -0.09   0.00
  23   1     0.12  -0.06   0.03    -0.39   0.25   0.02    -0.02   0.04   0.01
                     37                     38                     39
                        a                      a                      a 
 Frequencies --  1335.7694              1348.4248              1353.4663
 Red. masses --     4.4289                 4.9501                 5.1755
 Frc consts  --     0.0000                 0.0000                 0.0000
 IR Inten    --     9.5688                15.5658                 0.7982
 Raman Activ --     0.0000                 0.0000                 0.0000
 Depolar     --     0.0000                 0.0000                 0.0000
 Atom AN      X      Y      Z        X      Y      Z        X      Y      Z
   1   6     0.00  -0.00  -0.00     0.01  -0.02  -0.01     0.00  -0.01  -0.00
   2   6     0.01   0.00   0.00    -0.05   0.01   0.01    -0.01  -0.00   0.00
   3   8    -0.00  -0.01  -0.00     0.01   0.01   0.01     0.00  -0.00  -0.00
   4   6    -0.05  -0.04  -0.01     0.14  -0.12  -0.02     0.07  -0.00   0.03
   5   6     0.19   0.08  -0.01     0.03  -0.05  -0.03    -0.08  -0.08  -0.02
   6   6    -0.27   0.03   0.01    -0.36   0.20   0.00    -0.02   0.14  -0.05
   7   6    -0.03   0.27   0.00     0.14  -0.08   0.04    -0.05  -0.42  -0.02
   8   6     0.31   0.12   0.00    -0.20  -0.15   0.01     0.27   0.25   0.03
   9   6    -0.05  -0.03   0.00    -0.18   0.17  -0.04    -0.13  -0.03   0.03
  10   1    -0.00   0.01   0.00    -0.00   0.00   0.01     0.00  -0.01  -0.00
  11   1    -0.00  -0.00   0.00    -0.01   0.03  -0.01    -0.00   0.02  -0.01
  12   1    -0.00  -0.00  -0.00    -0.01   0.02   0.03    -0.00   0.01   0.02
  13   1     0.03   0.07  -0.00    -0.11   0.14  -0.02    -0.05  -0.02   0.01
  14   1    -0.21  -0.14  -0.01    -0.10  -0.06  -0.01     0.09   0.09  -0.00
  15   1    -0.06  -0.07   0.03     0.20   0.09   0.05     0.13   0.08   0.00
  16   1     0.17  -0.14  -0.05     0.27  -0.13   0.03    -0.04   0.07   0.04
  17   1     0.25  -0.14   0.01     0.39  -0.18   0.03     0.10  -0.10  -0.00
  18   1    -0.01  -0.15   0.01    -0.00   0.11   0.00     0.00   0.50  -0.02
  19   1     0.01  -0.47   0.02     0.07   0.00  -0.08    -0.03   0.17   0.02
  20   1    -0.28  -0.21   0.04     0.30   0.17   0.03    -0.11  -0.03  -0.04
  21   1    -0.24  -0.16  -0.01     0.17   0.09   0.01    -0.39  -0.26  -0.01
  22   1     0.06  -0.05   0.00     0.16  -0.08   0.00     0.17  -0.04   0.02
  23   1    -0.11   0.02  -0.05     0.23  -0.08   0.06    -0.07   0.00  -0.02
                     40                     41                     42
                        a                      a                      a 
 Frequencies --  1358.4567              1360.9593              1435.6864
 Red. masses --     3.8876                 4.8605                 1.6658
 Frc consts  --     0.0000                 0.0000                 0.0000
 IR Inten    --    48.7009                 8.5081                21.0428
 Raman Activ --     0.0000                 0.0000                 0.0000
 Depolar     --     0.0000                 0.0000                 0.0000
 Atom AN      X      Y      Z        X      Y      Z        X      Y      Z
   1   6    -0.21   0.32   0.07    -0.10   0.17   0.03    -0.22  -0.07   0.01
   2   6     0.08  -0.03  -0.01    -0.06   0.01  -0.00     0.01   0.01   0.04
   3   8    -0.01  -0.01  -0.01     0.01  -0.00   0.00    -0.01  -0.04  -0.04
   4   6    -0.13   0.08  -0.02     0.21  -0.12   0.06    -0.01   0.00   0.00
   5   6     0.08  -0.01  -0.02    -0.13   0.02   0.02     0.02   0.01   0.01
   6   6    -0.11   0.07  -0.01     0.16  -0.10   0.01     0.01  -0.01  -0.00
   7   6     0.05  -0.10   0.03    -0.07   0.15  -0.04     0.00   0.01   0.00
   8   6    -0.08   0.03   0.02     0.13  -0.05  -0.03     0.00  -0.00  -0.00
   9   6     0.17  -0.09   0.01    -0.33   0.17  -0.04    -0.01   0.00  -0.01
  10   1     0.12  -0.40   0.00     0.07  -0.24   0.02     0.11  -0.36  -0.17
  11   1     0.21  -0.38   0.09     0.10  -0.23   0.05     0.38   0.47  -0.24
  12   1     0.32  -0.23  -0.27     0.18  -0.13  -0.16     0.34   0.26   0.40
  13   1     0.08  -0.08   0.00    -0.18   0.18  -0.00    -0.01   0.02   0.00
  14   1    -0.07  -0.03  -0.01     0.13   0.02   0.01    -0.02   0.02   0.00
  15   1    -0.04  -0.05   0.02     0.05   0.05  -0.00    -0.06  -0.02  -0.03
  16   1     0.05  -0.02   0.01    -0.08   0.03  -0.01    -0.01  -0.00  -0.01
  17   1     0.15  -0.08   0.01    -0.22   0.12  -0.01    -0.02  -0.00  -0.00
  18   1    -0.03   0.12   0.00     0.04  -0.17  -0.00    -0.01  -0.01   0.00
  19   1     0.01   0.06  -0.01    -0.02  -0.10   0.01    -0.00  -0.01   0.01
  20   1     0.00   0.03  -0.02     0.02  -0.04   0.04    -0.00  -0.00   0.00
  21   1     0.07   0.02   0.01    -0.11  -0.03  -0.01     0.00   0.00  -0.00
  22   1    -0.18   0.09  -0.01     0.37  -0.19   0.01     0.01  -0.01  -0.00
  23   1    -0.11   0.05  -0.02     0.22  -0.11   0.03     0.01  -0.00   0.00
                     43                     44                     45
                        a                      a                      a 
 Frequencies --  1448.8412              1476.4763              1481.5241
 Red. masses --     1.7467                 1.8770                 1.9363
 Frc consts  --     0.0000                 0.0000                 0.0000
 IR Inten    --     8.5766                 0.9654                 0.6716
 Raman Activ --     0.0000                 0.0000                 0.0000
 Depolar     --     0.0000                 0.0000                 0.0000
 Atom AN      X      Y      Z        X      Y      Z        X      Y      Z
   1   6    -0.05   0.03   0.24    -0.01  -0.01   0.03    -0.00  -0.00   0.01
   2   6     0.05  -0.03   0.04     0.01  -0.00   0.01     0.01   0.00   0.01
   3   8    -0.01  -0.01  -0.01    -0.00  -0.01  -0.01    -0.00  -0.00  -0.00
   4   6     0.00   0.00  -0.01    -0.01   0.03  -0.01    -0.02  -0.00  -0.01
   5   6     0.02  -0.04   0.03    -0.09   0.13  -0.13    -0.03   0.09  -0.05
   6   6    -0.00   0.01   0.00    -0.05  -0.10  -0.09     0.06   0.13   0.10
   7   6     0.00   0.00  -0.00    -0.03  -0.02   0.02    -0.16  -0.01   0.11
   8   6     0.00  -0.00  -0.00     0.04  -0.05   0.05    -0.02   0.01  -0.00
   9   6    -0.01   0.00  -0.01     0.04   0.03   0.04     0.01  -0.03  -0.01
  10   1    -0.03   0.18  -0.67    -0.00   0.02  -0.10    -0.00   0.01  -0.04
  11   1     0.47  -0.08  -0.06     0.08   0.01  -0.02     0.03   0.00  -0.01
  12   1    -0.40  -0.08  -0.15    -0.06   0.00  -0.00    -0.02   0.00  -0.00
  13   1    -0.04   0.02  -0.00    -0.00  -0.00  -0.00     0.01   0.01   0.00
  14   1    -0.06   0.10   0.00     0.26  -0.43   0.00     0.12  -0.21   0.00
  15   1    -0.00   0.03  -0.10     0.07  -0.13   0.48     0.03  -0.06   0.22
  16   1     0.01  -0.01  -0.01     0.04   0.11   0.33    -0.06  -0.12  -0.40
  17   1    -0.01  -0.01   0.00     0.16   0.31  -0.01    -0.21  -0.37   0.02
  18   1    -0.01  -0.01  -0.00     0.08   0.01   0.01     0.47   0.03   0.04
  19   1    -0.00  -0.00   0.01     0.03   0.00  -0.07     0.17   0.01  -0.44
  20   1     0.00  -0.00   0.00    -0.03   0.05  -0.20    -0.01  -0.00   0.01
  21   1     0.00  -0.00   0.00    -0.12   0.17   0.00     0.01  -0.01   0.00
  22   1     0.02   0.00  -0.00    -0.08  -0.14   0.01     0.01   0.06  -0.00
  23   1     0.01   0.00   0.01    -0.02  -0.05  -0.16    -0.01   0.03   0.06
                     46                     47                     48
                        a                      a                      a 
 Frequencies --  1486.0598              1490.9030              1503.0833
 Red. masses --     1.9665                 1.9724                 2.0050
 Frc consts  --     0.0000                 0.0000                 0.0000
 IR Inten    --     0.7950                 0.2294                 0.4670
 Raman Activ --     0.0000                 0.0000                 0.0000
 Depolar     --     0.0000                 0.0000                 0.0000
 Atom AN      X      Y      Z        X      Y      Z        X      Y      Z
   1   6    -0.00  -0.00   0.01     0.00   0.00  -0.00    -0.00  -0.00   0.01
   2   6     0.00   0.00   0.01    -0.00   0.01   0.01     0.01  -0.00  -0.00
   3   8    -0.00  -0.00  -0.00    -0.00  -0.01  -0.01     0.00   0.00   0.00
   4   6     0.00  -0.01  -0.00     0.02   0.01   0.01    -0.03  -0.00  -0.01
   5   6    -0.07   0.09  -0.07    -0.02  -0.01   0.01    -0.03   0.06  -0.05
   6   6     0.04   0.05   0.03     0.04   0.12   0.07     0.03   0.07   0.04
   7   6     0.10  -0.01  -0.07     0.09  -0.01  -0.04     0.13   0.01  -0.07
   8   6    -0.09   0.15  -0.13     0.04  -0.09   0.07     0.05  -0.10   0.07
   9   6     0.02   0.04   0.02     0.06   0.15   0.12    -0.07  -0.14  -0.10
  10   1    -0.00   0.01  -0.04    -0.00   0.00   0.00    -0.00   0.01  -0.02
  11   1     0.03   0.00  -0.01    -0.00  -0.00   0.00     0.01   0.00  -0.00
  12   1    -0.03   0.00  -0.00    -0.00  -0.00  -0.00    -0.02  -0.00  -0.00
  13   1    -0.01   0.02  -0.00     0.00   0.01   0.00     0.02  -0.01  -0.00
  14   1     0.17  -0.26   0.00     0.01   0.02   0.00     0.11  -0.18  -0.00
  15   1     0.05  -0.07   0.29     0.02   0.02  -0.01     0.03  -0.05   0.19
  16   1    -0.02  -0.03  -0.13    -0.02  -0.10  -0.30    -0.01  -0.06  -0.18
  17   1    -0.08  -0.12   0.00    -0.14  -0.29   0.01    -0.08  -0.17   0.01
  18   1    -0.29   0.01  -0.03    -0.21   0.00  -0.02    -0.32  -0.02  -0.03
  19   1    -0.11   0.03   0.27    -0.07   0.01   0.19    -0.11  -0.00   0.29
  20   1     0.08  -0.12   0.47    -0.02   0.09  -0.27    -0.03   0.07  -0.27
  21   1     0.27  -0.42  -0.00    -0.14   0.25   0.00    -0.15   0.25   0.00
  22   1    -0.04  -0.08   0.00    -0.20  -0.43   0.02     0.20   0.40  -0.02
  23   1    -0.01  -0.02  -0.09    -0.03  -0.16  -0.45     0.04   0.13   0.41
                     49                     50                     51
                        a                      a                      a 
 Frequencies --  1697.5379              2921.8346              2959.8866
 Red. masses --    13.3167                 1.7455                 1.8857
 Frc consts  --     0.0000                 0.0000                 0.0000
 IR Inten    --   560.8331                30.3294                19.2656
 Raman Activ --     0.0000                 0.0000                 0.0000
 Depolar     --     0.0000                 0.0000                 0.0000
 Atom AN      X      Y      Z        X      Y      Z        X      Y      Z
   1   6     0.01  -0.04  -0.04    -0.00  -0.00  -0.01     0.00   0.00  -0.00
   2   6     0.24   0.56   0.50     0.00   0.00   0.01    -0.00  -0.00  -0.00
   3   8    -0.18  -0.43  -0.38     0.00  -0.00  -0.00     0.00   0.00   0.00
   4   6    -0.02  -0.01  -0.03    -0.01   0.01   0.26    -0.00  -0.00   0.01
   5   6    -0.02  -0.02  -0.00     0.00  -0.01  -0.01     0.00  -0.01  -0.03
   6   6     0.00   0.00  -0.00     0.00   0.00  -0.01     0.00  -0.00  -0.00
   7   6    -0.00  -0.00   0.00     0.00   0.00   0.00     0.04   0.00   0.10
   8   6    -0.00  -0.01  -0.00     0.00  -0.00  -0.01     0.05  -0.07  -0.20
   9   6     0.00   0.00   0.00     0.01   0.01  -0.01    -0.04  -0.07   0.12
  10   1    -0.02   0.05   0.05     0.00  -0.00  -0.00    -0.00  -0.00  -0.00
  11   1     0.01  -0.06   0.01     0.00   0.00   0.02    -0.00  -0.00  -0.00
  12   1     0.01  -0.01  -0.02    -0.00  -0.00   0.00    -0.00  -0.00   0.00
  13   1    -0.05  -0.01  -0.00     0.05  -0.03  -0.96    -0.00   0.00  -0.01
  14   1     0.01   0.01   0.00    -0.00  -0.00   0.06    -0.00   0.00   0.08
  15   1     0.00   0.00  -0.01    -0.02   0.02   0.01    -0.01   0.02   0.00
  16   1     0.01  -0.00   0.01    -0.00  -0.01   0.00     0.00   0.00  -0.00
  17   1     0.00   0.00  -0.00    -0.00   0.00   0.01    -0.00   0.00   0.02
  18   1    -0.00   0.00   0.00     0.00  -0.00  -0.01     0.03  -0.00  -0.32
  19   1    -0.00   0.00  -0.00    -0.00  -0.00  -0.00    -0.16  -0.01  -0.06
  20   1     0.01   0.00   0.00    -0.00   0.01   0.00    -0.16   0.25   0.07
  21   1    -0.00   0.00  -0.00    -0.00   0.00   0.01    -0.02  -0.01   0.68
  22   1     0.01   0.01   0.00    -0.00   0.01   0.05     0.00  -0.02  -0.35
  23   1     0.01   0.00   0.01    -0.02  -0.04   0.02     0.15   0.26  -0.09
                     52                     53                     54
                        a                      a                      a 
 Frequencies --  2962.8162              2966.2216              2969.0954
 Red. masses --     1.9213                 1.9435                 1.9506
 Frc consts  --     0.0000                 0.0000                 0.0000
 IR Inten    --    39.9799                26.0499                22.6869
 Raman Activ --     0.0000                 0.0000                 0.0000
 Depolar     --     0.0000                 0.0000                 0.0000
 Atom AN      X      Y      Z        X      Y      Z        X      Y      Z
   1   6    -0.00  -0.00  -0.00     0.00   0.00  -0.00     0.00  -0.00   0.00
   2   6     0.00   0.00   0.00     0.00   0.00   0.00     0.00  -0.00   0.00
   3   8     0.00   0.00   0.00    -0.00  -0.00  -0.00    -0.00  -0.00  -0.00
   4   6    -0.00  -0.00   0.01    -0.00  -0.00   0.02    -0.00   0.00   0.01
   5   6     0.01  -0.01  -0.07    -0.01   0.02   0.10    -0.02   0.03   0.17
   6   6    -0.04  -0.05   0.13     0.05   0.07  -0.15     0.00   0.01  -0.00
   7   6    -0.07  -0.01  -0.17    -0.02   0.00  -0.03    -0.08  -0.01  -0.14
   8   6    -0.01   0.01   0.01    -0.03   0.04   0.08     0.05  -0.07  -0.13
   9   6    -0.05  -0.08   0.12    -0.06  -0.10   0.13     0.03   0.05  -0.05
  10   1     0.00   0.00   0.00    -0.00  -0.00  -0.00    -0.00  -0.00  -0.00
  11   1     0.00   0.00   0.00     0.00   0.00   0.00     0.00  -0.00  -0.00
  12   1     0.00   0.00  -0.00    -0.00  -0.00   0.00    -0.00   0.00  -0.00
  13   1     0.00   0.00  -0.03     0.00  -0.00  -0.06    -0.00  -0.00  -0.01
  14   1    -0.00   0.00   0.24     0.01  -0.00  -0.38     0.02  -0.00  -0.57
  15   1    -0.03   0.04   0.01     0.03  -0.05  -0.00     0.07  -0.11  -0.02
  16   1     0.11   0.20  -0.07    -0.15  -0.29   0.10    -0.03  -0.05   0.02
  17   1     0.01  -0.02  -0.43    -0.01   0.02   0.45     0.00   0.00  -0.01
  18   1    -0.04   0.01   0.52    -0.01   0.00   0.08    -0.03   0.01   0.37
  19   1     0.29   0.01   0.10     0.08   0.00   0.03     0.32   0.02   0.12
  20   1     0.02  -0.03  -0.01     0.11  -0.17  -0.06    -0.18   0.28   0.10
  21   1     0.00   0.00  -0.02     0.00   0.00  -0.21    -0.01  -0.01   0.35
  22   1     0.00  -0.02  -0.33     0.00  -0.03  -0.33     0.00   0.01   0.10
  23   1     0.17   0.31  -0.11     0.22   0.40  -0.15    -0.11  -0.20   0.08
                     55                     56                     57
                        a                      a                      a 
 Frequencies --  2974.9680              2979.6764              2981.4379
 Red. masses --     1.8945                 1.5683                 1.4994
 Frc consts  --     0.0000                 0.0000                 0.0000
 IR Inten    --   146.6978               202.3877                23.7786
 Raman Activ --     0.0000                 0.0000                 0.0000
 Depolar     --     0.0000                 0.0000                 0.0000
 Atom AN      X      Y      Z        X      Y      Z        X      Y      Z
   1   6    -0.00   0.00   0.00    -0.00  -0.00   0.00    -0.00  -0.00   0.00
   2   6    -0.00   0.00  -0.00    -0.00  -0.00  -0.00     0.00   0.00   0.00
   3   8     0.00   0.00   0.00     0.00   0.00   0.00    -0.00  -0.00  -0.00
   4   6     0.00   0.00  -0.02     0.00  -0.00  -0.01    -0.00   0.00   0.01
   5   6     0.03  -0.03  -0.16     0.00  -0.00  -0.05    -0.02   0.03  -0.00
   6   6     0.06   0.10  -0.14    -0.00  -0.02  -0.09    -0.05  -0.10  -0.06
   7   6    -0.10  -0.00  -0.07     0.09   0.00  -0.10     0.06  -0.00  -0.02
   8   6     0.03  -0.06  -0.03    -0.05   0.08  -0.08     0.05  -0.07   0.04
   9   6     0.02   0.03  -0.01    -0.00  -0.00  -0.06     0.03   0.06   0.09
  10   1     0.00   0.00   0.00     0.00   0.00   0.00     0.00   0.00   0.00
  11   1    -0.00  -0.00  -0.00    -0.00  -0.00  -0.00    -0.00  -0.00   0.00
  12   1     0.00  -0.00   0.00     0.00   0.00  -0.00     0.00   0.00  -0.00
  13   1    -0.00   0.00   0.05    -0.00   0.00   0.03    -0.00   0.00  -0.01
  14   1    -0.02   0.00   0.55    -0.01   0.00   0.19    -0.01   0.01   0.05
  15   1    -0.07   0.11   0.02     0.00  -0.00  -0.01     0.07  -0.11  -0.04
  16   1    -0.21  -0.38   0.15     0.03   0.05  -0.04     0.20   0.37  -0.17
  17   1    -0.01   0.02   0.32    -0.01   0.01   0.36    -0.02  -0.00   0.41
  18   1    -0.02   0.00   0.08    -0.02   0.01   0.51    -0.00   0.00   0.18
  19   1     0.39   0.02   0.16    -0.30  -0.01  -0.15    -0.21  -0.01  -0.10
  20   1    -0.13   0.21   0.08     0.20  -0.32  -0.14    -0.18   0.28   0.12
  21   1     0.01  -0.01   0.01    -0.02   0.02   0.43     0.02  -0.01  -0.26
  22   1     0.00   0.01  -0.03    -0.01   0.01   0.23     0.02  -0.00  -0.44
  23   1    -0.08  -0.14   0.06     0.01   0.01  -0.01    -0.12  -0.22   0.11
                     58                     59                     60
                        a                      a                      a 
 Frequencies --  2985.2892              2990.2150              2998.4240
 Red. masses --     1.5104                 1.5430                 1.6272
 Frc consts  --     0.0000                 0.0000                 0.0000
 IR Inten    --   164.2811               138.4168                69.5736
 Raman Activ --     0.0000                 0.0000                 0.0000
 Depolar     --     0.0000                 0.0000                 0.0000
 Atom AN      X      Y      Z        X      Y      Z        X      Y      Z
   1   6    -0.00   0.00  -0.00    -0.00  -0.00   0.00    -0.01  -0.01   0.01
   2   6    -0.00   0.00   0.00     0.00   0.00   0.00    -0.00  -0.00  -0.00
   3   8    -0.00  -0.00  -0.00    -0.00  -0.00  -0.00     0.00   0.00   0.00
   4   6     0.00   0.00   0.00    -0.00   0.00   0.00    -0.00   0.01   0.01
   5   6     0.02  -0.03   0.01    -0.03   0.04   0.01    -0.12   0.19   0.03
   6   6     0.05   0.10   0.04    -0.03  -0.06  -0.01     0.02   0.06   0.02
   7   6     0.08   0.01  -0.00    -0.12  -0.00   0.03     0.03   0.00   0.00
   8   6    -0.03   0.05   0.01    -0.07   0.11  -0.01     0.01  -0.01   0.00
   9   6     0.05   0.10   0.09     0.03   0.07   0.04    -0.00  -0.01  -0.00
  10   1     0.00   0.00  -0.00     0.01   0.00   0.00     0.01   0.00   0.00
  11   1     0.00   0.00  -0.00    -0.00  -0.00  -0.00    -0.00  -0.00   0.00
  12   1    -0.00  -0.00   0.00     0.00   0.01  -0.01     0.01   0.04  -0.04
  13   1    -0.00   0.00  -0.00    -0.00   0.00  -0.00     0.00  -0.00  -0.02
  14   1     0.01  -0.01  -0.08    -0.01   0.01   0.02    -0.02   0.03   0.20
  15   1    -0.08   0.13   0.05     0.11  -0.17  -0.07     0.45  -0.71  -0.29
  16   1    -0.20  -0.36   0.17     0.12   0.23  -0.10    -0.11  -0.19   0.09
  17   1     0.02   0.00  -0.31    -0.01  -0.00   0.14     0.01   0.00  -0.15
  18   1     0.00   0.00   0.15     0.00  -0.01  -0.30     0.00   0.00   0.04
  19   1    -0.28  -0.01  -0.13     0.44   0.02   0.20    -0.10  -0.00  -0.05
  20   1     0.11  -0.17  -0.07     0.26  -0.42  -0.17    -0.02   0.03   0.01
  21   1    -0.00   0.01   0.06    -0.02   0.02   0.23     0.00  -0.00  -0.03
  22   1     0.02  -0.00  -0.51     0.01   0.00  -0.27    -0.00  -0.00   0.01
  23   1    -0.20  -0.36   0.17    -0.14  -0.24   0.11     0.02   0.03  -0.01
                     61                     62                     63
                        a                      a                      a 
 Frequencies --  3017.4644              3050.6120              3063.8150
 Red. masses --     1.7857                 1.4959                 1.8860
 Frc consts  --     0.0000                 0.0000                 0.0000
 IR Inten    --     2.9830                11.3752                17.6789
 Raman Activ --     0.0000                 0.0000                 0.0000
 Depolar     --     0.0000                 0.0000                 0.0000
 Atom AN      X      Y      Z        X      Y      Z        X      Y      Z
   1   6     0.06   0.20  -0.16     0.20   0.03  -0.04    -0.13  -0.10  -0.23
   2   6     0.00   0.01  -0.00     0.01  -0.00  -0.00    -0.00  -0.00  -0.01
   3   8    -0.00  -0.00  -0.00    -0.00   0.00   0.00     0.00   0.00   0.00
   4   6    -0.00   0.00  -0.00    -0.00  -0.00  -0.00     0.00   0.00  -0.00
   5   6    -0.01   0.01   0.00    -0.00   0.00  -0.00     0.00  -0.00  -0.00
   6   6     0.00   0.00   0.00    -0.00   0.00  -0.00    -0.00  -0.00  -0.00
   7   6     0.00  -0.00  -0.00    -0.00  -0.00   0.00    -0.00   0.00   0.00
   8   6    -0.00   0.00   0.00    -0.00   0.00  -0.00     0.00  -0.00  -0.00
   9   6     0.00   0.00  -0.00     0.00   0.00   0.00    -0.00   0.00  -0.00
  10   1    -0.11  -0.01  -0.03    -0.86  -0.30  -0.06     0.28   0.09  -0.01
  11   1     0.02   0.04   0.01     0.10   0.10   0.29     0.20   0.26   0.85
  12   1    -0.10  -0.74   0.59     0.04   0.11  -0.08    -0.02  -0.01  -0.03
  13   1     0.00   0.00   0.00    -0.00   0.00   0.00    -0.00   0.00   0.02
  14   1    -0.00   0.00   0.01    -0.00   0.00   0.00    -0.00  -0.00  -0.00
  15   1     0.03  -0.05  -0.02     0.00  -0.00  -0.00    -0.00   0.01   0.00
  16   1    -0.00  -0.01   0.00    -0.00  -0.00   0.00     0.00   0.00  -0.00
  17   1     0.00   0.00  -0.01    -0.00   0.00  -0.00    -0.00   0.00   0.00
  18   1    -0.00   0.00   0.00    -0.00  -0.00  -0.00     0.00  -0.00  -0.00
  19   1    -0.00  -0.00  -0.00     0.00   0.00   0.00     0.00   0.00   0.00
  20   1     0.00  -0.00  -0.00     0.00  -0.00  -0.00    -0.00   0.00   0.00
  21   1     0.00   0.00  -0.00    -0.00   0.00   0.00     0.00  -0.00   0.00
  22   1    -0.00   0.00   0.00     0.00   0.00  -0.00    -0.00  -0.00   0.00
  23   1    -0.00  -0.00   0.00    -0.00  -0.00   0.00    -0.00  -0.00   0.00
