      -----------------------------------------------------------      
     |                   =====================                   |     
     |                           x T B                           |     
     |                   =====================                   |     
     |                         S. Grimme                         |     
     |          Mulliken Center for Theoretical Chemistry        |     
     |                    University of Bonn                     |     
      -----------------------------------------------------------      

   * xtb version 6.7.1 (edcfbbe) compiled by 'albert@albert-system' on 2024-07-22

   xtb is free software: you can redistribute it and/or modify it under
   the terms of the GNU Lesser General Public License as published by
   the Free Software Foundation, either version 3 of the License, or
   (at your option) any later version.
   
   xtb is distributed in the hope that it will be useful,
   but WITHOUT ANY WARRANTY; without even the implied warranty of
   MERCHANTABILITY or FITNESS FOR A PARTICULAR PURPOSE.  See the
   GNU Lesser General Public License for more details.
   
   Cite this work as:
   * C. Bannwarth, E. Caldeweyher, S. Ehlert, A. Hansen, P. Pracht,
     J. Seibert, S. Spicher, S. Grimme, WIREs Comput. Mol. Sci., 2020, 11,
     e01493. DOI: 10.1002/wcms.1493
   
   for GFN2-xTB:
   * C. Bannwarth, S. Ehlert and S. Grimme., J. Chem. Theory Comput., 2019,
     15, 1652-1671. DOI: 10.1021/acs.jctc.8b01176
   for GFN1-xTB:
   * S. Grimme, C. Bannwarth, P. Shushkov, J. Chem. Theory Comput., 2017,
     13, 1989-2009. DOI: 10.1021/acs.jctc.7b00118
   for GFN0-xTB:
   * P. Pracht, E. Caldeweyher, S. Ehlert, S. Grimme, ChemRxiv, 2019, preprint.
     DOI: 10.26434/chemrxiv.8326202.v1
   for GFN-FF:
   * S. Spicher and S. Grimme, Angew. Chem. Int. Ed., 2020, 59, 15665-15673.
     DOI: 10.1002/anie.202004239
   
   for ALPB and GBSA implicit solvation:
   * S. Ehlert, M. Stahn, S. Spicher, S. Grimme, J. Chem. Theory Comput.,
     2021, 17, 4250-4261. DOI: 10.1021/acs.jctc.1c00471
   
   for ddCOSMO and CPCM-X implicit solvation:
   * M. Stahn, S. Ehlert, S. Grimme, J. Phys. Chem. A,
     2023, XX, XXXX-XXXX. DOI: 10.1021/acs.jpca.3c04382
   
   for DFT-D4:
   * E. Caldeweyher, C. Bannwarth and S. Grimme, J. Chem. Phys., 2017,
     147, 034112. DOI: 10.1063/1.4993215
   * E. Caldeweyher, S. Ehlert, A. Hansen, H. Neugebauer, S. Spicher,
     C. Bannwarth and S. Grimme, J. Chem. Phys., 2019, 150, 154122.
     DOI: 10.1063/1.5090222
   * E. Caldeweyher, J.-M. Mewes, S. Ehlert and S. Grimme, Phys. Chem. Chem. Phys.
     2020, 22, 8499-8512. DOI: 10.1039/D0CP00502A
   
   for sTDA-xTB:
   * S. Grimme and C. Bannwarth, J. Chem. Phys., 2016, 145, 054103.
     DOI: 10.1063/1.4959605
   
   in the mass-spec context:
   * V. Asgeirsson, C. Bauer and S. Grimme, Chem. Sci., 2017, 8, 4879.
     DOI: 10.1039/c7sc00601b
   * J. Koopman and S. Grimme, ACS Omega 2019, 4, 12, 15120-15133.
     DOI: 10.1021/acsomega.9b02011
   
   for metadynamics refer to:
   * S. Grimme, J. Chem. Theory Comput., 2019, 155, 2847-2862
     DOI: 10.1021/acs.jctc.9b00143
   
   for SPH calculations refer to:
   * S. Spicher and S. Grimme, J. Chem. Theory Comput., 2021, 17, 1701-1714
     DOI: 10.1021/acs.jctc.0c01306
   
   for ONIOM refer to:
   * C. Plett, A. Katbashev, S. Ehlert, S. Grimme, M. Bursch,
     Phys. Chem. Chem. Phys., 2023, 25, 17860-17868. DOI: 10.1039/D3CP02178E
   
   for DIPRO refer to:
   * J. Kohn, N. Gildemeister, S. Grimme, D. Fazzi, A. Hansen,
     J. Chem. Phys., 2023, just accepted.
   
   for PTB refer to:
   * S. Grimme, M. Mueller, A. Hansen, J. Chem. Phys., 2023, 158, 124111.
     DOI: 10.1063/5.0137838
   
   with help from (in alphabetical order)
   P. Atkinson, C. Bannwarth, F. Bohle, G. Brandenburg, E. Caldeweyher
   M. Checinski, S. Dohm, S. Ehlert, S. Ehrlich, I. Gerasimov, C. Hölzer
   A. Katbashev, J. Kohn, J. Koopman, C. Lavigne, S. Lehtola, F. März, M. Müller,
   F. Musil, H. Neugebauer, J. Pisarek, C. Plett, P. Pracht, F. Pultar,
   J. Seibert, P. Shushkov, S. Spicher, M. Stahn, M. Steiner, T. Strunk,
   J. Stückrath, T. Rose, and J. Unsleber
   
 * started run on 2025/04/03 at 21:38:16.816     
   ID    Z sym.   atoms
    1    6 C      1, 3, 5-7, 10, 13, 14
    2    7 N      2, 4, 9, 12
    3    8 O      8, 11
    4    1 H      15-24

           -------------------------------------------------
          |                Calculation Setup                |
           -------------------------------------------------

          program call               : /srv/scratch/z5358697/.xtb/bin/xtb solv.coord --gfn2 --sp --chrg 0 --norestart --parallel 1 --alpb water reference -I xtb_sp-xcontrol-inp
          hostname                   : k147
          coordinate file            : solv.coord
          omp threads                :                     1


           -------------------------------------------------
          |                 G F N 2 - x T B                 |
           -------------------------------------------------

        Reference                      10.1021/acs.jctc.8b01176
      * Hamiltonian:
        H0-scaling (s, p, d)           1.850000    2.230000    2.230000
        zeta-weighting                 0.500000
      * Dispersion:
        s8                             2.700000
        a1                             0.520000
        a2                             5.000000
        s9                             5.000000
      * Repulsion:
        kExp                           1.500000    1.000000
        rExp                           1.000000
      * Coulomb:
        alpha                          2.000000
        third order                    shell-resolved
        anisotropic                    true
        a3                             3.000000
        a5                             4.000000
        cn-shift                       1.200000
        cn-exp                         4.000000
        max-rad                        5.000000

      * Solvation model:               ALPB
        Solvent                        water
        Parameter file                 internal GFN2-xTB/ALPB
        Dielectric constant                8.0200E+01
        Reference state                gsolv=reference [X=1]
        Free energy shift                  2.8945E-03 Eh       1.8164E+00 kcal/mol
        Temperature                        2.9815E+02 K
        Density                            1.0000E+00 kg/L
        Solvent mass                       1.8000E+01 g/mol
        Interaction kernel             P16
        Born radius scaling (c1)           1.4744E+00
        Born radii integrator          GBOBC
        Born offset                        0.0000E+00 a0       0.0000E+00 AA
        H-bond correction              true
        Ion screening                  false
        Surface tension                    1.0000E-05 Eh       1.5569E+01 dyn/cm
        Grid points                               974 per atom

          ...................................................
          :                      SETUP                      :
          :.................................................:
          :  # basis functions                  66          :
          :  # atomic orbitals                  66          :
          :  # shells                           38          :
          :  # electrons                        74          :
          :  max. iterations                   250          :
          :  Hamiltonian                  GFN2-xTB          :
          :  restarted?                      false          :
          :  GBSA solvation                   true          :
          :  PC potential                    false          :
          :  electronic temp.          300.0000000     K    :
          :  accuracy                    1.0000000          :
          :  -> integral cutoff          0.2500000E+02      :
          :  -> integral neglect         0.1000000E-07      :
          :  -> SCF convergence          0.1000000E-05 Eh   :
          :  -> wf. convergence          0.1000000E-03 e    :
          :  Broyden damping             0.4000000          :
          :  net charge                          0          :
          :  unpaired electrons                  0          :
          ...................................................

 iter      E             dE          RMSdq      gap      omega  full diag
   1    -42.5449992 -0.425450E+02  0.443E+00    3.35       0.0  T
   2    -42.6725358 -0.127537E+00  0.257E+00    3.32       1.0  T
   3    -42.6777991 -0.526331E-02  0.133E+00    3.42       1.0  T
   4    -42.6780806 -0.281501E-03  0.306E-01    3.34       1.0  T
   5    -42.6790245 -0.943923E-03  0.878E-02    3.37       1.0  T
   6    -42.6790517 -0.271541E-04  0.453E-02    3.37       1.0  T
   7    -42.6790616 -0.988365E-05  0.208E-02    3.37       1.0  T
   8    -42.6790632 -0.160758E-05  0.443E-03    3.37       4.6  T
   9    -42.6790633 -0.780149E-07  0.203E-03    3.37      10.1  T
  10    -42.6790633 -0.314727E-08  0.776E-04    3.37      26.3  T
  11    -42.6790633 -0.429447E-08  0.228E-04    3.37      89.4  T

   *** convergence criteria satisfied after 11 iterations ***

         #    Occupation            Energy/Eh            Energy/eV
      -------------------------------------------------------------
         1        2.0000           -0.7306723             -19.8826
       ...           ...                  ...                  ...
        31        2.0000           -0.4572552             -12.4425
        32        2.0000           -0.4386175             -11.9354
        33        2.0000           -0.4381707             -11.9232
        34        2.0000           -0.4269285             -11.6173
        35        2.0000           -0.4233327             -11.5195
        36        2.0000           -0.4091464             -11.1334
        37        2.0000           -0.3931877             -10.6992 (HOMO)
        38                         -0.2693329              -7.3289 (LUMO)
        39                         -0.2295565              -6.2466
        40                         -0.2073670              -5.6427
        41                         -0.1277291              -3.4757
        42                         -0.0482797              -1.3138
       ...                                ...                  ...
        66                          0.6671939              18.1553
      -------------------------------------------------------------
                  HL-Gap            0.1238548 Eh            3.3703 eV
             Fermi-level           -0.3312603 Eh           -9.0141 eV

 SCC (total)                   0 d,  0 h,  0 min,  0.023 sec
 SCC setup                      ...        0 min,  0.002 sec (  6.752%)
 Dispersion                     ...        0 min,  0.000 sec (  0.771%)
 classical contributions        ...        0 min,  0.000 sec (  0.133%)
 integral evaluation            ...        0 min,  0.003 sec ( 12.264%)
 iterations                     ...        0 min,  0.010 sec ( 43.417%)
 molecular gradient             ...        0 min,  0.008 sec ( 35.905%)
 printout                       ...        0 min,  0.000 sec (  0.685%)

         :::::::::::::::::::::::::::::::::::::::::::::::::::::
         ::                     SUMMARY                     ::
         :::::::::::::::::::::::::::::::::::::::::::::::::::::
         :: total energy             -42.169666255291 Eh    ::
         :: total w/o Gsasa/hb       -42.167538381387 Eh    ::
         :: gradient norm              0.000165732412 Eh/a0 ::
         :: HOMO-LUMO gap              3.370260908537 eV    ::
         ::.................................................::
         :: SCC energy               -42.678964443128 Eh    ::
         :: -> isotropic ES            0.106925905587 Eh    ::
         :: -> anisotropic ES         -0.000792015469 Eh    ::
         :: -> anisotropic XC          0.013768920081 Eh    ::
         :: -> dispersion             -0.023170353063 Eh    ::
         :: -> Gsolv                  -0.019877801832 Eh    ::
         ::    -> Gelec               -0.017749927928 Eh    ::
         ::    -> Gsasa               -0.000764832560 Eh    ::
         ::    -> Ghb                 -0.004257590504 Eh    ::
         ::    -> Gshift               0.002894549160 Eh    ::
         :: repulsion energy           0.509298187837 Eh    ::
         :: add. restraining           0.000000000000 Eh    ::
         :: total charge               0.000000000000 e     ::
         :::::::::::::::::::::::::::::::::::::::::::::::::::::

           -------------------------------------------------
          |                Property Printout                |
           -------------------------------------------------

    * Orbital Energies and Occupations

         #    Occupation            Energy/Eh            Energy/eV
      -------------------------------------------------------------
         1        2.0000           -0.7306723             -19.8826
       ...           ...                  ...                  ...
        25        2.0000           -0.5032202             -13.6933
        26        2.0000           -0.5005837             -13.6216
        27        2.0000           -0.4976045             -13.5405
        28        2.0000           -0.4881281             -13.2826
        29        2.0000           -0.4782397             -13.0136
        30        2.0000           -0.4755617             -12.9407
        31        2.0000           -0.4572552             -12.4425
        32        2.0000           -0.4386175             -11.9354
        33        2.0000           -0.4381707             -11.9232
        34        2.0000           -0.4269285             -11.6173
        35        2.0000           -0.4233327             -11.5195
        36        2.0000           -0.4091464             -11.1334
        37        2.0000           -0.3931877             -10.6992 (HOMO)
        38                         -0.2693329              -7.3289 (LUMO)
        39                         -0.2295565              -6.2466
        40                         -0.2073670              -5.6427
        41                         -0.1277291              -3.4757
        42                         -0.0482797              -1.3138
        43                          0.0032569               0.0886
        44                          0.0187757               0.5109
        45                          0.0848064               2.3077
        46                          0.0954238               2.5966
        47                          0.1147882               3.1235
        48                          0.1458840               3.9697
       ...                                ...                  ...
        66                          0.6671939              18.1553
      -------------------------------------------------------------
                  HL-Gap            0.1238548 Eh            3.3703 eV
             Fermi-level           -0.3312603 Eh           -9.0141 eV

     #   Z          covCN         q      C6AA      α(0)
     1   6 C        3.689    -0.085    22.319     6.761
     2   7 N        2.834     0.017    20.945     6.797
     3   6 C        3.207     0.083    25.571     8.235
     4   7 N        1.894    -0.300    28.624     7.932
     5   6 C        3.193     0.124    24.814     8.123
     6   6 C        3.121    -0.038    28.768     8.784
     7   6 C        2.771     0.266    22.506     7.770
     8   8 O        0.858    -0.504    23.864     6.550
     9   7 N        2.749    -0.116    23.520     7.203
    10   6 C        2.729     0.318    21.594     7.608
    11   8 O        0.860    -0.511    24.022     6.571
    12   7 N        2.741    -0.065    22.508     7.046
    13   6 C        3.701    -0.070    22.010     6.709
    14   6 C        3.707    -0.054    21.694     6.658
    15   1 H        0.925     0.098     1.807     2.102
    16   1 H        0.925     0.099     1.797     2.097
    17   1 H        0.925     0.097     1.808     2.103
    18   1 H        0.926     0.092     1.859     2.132
    19   1 H        0.925     0.089     1.884     2.146
    20   1 H        0.925     0.089     1.889     2.149
    21   1 H        0.925     0.112     1.675     2.024
    22   1 H        0.925     0.094     1.840     2.121
    23   1 H        0.925     0.082     1.963     2.191
    24   1 H        0.925     0.081     1.965     2.192

 Mol. C6AA /au·bohr⁶  :       6657.133798
 Mol. C8AA /au·bohr⁸  :     152987.587640
 Mol. α(0) /au        :        124.004229


Wiberg/Mayer (AO) data.
largest (>0.10) Wiberg bond orders for each atom

 ---------------------------------------------------------------------------
     #   Z sym  total        # sym  WBO       # sym  WBO       # sym  WBO
 ---------------------------------------------------------------------------
     1   6 C    3.939 --     2 N    0.988    16 H    0.974    15 H    0.967
                            17 H    0.967
     2   7 N    3.666 --     3 C    1.324     6 C    1.160     1 C    0.988
                             4 N    0.101
     3   6 C    3.949 --     4 N    1.461     2 N    1.324    18 H    0.958
     4   7 N    3.002 --     3 C    1.461     5 C    1.298     2 N    0.101
     5   6 C    3.965 --     6 C    1.325     4 N    1.298    12 N    1.141
     6   6 C    3.944 --     5 C    1.325     2 N    1.160     7 C    1.135
     7   6 C    3.955 --     8 O    1.589     6 C    1.135     9 N    1.111
     8   8 O    1.938 --     7 C    1.589     9 N    0.139
     9   7 N    3.555 --    10 C    1.118     7 C    1.111    14 C    0.977
                             8 O    0.139    11 O    0.125
    10   6 C    3.960 --    11 O    1.572    12 N    1.162     9 N    1.118
    11   8 O    1.922 --    10 C    1.572    12 N    0.137     9 N    0.125
    12   7 N    3.582 --    10 C    1.162     5 C    1.141    13 C    0.971
                            11 O    0.137
    13   6 C    3.930 --    21 H    0.973    19 H    0.972    20 H    0.971
                            12 N    0.971
    14   6 C    3.940 --     9 N    0.977    22 H    0.973    23 H    0.973
                            24 H    0.973
    15   1 H    0.990 --     1 C    0.967
    16   1 H    0.990 --     1 C    0.974
    17   1 H    0.990 --     1 C    0.967
    18   1 H    0.991 --     3 C    0.958
    19   1 H    0.990 --    13 C    0.972
    20   1 H    0.991 --    13 C    0.971
    21   1 H    0.987 --    13 C    0.973
    22   1 H    0.991 --    14 C    0.973
    23   1 H    0.993 --    14 C    0.973
    24   1 H    0.993 --    14 C    0.973
 ---------------------------------------------------------------------------

Topologies differ in total number of bonds
Writing topology from bond orders to xtbtopo.mol

molecular dipole:
                 x           y           z       tot (Debye)
 q only:        1.962      -0.961      -0.002
   full:        2.094      -0.675       0.001       5.592
molecular quadrupole (traceless):
                xx          xy          yy          xz          yz          zz
 q only:        5.974      -0.914      -3.440       0.016       0.008      -2.534
  q+dip:        5.867      -1.611      -8.443       0.007      -0.004       2.577
   full:        5.113      -1.282      -9.074       0.009      -0.004       3.961


           -------------------------------------------------
          | TOTAL ENERGY              -42.169666255291 Eh   |
          | GRADIENT NORM               0.000165732412 Eh/α |
          | HOMO-LUMO GAP               3.370260908537 eV   |
           -------------------------------------------------

------------------------------------------------------------------------
 * finished run on 2025/04/03 at 21:38:16.877     
------------------------------------------------------------------------
 total:
 * wall-time:     0 d,  0 h,  0 min,  0.061 sec
 *  cpu-time:     0 d,  0 h,  0 min,  0.033 sec
 * ratio c/w:     0.544 speedup
 SCF:
 * wall-time:     0 d,  0 h,  0 min,  0.024 sec
 *  cpu-time:     0 d,  0 h,  0 min,  0.023 sec
 * ratio c/w:     0.993 speedup

