      -----------------------------------------------------------      
     |                   =====================                   |     
     |                           x T B                           |     
     |                   =====================                   |     
     |                         S. Grimme                         |     
     |          Mulliken Center for Theoretical Chemistry        |     
     |                    University of Bonn                     |     
      -----------------------------------------------------------      

   * xtb version 6.7.1 (edcfbbe) compiled by 'albert@albert-system' on 2024-07-22

   xtb is free software: you can redistribute it and/or modify it under
   the terms of the GNU Lesser General Public License as published by
   the Free Software Foundation, either version 3 of the License, or
   (at your option) any later version.
   
   xtb is distributed in the hope that it will be useful,
   but WITHOUT ANY WARRANTY; without even the implied warranty of
   MERCHANTABILITY or FITNESS FOR A PARTICULAR PURPOSE.  See the
   GNU Lesser General Public License for more details.
   
   Cite this work as:
   * C. Bannwarth, E. Caldeweyher, S. Ehlert, A. Hansen, P. Pracht,
     J. Seibert, S. Spicher, S. Grimme, WIREs Comput. Mol. Sci., 2020, 11,
     e01493. DOI: 10.1002/wcms.1493
   
   for GFN2-xTB:
   * C. Bannwarth, S. Ehlert and S. Grimme., J. Chem. Theory Comput., 2019,
     15, 1652-1671. DOI: 10.1021/acs.jctc.8b01176
   for GFN1-xTB:
   * S. Grimme, C. Bannwarth, P. Shushkov, J. Chem. Theory Comput., 2017,
     13, 1989-2009. DOI: 10.1021/acs.jctc.7b00118
   for GFN0-xTB:
   * P. Pracht, E. Caldeweyher, S. Ehlert, S. Grimme, ChemRxiv, 2019, preprint.
     DOI: 10.26434/chemrxiv.8326202.v1
   for GFN-FF:
   * S. Spicher and S. Grimme, Angew. Chem. Int. Ed., 2020, 59, 15665-15673.
     DOI: 10.1002/anie.202004239
   
   for ALPB and GBSA implicit solvation:
   * S. Ehlert, M. Stahn, S. Spicher, S. Grimme, J. Chem. Theory Comput.,
     2021, 17, 4250-4261. DOI: 10.1021/acs.jctc.1c00471
   
   for ddCOSMO and CPCM-X implicit solvation:
   * M. Stahn, S. Ehlert, S. Grimme, J. Phys. Chem. A,
     2023, XX, XXXX-XXXX. DOI: 10.1021/acs.jpca.3c04382
   
   for DFT-D4:
   * E. Caldeweyher, C. Bannwarth and S. Grimme, J. Chem. Phys., 2017,
     147, 034112. DOI: 10.1063/1.4993215
   * E. Caldeweyher, S. Ehlert, A. Hansen, H. Neugebauer, S. Spicher,
     C. Bannwarth and S. Grimme, J. Chem. Phys., 2019, 150, 154122.
     DOI: 10.1063/1.5090222
   * E. Caldeweyher, J.-M. Mewes, S. Ehlert and S. Grimme, Phys. Chem. Chem. Phys.
     2020, 22, 8499-8512. DOI: 10.1039/D0CP00502A
   
   for sTDA-xTB:
   * S. Grimme and C. Bannwarth, J. Chem. Phys., 2016, 145, 054103.
     DOI: 10.1063/1.4959605
   
   in the mass-spec context:
   * V. Asgeirsson, C. Bauer and S. Grimme, Chem. Sci., 2017, 8, 4879.
     DOI: 10.1039/c7sc00601b
   * J. Koopman and S. Grimme, ACS Omega 2019, 4, 12, 15120-15133.
     DOI: 10.1021/acsomega.9b02011
   
   for metadynamics refer to:
   * S. Grimme, J. Chem. Theory Comput., 2019, 155, 2847-2862
     DOI: 10.1021/acs.jctc.9b00143
   
   for SPH calculations refer to:
   * S. Spicher and S. Grimme, J. Chem. Theory Comput., 2021, 17, 1701-1714
     DOI: 10.1021/acs.jctc.0c01306
   
   for ONIOM refer to:
   * C. Plett, A. Katbashev, S. Ehlert, S. Grimme, M. Bursch,
     Phys. Chem. Chem. Phys., 2023, 25, 17860-17868. DOI: 10.1039/D3CP02178E
   
   for DIPRO refer to:
   * J. Kohn, N. Gildemeister, S. Grimme, D. Fazzi, A. Hansen,
     J. Chem. Phys., 2023, just accepted.
   
   for PTB refer to:
   * S. Grimme, M. Mueller, A. Hansen, J. Chem. Phys., 2023, 158, 124111.
     DOI: 10.1063/5.0137838
   
   with help from (in alphabetical order)
   P. Atkinson, C. Bannwarth, F. Bohle, G. Brandenburg, E. Caldeweyher
   M. Checinski, S. Dohm, S. Ehlert, S. Ehrlich, I. Gerasimov, C. Hölzer
   A. Katbashev, J. Kohn, J. Koopman, C. Lavigne, S. Lehtola, F. März, M. Müller,
   F. Musil, H. Neugebauer, J. Pisarek, C. Plett, P. Pracht, F. Pultar,
   J. Seibert, P. Shushkov, S. Spicher, M. Stahn, M. Steiner, T. Strunk,
   J. Stückrath, T. Rose, and J. Unsleber
   
 * started run on 2025/04/06 at 20:05:02.080     
   ID    Z sym.   atoms
    1    6 C      1-5, 7, 8, 11-13
    2    1 H      6, 9, 14-27
    3    8 O      10

           -------------------------------------------------
          |                Calculation Setup                |
           -------------------------------------------------

          program call               : /srv/scratch/z5358697/.xtb/bin/xtb solv.coord --gfn2 --sp --chrg 0 --norestart --parallel 1 --alpb water reference -I xtb_sp-xcontrol-inp
          hostname                   : k139
          coordinate file            : solv.coord
          omp threads                :                     1


           -------------------------------------------------
          |                 G F N 2 - x T B                 |
           -------------------------------------------------

        Reference                      10.1021/acs.jctc.8b01176
      * Hamiltonian:
        H0-scaling (s, p, d)           1.850000    2.230000    2.230000
        zeta-weighting                 0.500000
      * Dispersion:
        s8                             2.700000
        a1                             0.520000
        a2                             5.000000
        s9                             5.000000
      * Repulsion:
        kExp                           1.500000    1.000000
        rExp                           1.000000
      * Coulomb:
        alpha                          2.000000
        third order                    shell-resolved
        anisotropic                    true
        a3                             3.000000
        a5                             4.000000
        cn-shift                       1.200000
        cn-exp                         4.000000
        max-rad                        5.000000

      * Solvation model:               ALPB
        Solvent                        water
        Parameter file                 internal GFN2-xTB/ALPB
        Dielectric constant                8.0200E+01
        Reference state                gsolv=reference [X=1]
        Free energy shift                  2.8945E-03 Eh       1.8164E+00 kcal/mol
        Temperature                        2.9815E+02 K
        Density                            1.0000E+00 kg/L
        Solvent mass                       1.8000E+01 g/mol
        Interaction kernel             P16
        Born radius scaling (c1)           1.4744E+00
        Born radii integrator          GBOBC
        Born offset                        0.0000E+00 a0       0.0000E+00 AA
        H-bond correction              true
        Ion screening                  false
        Surface tension                    1.0000E-05 Eh       1.5569E+01 dyn/cm
        Grid points                               974 per atom

          ...................................................
          :                      SETUP                      :
          :.................................................:
          :  # basis functions                  60          :
          :  # atomic orbitals                  60          :
          :  # shells                           38          :
          :  # electrons                        62          :
          :  max. iterations                   250          :
          :  Hamiltonian                  GFN2-xTB          :
          :  restarted?                      false          :
          :  GBSA solvation                   true          :
          :  PC potential                    false          :
          :  electronic temp.          300.0000000     K    :
          :  accuracy                    1.0000000          :
          :  -> integral cutoff          0.2500000E+02      :
          :  -> integral neglect         0.1000000E-07      :
          :  -> SCF convergence          0.1000000E-05 Eh   :
          :  -> wf. convergence          0.1000000E-03 e    :
          :  Broyden damping             0.4000000          :
          :  net charge                          0          :
          :  unpaired electrons                  0          :
          ...................................................

 iter      E             dE          RMSdq      gap      omega  full diag
   1    -34.0723060 -0.340723E+02  0.333E+00    4.85       0.0  T
   2    -34.0977549 -0.254489E-01  0.192E+00    4.78       1.0  T
   3    -34.0908728  0.688205E-02  0.877E-01    4.77       1.0  T
   4    -34.1010448 -0.101720E-01  0.292E-01    4.73       1.0  T
   5    -34.1019355 -0.890628E-03  0.637E-02    4.74       1.0  T
   6    -34.1019496 -0.141223E-04  0.354E-02    4.73       1.0  T
   7    -34.1019520 -0.244940E-05  0.769E-03    4.73       2.5  T
   8    -34.1019523 -0.320245E-06  0.297E-03    4.73       6.5  T
   9    -34.1019524 -0.116528E-07  0.164E-03    4.73      11.7  T
  10    -34.1019524 -0.161063E-07  0.871E-04    4.73      22.1  T
  11    -34.1019524 -0.789549E-08  0.258E-04    4.73      74.5  T

   *** convergence criteria satisfied after 11 iterations ***

         #    Occupation            Energy/Eh            Energy/eV
      -------------------------------------------------------------
         1        2.0000           -0.6821633             -18.5626
       ...           ...                  ...                  ...
        25        2.0000           -0.4388953             -11.9430
        26        2.0000           -0.4344961             -11.8232
        27        2.0000           -0.4155105             -11.3066
        28        2.0000           -0.4102521             -11.1635
        29        2.0000           -0.3984311             -10.8419
        30        2.0000           -0.3873294             -10.5398
        31        2.0000           -0.3754705             -10.2171 (HOMO)
        32                         -0.2014689              -5.4822 (LUMO)
        33                         -0.1876369              -5.1059
        34                          0.0509229               1.3857
        35                          0.0699846               1.9044
        36                          0.0807240               2.1966
       ...                                ...                  ...
        60                          0.6399871              17.4149
      -------------------------------------------------------------
                  HL-Gap            0.1740016 Eh            4.7348 eV
             Fermi-level           -0.2884697 Eh           -7.8497 eV

 SCC (total)                   0 d,  0 h,  0 min,  0.022 sec
 SCC setup                      ...        0 min,  0.001 sec (  6.786%)
 Dispersion                     ...        0 min,  0.000 sec (  0.727%)
 classical contributions        ...        0 min,  0.000 sec (  0.164%)
 integral evaluation            ...        0 min,  0.003 sec ( 12.973%)
 iterations                     ...        0 min,  0.011 sec ( 48.638%)
 molecular gradient             ...        0 min,  0.007 sec ( 30.139%)
 printout                       ...        0 min,  0.000 sec (  0.518%)

         :::::::::::::::::::::::::::::::::::::::::::::::::::::
         ::                     SUMMARY                     ::
         :::::::::::::::::::::::::::::::::::::::::::::::::::::
         :: total energy             -33.603307021764 Eh    ::
         :: total w/o Gsasa/hb       -33.600345336083 Eh    ::
         :: gradient norm              0.000041375288 Eh/a0 ::
         :: HOMO-LUMO gap              4.734823848040 eV    ::
         ::.................................................::
         :: SCC energy               -34.101740023781 Eh    ::
         :: -> isotropic ES            0.037833882303 Eh    ::
         :: -> anisotropic ES          0.006901419358 Eh    ::
         :: -> anisotropic XC          0.015721047164 Eh    ::
         :: -> dispersion             -0.023025553764 Eh    ::
         :: -> Gsolv                  -0.007247129530 Eh    ::
         ::    -> Gelec               -0.004285443850 Eh    ::
         ::    -> Gsasa               -0.000406957085 Eh    ::
         ::    -> Ghb                 -0.005449277755 Eh    ::
         ::    -> Gshift               0.002894549160 Eh    ::
         :: repulsion energy           0.498433002017 Eh    ::
         :: add. restraining           0.000000000000 Eh    ::
         :: total charge               0.000000000000 e     ::
         :::::::::::::::::::::::::::::::::::::::::::::::::::::

           -------------------------------------------------
          |                Property Printout                |
           -------------------------------------------------

    * Orbital Energies and Occupations

         #    Occupation            Energy/Eh            Energy/eV
      -------------------------------------------------------------
         1        2.0000           -0.6821633             -18.5626
       ...           ...                  ...                  ...
        19        2.0000           -0.4787230             -13.0267
        20        2.0000           -0.4724950             -12.8572
        21        2.0000           -0.4607445             -12.5375
        22        2.0000           -0.4557967             -12.4029
        23        2.0000           -0.4532061             -12.3324
        24        2.0000           -0.4462826             -12.1440
        25        2.0000           -0.4388953             -11.9430
        26        2.0000           -0.4344961             -11.8232
        27        2.0000           -0.4155105             -11.3066
        28        2.0000           -0.4102521             -11.1635
        29        2.0000           -0.3984311             -10.8419
        30        2.0000           -0.3873294             -10.5398
        31        2.0000           -0.3754705             -10.2171 (HOMO)
        32                         -0.2014689              -5.4822 (LUMO)
        33                         -0.1876369              -5.1059
        34                          0.0509229               1.3857
        35                          0.0699846               1.9044
        36                          0.0807240               2.1966
        37                          0.0841543               2.2900
        38                          0.1023219               2.7843
        39                          0.1064667               2.8971
        40                          0.1163499               3.1660
        41                          0.1364096               3.7119
        42                          0.1581325               4.3030
       ...                                ...                  ...
        60                          0.6399871              17.4149
      -------------------------------------------------------------
                  HL-Gap            0.1740016 Eh            4.7348 eV
             Fermi-level           -0.2884697 Eh           -7.8497 eV

     #   Z          covCN         q      C6AA      α(0)
     1   6 C        3.756    -0.120    22.860     6.817
     2   6 C        2.949    -0.022    28.559     8.765
     3   6 C        2.902    -0.046    29.150     8.853
     4   6 C        3.812    -0.059    21.624     6.619
     5   6 C        3.857    -0.022    20.924     6.506
     6   1 H        0.924     0.037     2.496     2.471
     7   6 C        3.808    -0.064    21.725     6.635
     8   6 C        3.737     0.117    18.746     6.178
     9   1 H        0.923     0.008     2.915     2.670
    10   8 O        1.654    -0.511    23.131     6.492
    11   6 C        2.941     0.012    27.740     8.638
    12   6 C        2.845    -0.119    31.018     9.128
    13   6 C        3.759    -0.119    22.826     6.811
    14   1 H        0.925     0.048     2.345     2.395
    15   1 H        0.925     0.052     2.294     2.368
    16   1 H        0.925     0.051     2.304     2.374
    17   1 H        0.926     0.027     2.634     2.538
    18   1 H        0.924     0.055     2.263     2.353
    19   1 H        0.924     0.037     2.483     2.464
    20   1 H        0.924     0.042     2.420     2.433
    21   1 H        0.925     0.042     2.416     2.431
    22   1 H        0.805     0.344     0.602     1.219
    23   1 H        0.926     0.032     2.562     2.503
    24   1 H        0.926     0.026     2.645     2.543
    25   1 H        0.925     0.055     2.261     2.351
    26   1 H        0.925     0.049     2.336     2.390
    27   1 H        0.925     0.048     2.340     2.392

 Mol. C6AA /au·bohr⁶  :       6120.907915
 Mol. C8AA /au·bohr⁸  :     137306.994832
 Mol. α(0) /au        :        119.336660


Wiberg/Mayer (AO) data.
largest (>0.10) Wiberg bond orders for each atom

 ---------------------------------------------------------------------------
     #   Z sym  total        # sym  WBO       # sym  WBO       # sym  WBO
 ---------------------------------------------------------------------------
     1   6 C    3.996 --     2 C    1.029    14 H    0.984    16 H    0.971
                            15 H    0.969
     2   6 C    3.985 --     3 C    1.872     1 C    1.029     8 C    0.984
     3   6 C    3.990 --     2 C    1.872     4 C    1.031    17 H    0.966
     4   6 C    3.997 --     3 C    1.031    19 H    0.977     5 C    0.963
                            18 H    0.956
     5   6 C    3.994 --    11 C    1.001     7 C    0.986     6 H    0.970
                             4 C    0.963
     6   1 H    0.999 --     5 C    0.970
     7   6 C    3.996 --     5 C    0.986     8 C    0.983    20 H    0.976
                            21 H    0.974
     8   6 C    3.952 --     2 C    0.984     7 C    0.983    10 O    0.971
                             9 H    0.962
     9   1 H    0.999 --     8 C    0.962
    10   8 O    1.917 --     8 C    0.971    22 H    0.868
    11   6 C    3.986 --    12 C    1.927    13 C    1.024     5 C    1.001
    12   6 C    3.986 --    11 C    1.927    24 H    0.976    23 H    0.976
    13   6 C    3.996 --    11 C    1.024    27 H    0.981    25 H    0.974
                            26 H    0.965
    14   1 H    0.997 --     1 C    0.984
    15   1 H    0.997 --     1 C    0.969
    16   1 H    0.997 --     1 C    0.971
    17   1 H    0.999 --     3 C    0.966
    18   1 H    0.997 --     4 C    0.956
    19   1 H    0.999 --     4 C    0.977
    20   1 H    0.998 --     7 C    0.976
    21   1 H    0.998 --     7 C    0.974
    22   1 H    0.882 --    10 O    0.868
    23   1 H    0.998 --    12 C    0.976
    24   1 H    0.999 --    12 C    0.976
    25   1 H    0.997 --    13 C    0.974
    26   1 H    0.998 --    13 C    0.965
    27   1 H    0.998 --    13 C    0.981
 ---------------------------------------------------------------------------

Topologies differ in total number of bonds
Writing topology from bond orders to xtbtopo.mol

molecular dipole:
                 x           y           z       tot (Debye)
 q only:       -0.605       0.459       0.476
   full:       -0.765       0.467       0.565       2.694
molecular quadrupole (traceless):
                xx          xy          yy          xz          yz          zz
 q only:        3.507       0.189      -3.183       0.281      -1.016      -0.324
  q+dip:        5.273       1.023      -3.531      -0.801      -1.327      -1.742
   full:        5.072       0.683      -3.875       0.028      -1.519      -1.197


           -------------------------------------------------
          | TOTAL ENERGY              -33.603307021764 Eh   |
          | GRADIENT NORM               0.000041375288 Eh/α |
          | HOMO-LUMO GAP               4.734823848040 eV   |
           -------------------------------------------------

------------------------------------------------------------------------
 * finished run on 2025/04/06 at 20:05:02.157     
------------------------------------------------------------------------
 total:
 * wall-time:     0 d,  0 h,  0 min,  0.077 sec
 *  cpu-time:     0 d,  0 h,  0 min,  0.029 sec
 * ratio c/w:     0.380 speedup
 SCF:
 * wall-time:     0 d,  0 h,  0 min,  0.022 sec
 *  cpu-time:     0 d,  0 h,  0 min,  0.020 sec
 * ratio c/w:     0.898 speedup

