      -----------------------------------------------------------      
     |                   =====================                   |     
     |                           x T B                           |     
     |                   =====================                   |     
     |                         S. Grimme                         |     
     |          Mulliken Center for Theoretical Chemistry        |     
     |                    University of Bonn                     |     
      -----------------------------------------------------------      

   * xtb version 6.7.1 (edcfbbe) compiled by 'albert@albert-system' on 2024-07-22

   xtb is free software: you can redistribute it and/or modify it under
   the terms of the GNU Lesser General Public License as published by
   the Free Software Foundation, either version 3 of the License, or
   (at your option) any later version.
   
   xtb is distributed in the hope that it will be useful,
   but WITHOUT ANY WARRANTY; without even the implied warranty of
   MERCHANTABILITY or FITNESS FOR A PARTICULAR PURPOSE.  See the
   GNU Lesser General Public License for more details.
   
   Cite this work as:
   * C. Bannwarth, E. Caldeweyher, S. Ehlert, A. Hansen, P. Pracht,
     J. Seibert, S. Spicher, S. Grimme, WIREs Comput. Mol. Sci., 2020, 11,
     e01493. DOI: 10.1002/wcms.1493
   
   for GFN2-xTB:
   * C. Bannwarth, S. Ehlert and S. Grimme., J. Chem. Theory Comput., 2019,
     15, 1652-1671. DOI: 10.1021/acs.jctc.8b01176
   for GFN1-xTB:
   * S. Grimme, C. Bannwarth, P. Shushkov, J. Chem. Theory Comput., 2017,
     13, 1989-2009. DOI: 10.1021/acs.jctc.7b00118
   for GFN0-xTB:
   * P. Pracht, E. Caldeweyher, S. Ehlert, S. Grimme, ChemRxiv, 2019, preprint.
     DOI: 10.26434/chemrxiv.8326202.v1
   for GFN-FF:
   * S. Spicher and S. Grimme, Angew. Chem. Int. Ed., 2020, 59, 15665-15673.
     DOI: 10.1002/anie.202004239
   
   for ALPB and GBSA implicit solvation:
   * S. Ehlert, M. Stahn, S. Spicher, S. Grimme, J. Chem. Theory Comput.,
     2021, 17, 4250-4261. DOI: 10.1021/acs.jctc.1c00471
   
   for ddCOSMO and CPCM-X implicit solvation:
   * M. Stahn, S. Ehlert, S. Grimme, J. Phys. Chem. A,
     2023, XX, XXXX-XXXX. DOI: 10.1021/acs.jpca.3c04382
   
   for DFT-D4:
   * E. Caldeweyher, C. Bannwarth and S. Grimme, J. Chem. Phys., 2017,
     147, 034112. DOI: 10.1063/1.4993215
   * E. Caldeweyher, S. Ehlert, A. Hansen, H. Neugebauer, S. Spicher,
     C. Bannwarth and S. Grimme, J. Chem. Phys., 2019, 150, 154122.
     DOI: 10.1063/1.5090222
   * E. Caldeweyher, J.-M. Mewes, S. Ehlert and S. Grimme, Phys. Chem. Chem. Phys.
     2020, 22, 8499-8512. DOI: 10.1039/D0CP00502A
   
   for sTDA-xTB:
   * S. Grimme and C. Bannwarth, J. Chem. Phys., 2016, 145, 054103.
     DOI: 10.1063/1.4959605
   
   in the mass-spec context:
   * V. Asgeirsson, C. Bauer and S. Grimme, Chem. Sci., 2017, 8, 4879.
     DOI: 10.1039/c7sc00601b
   * J. Koopman and S. Grimme, ACS Omega 2019, 4, 12, 15120-15133.
     DOI: 10.1021/acsomega.9b02011
   
   for metadynamics refer to:
   * S. Grimme, J. Chem. Theory Comput., 2019, 155, 2847-2862
     DOI: 10.1021/acs.jctc.9b00143
   
   for SPH calculations refer to:
   * S. Spicher and S. Grimme, J. Chem. Theory Comput., 2021, 17, 1701-1714
     DOI: 10.1021/acs.jctc.0c01306
   
   for ONIOM refer to:
   * C. Plett, A. Katbashev, S. Ehlert, S. Grimme, M. Bursch,
     Phys. Chem. Chem. Phys., 2023, 25, 17860-17868. DOI: 10.1039/D3CP02178E
   
   for DIPRO refer to:
   * J. Kohn, N. Gildemeister, S. Grimme, D. Fazzi, A. Hansen,
     J. Chem. Phys., 2023, just accepted.
   
   for PTB refer to:
   * S. Grimme, M. Mueller, A. Hansen, J. Chem. Phys., 2023, 158, 124111.
     DOI: 10.1063/5.0137838
   
   with help from (in alphabetical order)
   P. Atkinson, C. Bannwarth, F. Bohle, G. Brandenburg, E. Caldeweyher
   M. Checinski, S. Dohm, S. Ehlert, S. Ehrlich, I. Gerasimov, C. Hölzer
   A. Katbashev, J. Kohn, J. Koopman, C. Lavigne, S. Lehtola, F. März, M. Müller,
   F. Musil, H. Neugebauer, J. Pisarek, C. Plett, P. Pracht, F. Pultar,
   J. Seibert, P. Shushkov, S. Spicher, M. Stahn, M. Steiner, T. Strunk,
   J. Stückrath, T. Rose, and J. Unsleber
   
 * started run on 2025/04/03 at 21:16:10.507     
   ID    Z sym.   atoms
    1    6 C      1-3, 5
    2    7 N      4
    3    1 H      6-14

           -------------------------------------------------
          |                Calculation Setup                |
           -------------------------------------------------

          program call               : /srv/scratch/z5358697/.xtb/bin/xtb xtb_rrho.coord --gfn2 --ohess vtight --chrg 0 --enso --norestart -I rrho-xcontrol-inp --parallel 1 --alpb water
          hostname                   : k163
          coordinate file            : xtb_rrho.coord
          omp threads                :                     1


           -------------------------------------------------
          |                 G F N 2 - x T B                 |
           -------------------------------------------------

        Reference                      10.1021/acs.jctc.8b01176
      * Hamiltonian:
        H0-scaling (s, p, d)           1.850000    2.230000    2.230000
        zeta-weighting                 0.500000
      * Dispersion:
        s8                             2.700000
        a1                             0.520000
        a2                             5.000000
        s9                             5.000000
      * Repulsion:
        kExp                           1.500000    1.000000
        rExp                           1.000000
      * Coulomb:
        alpha                          2.000000
        third order                    shell-resolved
        anisotropic                    true
        a3                             3.000000
        a5                             4.000000
        cn-shift                       1.200000
        cn-exp                         4.000000
        max-rad                        5.000000

      * Solvation model:               ALPB
        Solvent                        water
        Parameter file                 internal GFN2-xTB/ALPB
        Dielectric constant                8.0200E+01
        Reference state                gsolv [1 M gas/solution]
        Free energy shift                  1.0808E-03 Eh       6.7819E-01 kcal/mol
        Temperature                        2.9815E+02 K
        Density                            1.0000E+00 kg/L
        Solvent mass                       1.8000E+01 g/mol
        Interaction kernel             P16
        Born radius scaling (c1)           1.4744E+00
        Born radii integrator          GBOBC
        Born offset                        0.0000E+00 a0       0.0000E+00 AA
        H-bond correction              true
        Ion screening                  false
        Surface tension                    1.0000E-05 Eh       1.5569E+01 dyn/cm
        Grid points                               974 per atom

          ...................................................
          :                      SETUP                      :
          :.................................................:
          :  # basis functions                  29          :
          :  # atomic orbitals                  29          :
          :  # shells                           19          :
          :  # electrons                        30          :
          :  max. iterations                   250          :
          :  Hamiltonian                  GFN2-xTB          :
          :  restarted?                      false          :
          :  GBSA solvation                   true          :
          :  PC potential                    false          :
          :  electronic temp.          300.0000000     K    :
          :  accuracy                    1.0000000          :
          :  -> integral cutoff          0.2500000E+02      :
          :  -> integral neglect         0.1000000E-07      :
          :  -> SCF convergence          0.1000000E-05 Eh   :
          :  -> wf. convergence          0.1000000E-03 e    :
          :  Broyden damping             0.4000000          :
          :  net charge                          0          :
          :  unpaired electrons                  0          :
          ...................................................

 iter      E             dE          RMSdq      gap      omega  full diag
   1    -16.2622368 -0.162622E+02  0.269E+00   11.08       0.0  T
   2    -16.2744295 -0.121927E-01  0.158E+00   10.98       1.0  T
   3    -16.2751024 -0.672941E-03  0.482E-01   10.97       1.0  T
   4    -16.2751725 -0.700613E-04  0.839E-02   10.91       1.0  T
   5    -16.2751802 -0.770561E-05  0.337E-02   10.89       1.0  T
   6    -16.2751804 -0.197106E-06  0.672E-03   10.89       4.0  T
   7    -16.2751805 -0.124817E-06  0.185E-03   10.89      14.4  T
   8    -16.2751805 -0.289199E-08  0.393E-04   10.89      68.0  T
   9    -16.2751805 -0.323297E-09  0.186E-04   10.89     143.7  T

   *** convergence criteria satisfied after 9 iterations ***

         #    Occupation            Energy/Eh            Energy/eV
      -------------------------------------------------------------
         1        2.0000           -0.6440240             -17.5248
       ...           ...                  ...                  ...
         9        2.0000           -0.4952836             -13.4774
        10        2.0000           -0.4620170             -12.5721
        11        2.0000           -0.4509201             -12.2702
        12        2.0000           -0.4441621             -12.0863
        13        2.0000           -0.4353811             -11.8473
        14        2.0000           -0.4223932             -11.4939
        15        2.0000           -0.3675046             -10.0003 (HOMO)
        16                          0.0327724               0.8918 (LUMO)
        17                          0.0395461               1.0761
        18                          0.0833681               2.2686
        19                          0.1019165               2.7733
        20                          0.1077892               2.9331
       ...                                ...                  ...
        29                          0.3331922               9.0666
      -------------------------------------------------------------
                  HL-Gap            0.4002770 Eh           10.8921 eV
             Fermi-level           -0.1673661 Eh           -4.5543 eV

 SCC (total)                   0 d,  0 h,  0 min,  0.019 sec
 SCC setup                      ...        0 min,  0.001 sec (  3.702%)
 Dispersion                     ...        0 min,  0.000 sec (  0.318%)
 classical contributions        ...        0 min,  0.000 sec (  0.091%)
 integral evaluation            ...        0 min,  0.001 sec (  3.454%)
 iterations                     ...        0 min,  0.015 sec ( 82.704%)
 molecular gradient             ...        0 min,  0.002 sec (  9.092%)
 printout                       ...        0 min,  0.000 sec (  0.556%)

         :::::::::::::::::::::::::::::::::::::::::::::::::::::
         ::                     SUMMARY                     ::
         :::::::::::::::::::::::::::::::::::::::::::::::::::::
         :: total energy             -16.073138426882 Eh    ::
         :: total w/o Gsasa/hb       -16.071170850866 Eh    ::
         :: gradient norm              0.024857911362 Eh/a0 ::
         :: HOMO-LUMO gap             10.892090500551 eV    ::
         ::.................................................::
         :: SCC energy               -16.275173010034 Eh    ::
         :: -> isotropic ES            0.011467770997 Eh    ::
         :: -> anisotropic ES          0.004879978419 Eh    ::
         :: -> anisotropic XC          0.013133786797 Eh    ::
         :: -> dispersion             -0.007480164165 Eh    ::
         :: -> Gsolv                  -0.003065933422 Eh    ::
         ::    -> Gelec               -0.001098357407 Eh    ::
         ::    -> Gsasa               -0.001911111375 Eh    ::
         ::    -> Ghb                 -0.001137224338 Eh    ::
         ::    -> Gshift               0.001080759698 Eh    ::
         :: repulsion energy           0.202034583152 Eh    ::
         :: add. restraining           0.000000000000 Eh    ::
         :: total charge               0.000000000000 e     ::
         :::::::::::::::::::::::::::::::::::::::::::::::::::::

      ----------------------------------------------------------- 
     |                   =====================                   |
     |                        A N C O P T                        |
     |                   =====================                   |
     |               Approximate Normal Coordinate               |
     |                Rational Function Optimizer                |
      ----------------------------------------------------------- 
      ----------------------------------------------------------- 
     |                   =====================                   |
     |                        A N C O P T                        |
     |                   =====================                   |
     |               Approximate Normal Coordinate               |
     |                Rational Function Optimizer                |
      ----------------------------------------------------------- 

          ...................................................
          :                      SETUP                      :
          :.................................................:
          :   optimization level         verytight          :
          :   max. optcycles                   280          :
          :   ANC micro-cycles                  20          :
          :   degrees of freedom                36          :
          :.................................................:
          :   RF solver                   davidson          :
          :   write xtbopt.log                true          :
          :   linear?                        false          :
          :   energy convergence         0.1000000E-06 Eh   :
          :   grad. convergence          0.2000000E-03 Eh/α :
          :   maxmium RF displ.          1.0000000          :
          :   Hlow (freq-cutoff)         0.1000000E-01      :
          :   Hmax (freq-cutoff)         5.0000000          :
          :   S6 in model hess.         20.0000000          :
          ...................................................

generating ANC from exact Hessian ...
Using Lindh-Hessian (1995)
 Shifting diagonal of input Hessian by   4.431562873568815E-005
 Lowest  eigenvalues of input Hessian
    0.000000    0.000000    0.000000    0.000000    0.000000    0.000000
    0.010000    0.015988    0.028675    0.039647    0.044607    0.047097
    0.048404    0.051195    0.052181    0.056944    0.058253    0.074058
 Highest eigenvalues
    1.169562    1.187483    1.198500    1.199742    1.290563    1.301830
 

........................................................................
.............................. CYCLE    1 ..............................
........................................................................

 iter      E             dE          RMSdq      gap      omega  full diag
   1    -16.2751805 -0.162752E+02  0.174E-05   10.89       0.0  T
   2    -16.2751805 -0.309086E-12  0.103E-05   10.89    2604.4  T
   3    -16.2751805 -0.675016E-13  0.330E-06   10.89    8109.8  T
     SCC iter.                  ...        0 min,  0.000 sec
     gradient                   ...        0 min,  0.001 sec
 * total energy  :   -16.0731384 Eh     change       -0.3446132E-10 Eh
   gradient norm :     0.0248577 Eh/α   predicted     0.0000000E+00 (-100.00%)
   displ. norm   :     0.0976839 α      lambda       -0.1450767E-02
   maximum displ.:     0.0494044 α      in ANC's #3, #23, #14, ...

........................................................................
.............................. CYCLE    2 ..............................
........................................................................

 iter      E             dE          RMSdq      gap      omega  full diag
   1    -16.2822869 -0.162823E+02  0.115E-01   10.93       0.0  T
   2    -16.2822902 -0.336153E-05  0.690E-02   10.94       1.0  T
   3    -16.2822906 -0.342288E-06  0.769E-03   10.94       3.5  T
   4    -16.2822908 -0.203851E-06  0.306E-03   10.94       8.7  T
   5    -16.2822908 -0.546085E-08  0.135E-03   10.94      19.8  T
   6    -16.2822908 -0.916394E-09  0.301E-04   10.94      88.8  T
   7    -16.2822908 -0.135032E-09  0.993E-05   10.94     269.0  T
     SCC iter.                  ...        0 min,  0.001 sec
     gradient                   ...        0 min,  0.002 sec
 * total energy  :   -16.0740701 Eh     change       -0.9316247E-03 Eh
   gradient norm :     0.0109729 Eh/α   predicted    -0.7323048E-03 ( -21.39%)
   displ. norm   :     0.0783751 α      lambda       -0.3667816E-03
   maximum displ.:     0.0536207 α      in ANC's #3, #9, #2, ...

........................................................................
.............................. CYCLE    3 ..............................
........................................................................

 iter      E             dE          RMSdq      gap      omega  full diag
   1    -16.2855072 -0.162855E+02  0.590E-02   10.99       0.0  T
   2    -16.2855098 -0.264541E-05  0.358E-02   10.99       1.0  T
   3    -16.2855099 -0.109921E-06  0.838E-03   11.00       3.2  T
   4    -16.2855101 -0.148888E-06  0.211E-03   11.00      12.7  T
   5    -16.2855101 -0.352705E-08  0.100E-03   11.00      26.7  T
   6    -16.2855101 -0.497977E-09  0.241E-04   11.00     110.7  T
   7    -16.2855101 -0.800959E-10  0.698E-05   11.00     382.9  T
     SCC iter.                  ...        0 min,  0.001 sec
     gradient                   ...        0 min,  0.002 sec
 * total energy  :   -16.0742759 Eh     change       -0.2058304E-03 Eh
   gradient norm :     0.0046429 Eh/α   predicted    -0.1845160E-03 ( -10.36%)
   displ. norm   :     0.0268779 α      lambda       -0.5326713E-04
   maximum displ.:     0.0175854 α      in ANC's #2, #3, #9, ...

........................................................................
.............................. CYCLE    4 ..............................
........................................................................

 iter      E             dE          RMSdq      gap      omega  full diag
   1    -16.2854084 -0.162854E+02  0.283E-02   10.96       0.0  T
   2    -16.2854087 -0.331880E-06  0.165E-02   10.96       1.6  T
   3    -16.2854087 -0.181998E-08  0.341E-03   10.96       7.8  T
   4    -16.2854088 -0.330516E-07  0.670E-04   10.96      39.9  T
   5    -16.2854088 -0.131774E-09  0.121E-04   10.96     220.5  T
     SCC iter.                  ...        0 min,  0.001 sec
     gradient                   ...        0 min,  0.002 sec
 * total energy  :   -16.0743098 Eh     change       -0.3395494E-04 Eh
   gradient norm :     0.0020879 Eh/α   predicted    -0.2665403E-04 ( -21.50%)
   displ. norm   :     0.0244816 α      lambda       -0.1562048E-04
   maximum displ.:     0.0219739 α      in ANC's #2, #9, #3, ...

........................................................................
.............................. CYCLE    5 ..............................
........................................................................

 iter      E             dE          RMSdq      gap      omega  full diag
   1    -16.2850625 -0.162851E+02  0.147E-02   10.96       0.0  T
   2    -16.2850626 -0.917403E-07  0.841E-03   10.96       3.2  T
   3    -16.2850626 -0.978308E-08  0.172E-03   10.96      15.5  T
   4    -16.2850626 -0.656864E-08  0.525E-04   10.96      50.9  T
   5    -16.2850626 -0.847251E-10  0.107E-04   10.96     250.1  T
     SCC iter.                  ...        0 min,  0.001 sec
     gradient                   ...        0 min,  0.002 sec
 * total energy  :   -16.0743183 Eh     change       -0.8474240E-05 Eh
   gradient norm :     0.0005695 Eh/α   predicted    -0.7814776E-05 (  -7.78%)
   displ. norm   :     0.0155321 α      lambda       -0.1804070E-05
   maximum displ.:     0.0147528 α      in ANC's #2, #5, #3, ...

........................................................................
.............................. CYCLE    6 ..............................
........................................................................

 iter      E             dE          RMSdq      gap      omega  full diag
   1    -16.2849739 -0.162850E+02  0.833E-03   10.95       0.0  T
   2    -16.2849740 -0.372980E-07  0.475E-03   10.95       5.6  T
   3    -16.2849740 -0.382057E-08  0.659E-04   10.95      40.6  T
   4    -16.2849740 -0.113552E-09  0.214E-04   10.95     124.7  T
     SCC iter.                  ...        0 min,  0.001 sec
     gradient                   ...        0 min,  0.002 sec
 * total energy  :   -16.0743197 Eh     change       -0.1339443E-05 Eh
   gradient norm :     0.0003580 Eh/α   predicted    -0.9033562E-06 ( -32.56%)
   displ. norm   :     0.0074898 α      lambda       -0.6125039E-06
   maximum displ.:     0.0066881 α      in ANC's #2, #6, #5, ...

........................................................................
.............................. CYCLE    7 ..............................
........................................................................

 iter      E             dE          RMSdq      gap      omega  full diag
   1    -16.2850595 -0.162851E+02  0.581E-03   10.95       0.0  T
   2    -16.2850595 -0.391740E-08  0.336E-03   10.95       7.9  T
   3    -16.2850595 -0.119660E-08  0.226E-04   10.95     118.2  T
   4    -16.2850595 -0.247766E-10  0.113E-04   10.95     235.9  T
     SCC iter.                  ...        0 min,  0.001 sec
     gradient                   ...        0 min,  0.002 sec
 * total energy  :   -16.0743200 Eh     change       -0.3936335E-06 Eh
   gradient norm :     0.0001181 Eh/α   predicted    -0.3058570E-06 ( -22.30%)
   displ. norm   :     0.0011692 α      lambda       -0.4079328E-07
   maximum displ.:     0.0008081 α      in ANC's #2, #5, #14, ...

........................................................................
.............................. CYCLE    8 ..............................
........................................................................

 iter      E             dE          RMSdq      gap      omega  full diag
   1    -16.2850847 -0.162851E+02  0.128E-03   10.95       0.0  T
   2    -16.2850847 -0.151552E-09  0.748E-04   10.95      35.8  T
   3    -16.2850847 -0.396057E-10  0.439E-05   10.95     608.4  T
     SCC iter.                  ...        0 min,  0.000 sec
     gradient                   ...        0 min,  0.001 sec
 * total energy  :   -16.0743201 Eh     change       -0.2267906E-07 Eh
   gradient norm :     0.0000497 Eh/α   predicted    -0.2094763E-07 (  -7.63%)
   displ. norm   :     0.0003419 α      lambda       -0.6839442E-08
   maximum displ.:     0.0002116 α      in ANC's #1, #5, #13, ...

   *** GEOMETRY OPTIMIZATION CONVERGED AFTER 8 ITERATIONS ***

------------------------------------------------------------------------
 total energy gain   :        -0.0011816 Eh       -0.7415 kcal/mol
 total RMSD          :         0.0496266 a0        0.0263 Å
 total power (kW/mol):        -0.3877994 (step)  -84.1964 (real)
------------------------------------------------------------------------

 ANCopt (total)                0 d,  0 h,  0 min,  0.037 sec
 optimizer setup                ...        0 min,  0.000 sec (  0.863%)
 model hessian                  ...        0 min,  0.003 sec (  9.055%)
 ANC generation                 ...        0 min,  0.000 sec (  0.594%)
 coordinate transformation      ...        0 min,  0.000 sec (  0.088%)
 single point calculation       ...        0 min,  0.027 sec ( 73.497%)
 optimization log               ...        0 min,  0.005 sec ( 13.513%)
 hessian update                 ...        0 min,  0.000 sec (  0.085%)
 rational function              ...        0 min,  0.001 sec (  1.498%)

================
 final structure:
================
$coord
       -1.98148309647969        1.45646457554698       -0.13349674948647      C
       -1.98440487014864       -1.45212320893374       -0.13511309952813      C
        0.80122413143400       -2.16093383253010        0.37392389167784      C
        2.32134170795579       -0.00276126474591       -0.40667758309712      N
        0.80630271517014        2.15946602630227        0.37265892568630      C
       -3.21943166787742        2.23447840034126        1.31127262573436      H
       -2.58564419274299        2.19195131029086       -1.96025593170310      H
       -3.22608932805886       -2.22951695146435        1.30676744762017      H
       -2.58707222537172       -2.18421608557031       -1.96375921341982      H
        1.10260856802509       -2.42661380049135        2.40163552761196      H
        1.39346796497900       -3.86950191498294       -0.60763103431731      H
        2.45684784183749       -0.00354659465022       -2.32308720740645      H
        1.10980210433856        2.42674785127359        2.39984471952701      H
        1.40157726462533        3.86569010131045       -0.61113864643066      H
$end
 
 Bond Distances (Angstroems)
 ---------------------------
C1-C2=1.5392         C1-C5=1.5448         C1-H6=1.0877         C1-H7=1.0900         C2-C1=1.5392         C2-C3=1.5447         
C2-H8=1.0877         C2-H9=1.0900         C3-C2=1.5447         C3-N4=1.4567         C3-H10=1.0939        C3-H11=1.0888        
N4-C3=1.4567         N4-C5=1.4567         N4-H12=1.0167        C5-C1=1.5448         C5-N4=1.4567         C5-H13=1.0939        
C5-H14=1.0888        H6-C1=1.0877         H7-C1=1.0900         H8-C2=1.0877         H9-C2=1.0900         H10-C3=1.0939        
H11-C3=1.0888        H12-N4=1.0167        H13-C5=1.0939        H14-C5=1.0888        
 C  H  Rav=1.0901 sigma=0.0023  Rmin=1.0877  Rmax=1.0939     8
 C  C  Rav=1.5429 sigma=0.0026  Rmin=1.5392  Rmax=1.5448     3
 N  H  Rav=1.0167 sigma=0.0000  Rmin=1.0167  Rmax=1.0167     1
 N  C  Rav=1.4567 sigma=0.0000  Rmin=1.4567  Rmax=1.4567     2
 
 selected bond angles (degree)
 --------------------
C5-C1-C2=104.00                H6-C1-C2=112.23                H6-C1-C5=111.23                H7-C1-C2=110.87                
H7-C1-C5=110.36                H7-C1-H6=108.15                C3-C2-C1=103.99                H8-C2-C1=112.24                
H8-C2-C3=111.24                H9-C2-C1=110.87                H9-C2-C3=110.35                H9-C2-H8=108.15                
N4-C3-C2=106.69                H10-C3-C2=109.96               H10-C3-N4=107.36               H11-C3-C2=113.15               
H11-C3-N4=110.90               H11-C3-H10=108.62              C5-N4-C3=103.39                H12-N4-C3=108.75               
H12-N4-C5=108.76               N4-C5-C1=106.70                H13-C5-C1=109.96               H13-C5-N4=107.36               
H14-C5-C1=113.15               H14-C5-N4=110.90               H14-C5-H13=108.61              
 
 selected dihedral angles (degree)
 ---------------------------------
C3-C2-C1-C5=  0.08            C3-C2-C1-H6=239.74            C3-C2-C1-H7=118.68            H8-C2-C1-C5=120.42            
H8-C2-C1-H6=  0.09            H8-C2-C1-H7=239.02            H9-C2-C1-C5=241.49            H9-C2-C1-H6=121.16            
H9-C2-C1-H7=  0.09            N4-C3-C2-C1=336.72            N4-C3-C2-H8=215.71            N4-C3-C2-H9= 95.66            
H10-C3-C2-C1= 92.85           H10-C3-C2-H8=331.83           H10-C3-C2-H9=211.79           H11-C3-C2-C1=214.50           
H11-C3-C2-H8= 93.48           H11-C3-C2-H9=333.44           C5-N4-C3-C2= 38.12            C5-N4-C3-H10=280.28           
C5-N4-C3-H11=161.75           H12-N4-C3-C2=282.66           H12-N4-C3-H10=164.82          H12-N4-C3-H11= 46.29          
N4-C5-C1-C2= 23.15            N4-C5-C1-H6=144.15            N4-C5-C1-H7=264.19            H13-C5-C1-C2=267.02           
H13-C5-C1-H6= 28.02           H13-C5-C1-H7=148.06           H14-C5-C1-C2=145.38           H14-C5-C1-H6=266.38           
H14-C5-C1-H7= 26.42           C1-C5-N4-C3=321.93            C1-C5-N4-H12= 77.38           H13-C5-N4-C3= 79.78           
H13-C5-N4-H12=195.24          H14-C5-N4-C3=198.29           H14-C5-N4-H12=313.75          
           -------------------------------------------------
          |                Final Singlepoint                |
           -------------------------------------------------

          ...................................................
          :                      SETUP                      :
          :.................................................:
          :  # basis functions                  29          :
          :  # atomic orbitals                  29          :
          :  # shells                           19          :
          :  # electrons                        30          :
          :  max. iterations                   250          :
          :  Hamiltonian                  GFN2-xTB          :
          :  restarted?                      false          :
          :  GBSA solvation                   true          :
          :  PC potential                    false          :
          :  electronic temp.          300.0000000     K    :
          :  accuracy                    1.0000000          :
          :  -> integral cutoff          0.2500000E+02      :
          :  -> integral neglect         0.1000000E-07      :
          :  -> SCF convergence          0.1000000E-05 Eh   :
          :  -> wf. convergence          0.1000000E-03 e    :
          :  Broyden damping             0.4000000          :
          :  net charge                          0          :
          :  unpaired electrons                  0          :
          ...................................................

 iter      E             dE          RMSdq      gap      omega  full diag
   1    -16.2850847 -0.162851E+02  0.214E-05   10.95       0.0  T
   2    -16.2850847 -0.138556E-12  0.127E-05   10.95    2112.2  T
   3    -16.2850847 -0.355271E-13  0.168E-06   10.95   15894.7  T

   *** convergence criteria satisfied after 3 iterations ***

         #    Occupation            Energy/Eh            Energy/eV
      -------------------------------------------------------------
         1        2.0000           -0.6458591             -17.5747
       ...           ...                  ...                  ...
         9        2.0000           -0.4948277             -13.4649
        10        2.0000           -0.4627775             -12.5928
        11        2.0000           -0.4510788             -12.2745
        12        2.0000           -0.4420666             -12.0292
        13        2.0000           -0.4361664             -11.8687
        14        2.0000           -0.4219280             -11.4812
        15        2.0000           -0.3618081              -9.8453 (HOMO)
        16                          0.0406521               1.1062 (LUMO)
        17                          0.0598122               1.6276
        18                          0.0920618               2.5051
        19                          0.1060697               2.8863
        20                          0.1192656               3.2454
       ...                                ...                  ...
        29                          0.3468242               9.4376
      -------------------------------------------------------------
                  HL-Gap            0.4024602 Eh           10.9515 eV
             Fermi-level           -0.1605780 Eh           -4.3695 eV

 SCC (total)                   0 d,  0 h,  0 min,  0.004 sec
 SCC setup                      ...        0 min,  0.001 sec ( 16.759%)
 Dispersion                     ...        0 min,  0.000 sec (  1.091%)
 classical contributions        ...        0 min,  0.000 sec (  0.306%)
 integral evaluation            ...        0 min,  0.001 sec ( 15.282%)
 iterations                     ...        0 min,  0.001 sec ( 17.490%)
 molecular gradient             ...        0 min,  0.002 sec ( 46.166%)
 printout                       ...        0 min,  0.000 sec (  2.507%)

         :::::::::::::::::::::::::::::::::::::::::::::::::::::
         ::                     SUMMARY                     ::
         :::::::::::::::::::::::::::::::::::::::::::::::::::::
         :: total energy             -16.074320066904 Eh    ::
         :: total w/o Gsasa/hb       -16.072480617647 Eh    ::
         :: gradient norm              0.000049696643 Eh/a0 ::
         :: HOMO-LUMO gap             10.951498450198 eV    ::
         ::.................................................::
         :: SCC energy               -16.285077386476 Eh    ::
         :: -> isotropic ES            0.011291068830 Eh    ::
         :: -> anisotropic ES          0.004649862187 Eh    ::
         :: -> anisotropic XC          0.013044597144 Eh    ::
         :: -> dispersion             -0.007499250362 Eh    ::
         :: -> Gsolv                  -0.002823776022 Eh    ::
         ::    -> Gelec               -0.000984326765 Eh    ::
         ::    -> Gsasa               -0.001793371686 Eh    ::
         ::    -> Ghb                 -0.001126837268 Eh    ::
         ::    -> Gshift               0.001080759698 Eh    ::
         :: repulsion energy           0.210757319572 Eh    ::
         :: add. restraining           0.000000000000 Eh    ::
         :: total charge               0.000000000000 e     ::
         :::::::::::::::::::::::::::::::::::::::::::::::::::::

           ------------------------------------------------- 
          |                Numerical Hessian                |
           ------------------------------------------------- 
step length          :   0.00500
SCC accuracy         :   0.30000
Hessian scale factor :   1.00000
frozen atoms in %    :   0.00000    0
RMS gradient         :   0.00005
estimated CPU  time      0.00 min
estimated wall time      0.00 min

writing file <hessian>.

 projected vibrational frequencies (cm⁻¹)
eigval :       -0.00    -0.00    -0.00    -0.00     0.00     0.00
eigval :       68.86   291.47   611.61   639.65   812.88   860.64
eigval :      889.41   949.60   973.89   974.97  1009.54  1047.01
eigval :     1087.85  1127.31  1177.98  1180.73  1209.68  1247.24
eigval :     1273.10  1289.71  1294.09  1303.57  1387.06  1473.60
eigval :     1484.49  1486.80  1505.47  2943.73  2944.62  2978.39
eigval :     2992.55  3002.79  3005.71  3011.73  3021.63  3351.18
           -------------------------------------------------
          |                Property Printout                |
           -------------------------------------------------

    * Orbital Energies and Occupations

         #    Occupation            Energy/Eh            Energy/eV
      -------------------------------------------------------------
         1        2.0000           -0.6458591             -17.5747
       ...           ...                  ...                  ...
         3        2.0000           -0.6046288             -16.4528
         4        2.0000           -0.5618997             -15.2901
         5        2.0000           -0.5618610             -15.2890
         6        2.0000           -0.5366382             -14.6027
         7        2.0000           -0.5132808             -13.9671
         8        2.0000           -0.4960318             -13.4977
         9        2.0000           -0.4948277             -13.4649
        10        2.0000           -0.4627775             -12.5928
        11        2.0000           -0.4510788             -12.2745
        12        2.0000           -0.4420666             -12.0292
        13        2.0000           -0.4361664             -11.8687
        14        2.0000           -0.4219280             -11.4812
        15        2.0000           -0.3618081              -9.8453 (HOMO)
        16                          0.0406521               1.1062 (LUMO)
        17                          0.0598122               1.6276
        18                          0.0920618               2.5051
        19                          0.1060697               2.8863
        20                          0.1192656               3.2454
        21                          0.1465786               3.9886
        22                          0.1676748               4.5627
        23                          0.1682195               4.5775
        24                          0.1865012               5.0750
        25                          0.2063631               5.6154
        26                          0.2159273               5.8757
       ...                                ...                  ...
        29                          0.3468243               9.4376
      -------------------------------------------------------------
                  HL-Gap            0.4024602 Eh           10.9515 eV
             Fermi-level           -0.1605780 Eh           -4.3695 eV

     #   Z          covCN         q      C6AA      α(0)
     1   6 C        3.813    -0.069    21.803     6.646
     2   6 C        3.813    -0.069    21.803     6.646
     3   6 C        3.803     0.007    20.456     6.439
     4   7 N        2.685    -0.294    27.561     7.797
     5   6 C        3.803     0.007    20.456     6.439
     6   1 H        0.925     0.034     2.536     2.490
     7   1 H        0.925     0.030     2.592     2.518
     8   1 H        0.925     0.034     2.536     2.490
     9   1 H        0.925     0.030     2.592     2.518
    10   1 H        0.924     0.035     2.512     2.479
    11   1 H        0.925     0.031     2.569     2.506
    12   1 H        0.860     0.157     1.355     1.823
    13   1 H        0.924     0.035     2.512     2.479
    14   1 H        0.925     0.031     2.569     2.506

 Mol. C6AA /au·bohr⁶  :       1407.805378
 Mol. C8AA /au·bohr⁸  :      29507.726834
 Mol. α(0) /au        :         55.777714


Wiberg/Mayer (AO) data.
largest (>0.10) Wiberg bond orders for each atom

 ---------------------------------------------------------------------------
     #   Z sym  total        # sym  WBO       # sym  WBO       # sym  WBO
 ---------------------------------------------------------------------------
     1   6 C    3.997 --     2 C    1.006     5 C    0.989     7 H    0.984
                             6 H    0.983
     2   6 C    3.997 --     1 C    1.006     3 C    0.989     9 H    0.984
                             8 H    0.983
     3   6 C    3.986 --     4 N    1.016     2 C    0.989    11 H    0.980
                            10 H    0.976
     4   7 N    3.055 --     5 C    1.016     3 C    1.016    12 H    0.954
     5   6 C    3.986 --     4 N    1.016     1 C    0.989    14 H    0.980
                            13 H    0.976
     6   1 H    0.999 --     1 C    0.983
     7   1 H    0.999 --     1 C    0.984
     8   1 H    0.999 --     2 C    0.983
     9   1 H    0.999 --     2 C    0.984
    10   1 H    0.999 --     3 C    0.976
    11   1 H    0.999 --     3 C    0.980
    12   1 H    0.975 --     4 N    0.954
    13   1 H    0.999 --     5 C    0.976
    14   1 H    0.999 --     5 C    0.980
 ---------------------------------------------------------------------------

Topologies differ in total number of bonds
Writing topology from bond orders to xtbtopo.mol

molecular dipole:
                 x           y           z       tot (Debye)
 q only:       -0.216       0.000      -0.118
   full:       -0.502       0.000      -0.306       1.495
molecular quadrupole (traceless):
                xx          xy          yy          xz          yz          zz
 q only:       -1.521       0.003       0.891      -0.749       0.001       0.630
  q+dip:       -3.987       0.005       0.508      -1.323       0.002       3.479
   full:       -3.759       0.005       1.093      -1.434       0.002       2.666

           -------------------------------------------------
          |                Geometry Summary                 |
           -------------------------------------------------

      molecular mass/u    :       71.1211136
   center of mass at/Å    :        0.0000132       0.0000101      -0.0000158
  moments of inertia/u·Å² :        0.7273410E+02   0.7490159E+02   0.1279674E+03
rotational constants/cm⁻¹ :        0.2317707E+00   0.2250637E+00   0.1317338E+00

 * 12 selected distances

     #   Z          #   Z                                           value/Å
     1   6 C        2   6 C                                       1.5391595 (max)
     3   6 C        4   7 N                                       1.4567093
     4   7 N        5   6 C                                       1.4567218
     1   6 C        6   1 H                                       1.0877368
     1   6 C        7   1 H                                       1.0900281
     2   6 C        8   1 H                                       1.0877317
     2   6 C        9   1 H                                       1.0900428
     3   6 C       10   1 H                                       1.0938790
     3   6 C       11   1 H                                       1.0887953
     4   7 N       12   1 H                                       1.0166525 (min)
     5   6 C       13   1 H                                       1.0938791
     5   6 C       14   1 H                                       1.0887956

 * 4 distinct bonds (by element types)

   Z      Z             #   av. dist./Å        max./Å        min./Å
   1 H    6 C           8     1.0901110     1.0938791     1.0877317
   6 C    6 C           1     1.5391595     1.5391595     1.5391595
   1 H    7 N           1     1.0166525     1.0166525     1.0166525
   6 C    7 N           2     1.4567155     1.4567218     1.4567093

           -------------------------------------------------
          |               Frequency Printout                |
           -------------------------------------------------
 projected vibrational frequencies (cm⁻¹)
eigval :       -0.00    -0.00    -0.00    -0.00     0.00     0.00
eigval :       68.86   291.47   611.61   639.65   812.88   860.64
eigval :      889.41   949.60   973.89   974.97  1009.54  1047.01
eigval :     1087.85  1127.31  1177.98  1180.73  1209.68  1247.24
eigval :     1273.10  1289.71  1294.09  1303.57  1387.06  1473.60
eigval :     1484.49  1486.80  1505.47  2943.73  2944.62  2978.39
eigval :     2992.55  3002.79  3005.71  3011.73  3021.63  3351.18
 reduced masses (amu)
   1:  9.20   2: 11.14   3:  9.68   4: 10.30   5: 10.02   6: 10.04   7:  5.38   8:  6.73
   9:  7.48  10:  8.98  11:  3.01  12:  4.60  13:  6.07  14:  9.00  15:  9.43  16:  8.14
  17:  3.90  18:  3.62  19:  8.64  20: 11.36  21:  4.12  22:  3.51  23:  2.90  24:  4.90
  25:  3.50  26:  3.30  27:  4.33  28:  4.00  29:  2.65  30:  1.85  31:  1.94  32:  1.90
  33:  1.99  34:  1.79  35:  1.77  36:  1.87  37:  1.85  38:  1.70  39:  1.75  40:  1.58
  41:  1.61  42:  1.84
 IR intensities (km·mol⁻¹)
   1:  0.31   2:  0.17   3:  0.25   4:  0.33   5:  0.55   6:  0.50   7:  0.18   8:  7.48
   9:  2.16  10:  1.86  11:  4.14  12:  1.80  13: 86.25  14: 16.81  15: 51.39  16:  0.33
  17: 12.42  18:  8.14  19:  9.73  20: 23.00  21:  0.30  22: 10.50  23:  2.78  24:  4.20
  25:  0.29  26:  0.28  27:  1.04  28: 32.00  29: 20.14  30:  0.31  31:  1.16  32:  1.94
  33:  0.20  34:  4.23  35:128.62  36:  1.91  37:140.36  38:107.18  39: 74.58  40: 87.26
  41: 68.73  42: 15.04
 Raman intensities (Ä⁴*amu⁻¹)
   1:  0.00   2:  0.00   3:  0.00   4:  0.00   5:  0.00   6:  0.00   7:  0.00   8:  0.00
   9:  0.00  10:  0.00  11:  0.00  12:  0.00  13:  0.00  14:  0.00  15:  0.00  16:  0.00
  17:  0.00  18:  0.00  19:  0.00  20:  0.00  21:  0.00  22:  0.00  23:  0.00  24:  0.00
  25:  0.00  26:  0.00  27:  0.00  28:  0.00  29:  0.00  30:  0.00  31:  0.00  32:  0.00
  33:  0.00  34:  0.00  35:  0.00  36:  0.00  37:  0.00  38:  0.00  39:  0.00  40:  0.00
  41:  0.00  42:  0.00
 output can be read by thermo (or use thermo option).
 writing <g98.out> molden fake output.
 recommended (thermochemical) frequency scaling factor: 1.0
           -------------------------------------------------
          |             Thermodynamic Functions             |
           -------------------------------------------------

Molecule has the following symmetry elements: (sigma) 
It seems to be the Cs point group
cs  symmetry found (for desy threshold:  0.10E+00) used in thermo

          ...................................................
          :                      SETUP                      :
          :.................................................:
          :  # frequencies                          36      :
          :  # imaginary freq.                       0      :
          :  linear?                             false      :
          :  only rotor calc.                    false      :
          :  symmetry                               cs      :
          :  rotational number                       1      :
          :  scaling factor                  1.0000000      :
          :  rotor cutoff                    0.0000000 cm⁻¹ :
          :  imag. cutoff                 -100.0000000 cm⁻¹ :
          :.................................................:

    mode    ω/cm⁻¹     T·S(HO)/kcal·mol⁻¹    T·S(FR)/kcal·mol⁻¹   T·S(vib)
   ------------------------------------------------------------------------
       1     68.86    -1.24799 (100.00%)    -0.96096 (  0.00%)    -1.24799
       2    291.47    -0.43692 (100.00%)    -0.53412 (  0.00%)    -0.43692
   ------------------------------------------------------------------------

   temp. (K)  partition function   enthalpy   heat capacity  entropy
                                   cal/mol     cal/K/mol   cal/K/mol   J/K/mol
 298.15  VIB   5.88                 1315.291     11.657      7.931
         ROT  0.638E+05              888.752      2.981     24.966
         INT  0.375E+06             2204.043     14.638     32.897
         TR   0.580E+27             1481.254      4.968     38.685
         TOT                        3685.2973    19.6057    71.5819   299.4985

       T/K    H(0)-H(T)+PV         H(T)/Eh          T*S/Eh         G(T)/Eh
   ------------------------------------------------------------------------
    298.15    0.587290E-02    0.133246E+00    0.340109E-01    0.992356E-01
   ------------------------------------------------------------------------

         :::::::::::::::::::::::::::::::::::::::::::::::::::::
         ::                  THERMODYNAMIC                  ::
         :::::::::::::::::::::::::::::::::::::::::::::::::::::
         :: total free energy         -15.975084436777 Eh   ::
         ::.................................................::
         :: total energy              -16.074320066902 Eh   ::
         :: zero point energy           0.127373586674 Eh   ::
         :: G(RRHO) w/o ZPVE           -0.028137956549 Eh   ::
         :: G(RRHO) contrib.            0.099235630125 Eh   ::
         :::::::::::::::::::::::::::::::::::::::::::::::::::::

optimized geometry written to: xtbopt.coord


           -------------------------------------------------
          | TOTAL ENERGY              -16.074320066902 Eh   |
          | TOTAL ENTHALPY            -15.941073585085 Eh   |
          | TOTAL FREE ENERGY         -15.975084436777 Eh   |
          | GRADIENT NORM               0.000049693485 Eh/α |
          | HOMO-LUMO GAP              10.951498192098 eV   |
           -------------------------------------------------

------------------------------------------------------------------------
 * finished run on 2025/04/03 at 21:16:10.913     
------------------------------------------------------------------------
 total:
 * wall-time:     0 d,  0 h,  0 min,  0.405 sec
 *  cpu-time:     0 d,  0 h,  0 min,  0.329 sec
 * ratio c/w:     0.811 speedup
 SCF:
 * wall-time:     0 d,  0 h,  0 min,  0.019 sec
 *  cpu-time:     0 d,  0 h,  0 min,  0.007 sec
 * ratio c/w:     0.369 speedup
 ANC optimizer:
 * wall-time:     0 d,  0 h,  0 min,  0.051 sec
 *  cpu-time:     0 d,  0 h,  0 min,  0.037 sec
 * ratio c/w:     0.723 speedup
 analytical hessian:
 * wall-time:     0 d,  0 h,  0 min,  0.284 sec
 *  cpu-time:     0 d,  0 h,  0 min,  0.276 sec
 * ratio c/w:     0.971 speedup

