
                                 *****************
                                 * O   R   C   A *
                                 *****************

                                            #,                                       
                                            ###                                      
                                            ####                                     
                                            #####                                    
                                            ######                                   
                                           ########,                                 
                                     ,,################,,,,,                         
                               ,,#################################,,                 
                          ,,##########################################,,             
                       ,#########################################, ''#####,          
                    ,#############################################,,   '####,        
                  ,##################################################,,,,####,       
                ,###########''''           ''''###############################       
              ,#####''   ,,,,##########,,,,          '''####'''          '####       
            ,##' ,,,,###########################,,,                        '##       
           ' ,,###''''                  '''############,,,                           
         ,,##''                                '''############,,,,        ,,,,,,###''
      ,#''                                            '''#######################'''  
     '                                                          ''''####''''         
             ,#######,   #######,   ,#######,      ##                                
            ,#'     '#,  ##    ##  ,#'     '#,    #''#        ,####,   ,####,        
            ##       ##  ##   ,#'  ##            #'  '#       #'       #'  '#        
            ##       ##  #######   ##           ,######,      #####,   #    #        
            '#,     ,#'  ##    ##  '#,     ,#' ,#      #,     #,   #   #,  ,#        
             '#######'   ##     ##  '#######'  #'      '#     '####' # '####'        



                #########################################################
                #                        -***-                          #
                #          Department of theory and spectroscopy        #
                #                                                       #
                #                      Frank Neese                      #
                #                                                       #
                #     Directorship, Architecture, Infrastructure        #
                #                    SHARK, DRIVERS                     #
                #        Core code/Algorithms in most modules           #
                #                                                       #
                #        Max Planck Institute fuer Kohlenforschung      #
                #                Kaiser Wilhelm Platz 1                 #
                #                 D-45470 Muelheim/Ruhr                 #
                #                      Germany                          #
                #                                                       #
                #                  All rights reserved                  #
                #                        -***-                          #
                #########################################################


                         Program Version 6.0.0  -   RELEASE  -


 With contributions from (in alphabetic order):
   Daniel Aravena         : Magnetic Suceptibility
   Michael Atanasov       : Ab Initio Ligand Field Theory (pilot matlab implementation)
   Alexander A. Auer      : GIAO ZORA, VPT2 properties, NMR spectrum
   Ute Becker             : All parallelization in ORCA, NUMFREQ, NUMCALC
   Giovanni Bistoni       : ED, misc. LED, open-shell LED, HFLD
   Martin Brehm           : Molecular dynamics
   Dmytro Bykov           : pre 5.0 version of the SCF Hessian
   Marcos Casanova-Páez   : Triplet and SCS-CIS(D). UHF-(DLPNO)-IP/EA/STEOM-CCSD. UHF-CVS-IP/STEOM-CCSD
   Vijay G. Chilkuri      : MRCI spin determinant printing, contributions to CSF-ICE
   Pauline Colinet        : FMM embedding
   Dipayan Datta          : RHF DLPNO-CCSD density
   Achintya Kumar Dutta   : EOM-CC, STEOM-CC
   Nicolas Foglia         : Exact transition moments, OPA infrastructure, MCD improvements
   Dmitry Ganyushin       : Spin-Orbit,Spin-Spin,Magnetic field MRCI
   Miquel Garcia          : C-PCM and meta-GGA Hessian, CCSD/C-PCM, Gaussian charge scheme
   Tiago L. C. Gouveia    : GS-ROHF, GS-ROCIS
   Yang Guo               : DLPNO-NEVPT2, F12-NEVPT2, CIM, IAO-localization
   Andreas Hansen         : Spin unrestricted coupled pair/coupled cluster methods
   Ingolf Harden          : AUTO-CI MPn and infrastructure 
   Benjamin Helmich-Paris : MC-RPA, TRAH-(SCF,CASSCF), AVAS, COSX integrals, SCF dyn. polar.
   Lee Huntington         : MR-EOM, pCC
   Robert Izsak           : Overlap fitted RIJCOSX, COSX-SCS-MP3, EOM
   Riya Kayal             : Wick's Theorem for AUTO-CI, AUTO-CI UHF-CCSDT
   Emily Kempfer          : AUTO-CI, RHF CISDT and CCSDT
   Christian Kollmar      : KDIIS, OOCD, Brueckner-CCSD(T), CCSD density, CASPT2, CASPT2-K, improved NEVPT2
   Axel Koslowski         : Symmetry handling
   Simone Kossmann        : Meta GGA functionals, TD-DFT gradient, OOMP2, (MP2 Hessian; deprecated post 5.0)
   Lucas Lang             : DCDCAS
   Marvin Lechner         : AUTO-CI (C++ implementation), FIC-MRCC
   Spencer Leger          : CASSCF response
   Dagmar Lenk            : GEPOL surface, SMD, ORCA-2-JSON
   Dimitrios Liakos       : Extrapolation schemes; Compound Job, initial MDCI parallelization
   Dimitrios Manganas     : Further ROCIS development; embedding schemes. LFT, Crystal Embedding
   Dimitrios Pantazis     : SARC Basis sets
   Anastasios Papadopoulos: AUTO-CI, single reference methods and gradients
   Taras Petrenko         : pre 6.0 DFT Hessian and TD-DFT gradient, (ASA, deprecated), ECA, 1-Electron XAS/XES, NRVS
   Peter Pinski           : DLPNO-MP2, DLPNO-MP2 Gradient
   Christoph Reimann      : Effective Core Potentials
   Marius Retegan         : Local ZFS, SOC
   Christoph Riplinger    : Optimizer, TS searches, QM/MM, DLPNO-CCSD(T), (RO)-DLPNO pert. Triples
   Michael Roemelt        : Original ROCIS implementation
   Masaaki Saitow         : Open-shell DLPNO-CCSD energy and density
   Barbara Sandhoefer     : DKH picture change effects
   Kantharuban Sivalingam : CASSCF convergence/infrastructure, NEVPT2 and variants, FIC-MRCI
   Bernardo de Souza      : ESD, SOC TD-DFT
   Georgi Stoychev        : AutoAux, RI-MP2 NMR, DLPNO-MP2 response, X2C
   Van Anh Tran           : RI-MP2 g-tensors
   Willem Van den Heuvel  : Paramagnetic NMR
   Zikuan Wang            : NOTCH, Electric field optimization 
   Frank Wennmohs         : Technical directorship and infrastructure
   Hang Xu                : AUTO-CI-Response properties 


 We gratefully acknowledge several colleagues who have allowed us to
 interface, adapt or use parts of their codes:
   Stefan Grimme, W. Hujo, H. Kruse, P. Pracht,  : VdW corrections, initial TS optimization,
                  C. Bannwarth, S. Ehlert,         DFT functionals, gCP, sTDA/sTD-DF
                  L. Wittmann, M. Mueller
   Ed Valeev, F. Pavosevic, A. Kumar             : LibInt (2-el integral package), F12 methods
   Garnet Chan, S. Sharma, J. Yang, R. Olivares  : DMRG
   Ulf Ekstrom                                   : XCFun DFT Library
   Mihaly Kallay                                 : mrcc  (arbitrary order and MRCC methods)
   Frank Weinhold                                : gennbo (NPA and NBO analysis)
   Simon Mueller                                 : openCOSMO-RS
   Christopher J. Cramer and Donald G. Truhlar   : smd solvation model
   Lars Goerigk                                  : TD-DFT with DH, B97 family of functionals
   V. Asgeirsson, H. Jonsson                     : NEB implementation
   FAccTs GmbH                                   : IRC, NEB, NEB-TS, DLPNO-Multilevel, CI-OPT
                                                   MM, QMMM, 2- and 3-layer-ONIOM, Crystal-QMMM,
                                                   LR-CPCM, SF, NACMEs, symmetry and pop. for TD-DFT,
                                                   nearIR, NL-DFT gradient (VV10), updates on ESD,
                                                   ML-optimized integration grids, MBIS, APM,
                                                   GOAT, DOCKER, SOLVATOR, interface openCOSMO-RS
   S Lehtola, MJT Oliveira, MAL Marques          : LibXC Library
   Liviu Ungur et al                             : ANISO software


 Your calculation uses the libint2 library for the computation of 2-el integrals
 For citations please refer to: http://libint.valeyev.net

 Your ORCA version has been built with support for libXC version: 6.2.2
 For citations please refer to: https://libxc.gitlab.io

 This ORCA versions uses:
   CBLAS   interface :  Fast vector & matrix operations
   LAPACKE interface :  Fast linear algebra routines
   SCALAPACK package :  Parallel linear algebra routines
   Shared memory     :  Shared parallel matrices
   BLAS/LAPACK       :  OpenBLAS 0.3.27  USE64BITINT DYNAMIC_ARCH NO_AFFINITY SkylakeX SINGLE_THREADED
        Core in use  :  SkylakeX
   Copyright (c) 2011-2014, The OpenBLAS Project


Your calculation utilizes the geometrical counterpoise correction gCP
Please cite in your paper:
H.Kruse, S. Grimme J.Chem.Phys., 136, (2012), 154101 
   

Your calculation utilizes the atom-pairwise dispersion correction
based on EEQ partial charges (D4)


================================================================================

----- Orbital basis set information -----
Your calculation utilizes the basis: def2-SV(P)
   F. Weigend and R. Ahlrichs, Phys. Chem. Chem. Phys. 7, 3297 (2005).

----- AuxJ basis set information -----
Your calculation utilizes the auxiliary basis: def2/J
   F. Weigend, Phys. Chem. Chem. Phys. 8, 1057 (2006).

================================================================================
                                        WARNINGS
                       Please study these warnings very carefully!
================================================================================


================================================================================
                                       INPUT FILE
================================================================================
NAME = sp.inp
|  1> ! pbe def2-sv(p) def2/J RI DEFGRID1 loosescf d4 GCP(DFT/SV(P)) printgap
|  2> %output
|  3>     printlevel normal
|  4> end
|  5> * xyz 0 1
|  6> C -2.5485594348 -0.6805123993 -0.3876089719
|  7> C -1.1755437682 -0.3133446799 0.1691952126
|  8> H -1.2495355891 -0.2682403673 1.2670134153
|  9> C -0.6962741561 1.0477877488 -0.353392199
| 10> H -0.6494861963 1.0096060064 -1.4528791819
| 11> C 0.7164688599 1.3184770959 0.1787596328
| 12> H 0.6585118874 1.4243331173 1.2763248902
| 13> C 1.6536516843 0.1489839949 -0.1617797427
| 14> H 1.7730079699 0.0820605494 -1.2485842176
| 15> C 1.0243033309 -1.1656330356 0.3291252767
| 16> H 0.9509265745 -1.1344063109 1.4413218432
| 17> O -0.2659396208 -1.3285054012 -0.2066599174
| 18> O 1.8013771408 -2.2273446744 -0.0840221044
| 19> O 2.9387372992 0.3771128853 0.3519763517
| 20> O 1.1753964955 2.5222482907 -0.3870641591
| 21> O -1.5993520552 2.0352118399 0.0661925817
| 22> O -3.0967931756 -1.7058188542 0.40709623
| 23> H -2.4183170773 -1.011708145 -1.4240608845
| 24> H -3.1726146062 0.2197810284 -0.3544628341
| 25> H 1.2732802073 -3.0410948739 -0.0533647491
| 26> H 2.9666320518 0.1723857393 1.2980290134
| 27> H 2.1379648592 2.5675474854 -0.278270025
| 28> H -1.2268986411 2.901619977 -0.1615952594
| 29> H -3.9520119614 -1.9690909491 0.0384563518
| 30> *
| 31> 
| 32>                          ****END OF INPUT****
================================================================================

                       ****************************
                       * Single Point Calculation *
                       ****************************

---------------------------------
CARTESIAN COORDINATES (ANGSTROEM)
---------------------------------
  C     -2.548559   -0.680512   -0.387609
  C     -1.175544   -0.313345    0.169195
  H     -1.249536   -0.268240    1.267013
  C     -0.696274    1.047788   -0.353392
  H     -0.649486    1.009606   -1.452879
  C      0.716469    1.318477    0.178760
  H      0.658512    1.424333    1.276325
  C      1.653652    0.148984   -0.161780
  H      1.773008    0.082061   -1.248584
  C      1.024303   -1.165633    0.329125
  H      0.950927   -1.134406    1.441322
  O     -0.265940   -1.328505   -0.206660
  O      1.801377   -2.227345   -0.084022
  O      2.938737    0.377113    0.351976
  O      1.175396    2.522248   -0.387064
  O     -1.599352    2.035212    0.066193
  O     -3.096793   -1.705819    0.407096
  H     -2.418317   -1.011708   -1.424061
  H     -3.172615    0.219781   -0.354463
  H      1.273280   -3.041095   -0.053365
  H      2.966632    0.172386    1.298029
  H      2.137965    2.567547   -0.278270
  H     -1.226899    2.901620   -0.161595
  H     -3.952012   -1.969091    0.038456

----------------------------
CARTESIAN COORDINATES (A.U.)
----------------------------
  NO LB      ZA    FRAG     MASS         X           Y           Z
   0 C     6.0000    0    12.011   -4.816079   -1.285982   -0.732475
   1 C     6.0000    0    12.011   -2.221456   -0.592136    0.319733
   2 H     1.0000    0     1.008   -2.361280   -0.506901    2.394308
   3 C     6.0000    0    12.011   -1.315767    1.980032   -0.667814
   4 H     1.0000    0     1.008   -1.227351    1.907879   -2.745544
   5 C     6.0000    0    12.011    1.353930    2.491561    0.337807
   6 H     1.0000    0     1.008    1.244407    2.691600    2.411905
   7 C     6.0000    0    12.011    3.124949    0.281539   -0.305719
   8 H     1.0000    0     1.008    3.350499    0.155072   -2.359482
   9 C     6.0000    0    12.011    1.935653   -2.202727    0.621957
  10 H     1.0000    0     1.008    1.796991   -2.143717    2.723704
  11 O     8.0000    0    15.999   -0.502553   -2.510511   -0.390531
  12 O     8.0000    0    15.999    3.404109   -4.209071   -0.158779
  13 O     8.0000    0    15.999    5.553409    0.712640    0.665139
  14 O     8.0000    0    15.999    2.221177    4.766359   -0.731445
  15 O     8.0000    0    15.999   -3.022337    3.845993    0.125086
  16 O     8.0000    0    15.999   -5.852091   -3.223530    0.769300
  17 H     1.0000    0     1.008   -4.569957   -1.911851   -2.691085
  18 H     1.0000    0     1.008   -5.995373    0.415326   -0.669838
  19 H     1.0000    0     1.008    2.406151   -5.746836   -0.100845
  20 H     1.0000    0     1.008    5.606122    0.325762    2.452919
  21 H     1.0000    0     1.008    4.040168    4.851962   -0.525854
  22 H     1.0000    0     1.008   -2.318502    5.483267   -0.305371
  23 H     1.0000    0     1.008   -7.468220   -3.721043    0.072672

--------------------------------
INTERNAL COORDINATES (ANGSTROEM)
--------------------------------
 C      0   0   0     0.000000000000     0.00000000     0.00000000
 C      1   0   0     1.526438683595     0.00000000     0.00000000
 H      2   1   0     1.101232943003   108.24359103     0.00000000
 C      2   1   3     1.534756805590   111.71630752   240.09191173
 H      4   2   1     1.101144215896   108.81455360   301.05767286
 C      4   2   1     1.533721331917   109.02784689   183.16876560
 H      6   4   2     1.104180239897   108.26791104   294.48248921
 C      6   4   2     1.536877622292   110.51873726    53.77119337
 H      8   6   4     1.095385154698   109.43755268    65.13870789
 C      8   6   4     1.537948316713   109.28027843   307.06172796
 H     10   8   6     1.115051774246   108.74566962   295.76677522
 O     10   8   6     1.406527659203   110.65703425    55.25758774
 O     10   8   6     1.379045346791   109.38273771   174.46376181
 O      8   6   4     1.402652185252   110.71771425   181.47043614
 O      6   4   2     1.407066532765   108.17364565   175.83180239
 O      4   2   1     1.402357805884   108.75281927    61.50516832
 O      1   2   3     1.408321667425   108.62884449   317.06363100
 H      1   2   3     1.095849561203   108.10710766   196.40916868
 H      1   2   3     1.095934203938   107.67171585    77.42023872
 H     13  10   8     0.970574897570   109.23421145   199.40354490
 H     14   8   6     0.968352704463   110.47792979    79.35938878
 H     15   6   4     0.969755657602   108.57773332   196.81604602
 H     16   4   2     0.970191685318   108.13938507   172.29982446
 H     17   1   2     0.967784442599   109.09342135   182.29494106

---------------------------
INTERNAL COORDINATES (A.U.)
---------------------------
 C      0   0   0     0.000000000000     0.00000000     0.00000000
 C      1   0   0     2.884551072218     0.00000000     0.00000000
 H      2   1   0     2.081028671927   108.24359103     0.00000000
 C      2   1   3     2.900270044736   111.71630752   240.09191173
 H      4   2   1     2.080861001995   108.81455360   301.05767286
 C      4   2   1     2.898313283077   109.02784689   183.16876560
 H      6   4   2     2.086598255893   108.26791104   294.48248921
 C      6   4   2     2.904277807485   110.51873726    53.77119337
 H      8   6   4     2.069977953542   109.43755268    65.13870789
 C      8   6   4     2.906301126713   109.28027843   307.06172796
 H     10   8   6     2.107142478468   108.74566962   295.76677522
 O     10   8   6     2.657952075680   110.65703425    55.25758774
 O     10   8   6     2.606018031693   109.38273771   174.46376181
 O      8   6   4     2.650628491272   110.71771425   181.47043614
 O      6   4   2     2.658970399132   108.17364565   175.83180239
 O      4   2   1     2.650072194887   108.75281927    61.50516832
 O      1   2   3     2.661342259900   108.62884449   317.06363100
 H      1   2   3     2.070855554652   108.10710766   196.40916868
 H      1   2   3     2.071015506240   107.67171585    77.42023872
 H     13  10   8     1.834120748865   109.23421145   199.40354490
 H     14   8   6     1.829921412478   110.47792979    79.35938878
 H     15   6   4     1.832572609689   108.57773332   196.81604602
 H     16   4   2     1.833396582659   108.13938507   172.29982446
 H     17   1   2     1.828847553183   109.09342135   182.29494106

---------------------
BASIS SET INFORMATION
---------------------
There are 3 groups of distinct atoms

 Group   1 Type C   : 7s4p1d contracted to 3s2p1d pattern {511/31/1}
 Group   2 Type H   : 4s contracted to 2s pattern {31}
 Group   3 Type O   : 7s4p1d contracted to 3s2p1d pattern {511/31/1}

Atom   0C    basis set group =>   1
Atom   1C    basis set group =>   1
Atom   2H    basis set group =>   2
Atom   3C    basis set group =>   1
Atom   4H    basis set group =>   2
Atom   5C    basis set group =>   1
Atom   6H    basis set group =>   2
Atom   7C    basis set group =>   1
Atom   8H    basis set group =>   2
Atom   9C    basis set group =>   1
Atom  10H    basis set group =>   2
Atom  11O    basis set group =>   3
Atom  12O    basis set group =>   3
Atom  13O    basis set group =>   3
Atom  14O    basis set group =>   3
Atom  15O    basis set group =>   3
Atom  16O    basis set group =>   3
Atom  17H    basis set group =>   2
Atom  18H    basis set group =>   2
Atom  19H    basis set group =>   2
Atom  20H    basis set group =>   2
Atom  21H    basis set group =>   2
Atom  22H    basis set group =>   2
Atom  23H    basis set group =>   2
---------------------------------
AUXILIARY/J BASIS SET INFORMATION
---------------------------------
There are 3 groups of distinct atoms

 Group   1 Type C   : 12s5p4d2f1g contracted to 6s4p3d1f1g pattern {711111/2111/211/2/1}
 Group   2 Type H   : 5s2p1d contracted to 3s1p1d pattern {311/2/1}
 Group   3 Type O   : 12s5p4d2f1g contracted to 6s4p3d1f1g pattern {711111/2111/211/2/1}

Atom   0C    basis set group =>   1
Atom   1C    basis set group =>   1
Atom   2H    basis set group =>   2
Atom   3C    basis set group =>   1
Atom   4H    basis set group =>   2
Atom   5C    basis set group =>   1
Atom   6H    basis set group =>   2
Atom   7C    basis set group =>   1
Atom   8H    basis set group =>   2
Atom   9C    basis set group =>   1
Atom  10H    basis set group =>   2
Atom  11O    basis set group =>   3
Atom  12O    basis set group =>   3
Atom  13O    basis set group =>   3
Atom  14O    basis set group =>   3
Atom  15O    basis set group =>   3
Atom  16O    basis set group =>   3
Atom  17H    basis set group =>   2
Atom  18H    basis set group =>   2
Atom  19H    basis set group =>   2
Atom  20H    basis set group =>   2
Atom  21H    basis set group =>   2
Atom  22H    basis set group =>   2
Atom  23H    basis set group =>   2
------------------------------------------------------------------------------
                             ORCA STARTUP CALCULATIONS
                           -- RI-GTO INTEGRALS CHOSEN --
------------------------------------------------------------------------------
------------------------------------------------------------------------------
                   ___                                                        
                  /   \      - P O W E R E D   B Y -                         
                 /     \                                                     
                 |  |  |   _    _      __       _____    __    __             
                 |  |  |  | |  | |    /  \     |  _  \  |  |  /  |          
                  \  \/   | |  | |   /    \    | | | |  |  | /  /          
                 / \  \   | |__| |  /  /\  \   | |_| |  |  |/  /          
                |  |  |   |  __  | /  /__\  \  |    /   |      \           
                |  |  |   | |  | | |   __   |  |    \   |  |\   \          
                \     /   | |  | | |  |  |  |  | |\  \  |  | \   \       
                 \___/    |_|  |_| |__|  |__|  |_| \__\ |__|  \__/        
                                                                              
                      - O R C A' S   B I G   F R I E N D -                    
                                      &                                       
                       - I N T E G R A L  F E E D E R -                       
                                                                              
 v1 FN, 2020, v2 2021, v3 2022-2024                                           
------------------------------------------------------------------------------


----------------------
SHARK INTEGRAL PACKAGE
----------------------

Number of atoms                             ...     24
Number of basis functions                   ...    192
Number of shells                            ...     96
Maximum angular momentum                    ...      2
Integral batch strategy                     ... SHARK/LIBINT Hybrid
RI-J (if used) integral strategy            ... SPLIT-RIJ (Revised 2003 algorithm where possible)
Printlevel                                  ...      1
Contraction scheme used                     ... SEGMENTED contraction
Prescreening option                         ... SCHWARTZ
   Thresh                                   ... 1.000e-09
   Tcut                                     ... 1.000e-10
   Tpresel                                  ... 1.000e-10 
Coulomb Range Separation                    ... NOT USED
Exchange Range Separation                   ... NOT USED
Multipole approximations                    ... NOT USED
Finite Nucleus Model                        ... NOT USED
CABS basis                                  ... NOT available
Auxiliary Coulomb fitting basis             ... AVAILABLE
   # of basis functions in Aux-J            ...    720
   # of shells in Aux-J                     ...    240
   Maximum angular momentum in Aux-J        ...      4
Auxiliary J/K fitting basis                 ... NOT available
Auxiliary Correlation fitting basis         ... NOT available
Auxiliary 'external' fitting basis          ... NOT available

Checking pre-screening integrals            ... done (  0.0 sec) Dimension = 96
Check shell pair data                       ... done (  0.0 sec)
Shell pair information
Shell pair cut-off parameter TPreSel        ...   1.0e-10
Total number of shell pairs                 ...      4656
Shell pairs after pre-screening             ...      4110
Total number of primitive shell pairs       ...     18720
Primitive shell pairs kept                  ...     11009
          la=0 lb=0:   1601 shell pairs
          la=1 lb=0:   1307 shell pairs
          la=1 lb=1:    283 shell pairs
          la=2 lb=0:    599 shell pairs
          la=2 lb=1:    256 shell pairs
          la=2 lb=2:     64 shell pairs

Calculating one electron integrals          ... done (  0.0 sec)
Calculating RI/J V-Matrix + Cholesky decomp.... done (  0.1 sec)
Calculating Nuclear repulsion               ... done (  0.0 sec) ENN=    824.030821239777 Eh

Diagonalization of the overlap matrix:
Smallest eigenvalue                        ... 9.783e-04
Time for diagonalization                   ...    0.004 sec
Threshold for overlap eigenvalues          ... 1.000e-07
Number of eigenvalues below threshold      ... 0
Time for construction of square roots      ...    0.012 sec
Total time needed                          ...    0.023 sec

-------------------
DFT GRID GENERATION
-------------------

General Integration Accuracy     IntAcc      ... 4.159
Radial Grid Type                 RadialGrid  ... OptM3 with GC (2021)
Angular Grid (max. ang.)         AngularGrid ... 3 (Lebedev-194)
Angular grid pruning method      GridPruning ... 4 (adaptive)
Weight generation scheme         WeightScheme... mBecke (2022)
Basis function cutoff            BFCut       ... 1.0000e-10
Integration weight cutoff        WCut        ... 1.0000e-14
Partially contracted basis set               ... off
Rotationally invariant grid construction     ... off
Angular grids for H and He will be reduced by one unit

Total number of grid points                  ...    55794
Total number of batches                      ...      883
Average number of points per batch           ...       63
Average number of grid points per atom       ...     2325
Initializing property integral containers    ... done (  0.0 sec)

SHARK setup successfully completed in   0.9 seconds

Maximum memory used throughout the entire STARTUP-calculation: 27.9 MB
-------------------------------------------------------------------------------
                                 ORCA GUESS
                   Start orbitals & Density for SCF / CASSCF
-------------------------------------------------------------------------------

------------
SCF SETTINGS
------------
Hamiltonian:
 Density Functional     Method          .... DFT(GTOs)
 Exchange Functional    Exchange        .... PBE
   PBE kappa parameter   XKappa         ....  0.804000
   PBE mue parameter    XMuePBE         ....  0.219520
 Correlation Functional Correlation     .... PBE
   PBE beta parameter  CBetaPBE         ....  0.066725
 LDA part of GGA corr.  LDAOpt          .... PW91-LDA
 Gradients option       PostSCFGGA      .... off
   NL short-range parameter             ....  6.400000
 RI-approximation to the Coulomb term is turned on
   Number of AuxJ basis functions       .... 720


General Settings:
 Integral files         IntName         .... sp
 Hartree-Fock type      HFTyp           .... RHF
 Total Charge           Charge          ....    0
 Multiplicity           Mult            ....    1
 Number of Electrons    NEL             ....   96
 Basis Dimension        Dim             ....  192
 Nuclear Repulsion      ENuc            ....    824.0308212398 Eh

Convergence Acceleration:
 AO-DIIS                CNVDIIS         .... on
   Start iteration      DIISMaxIt       ....    12
   Startup error        DIISStart       ....  0.200000
   # of expansion vecs  DIISMaxEq       ....     5
   Bias factor          DIISBfac        ....   1.050
   Max. coefficient     DIISMaxC        ....  10.000
 MO-DIIS                CNVKDIIS        .... off
 Trust-Rad. Augm. Hess. CNVTRAH         .... auto
   Auto Start mean grad. ratio tolernc. ....  1.125000
   Auto Start start iteration           ....    50
   Auto Start num. interpolation iter.  ....    10
   Max. Number of Micro iterations      ....    24
   Max. Number of Macro iterations      .... Maxiter - #DIIS iter
   Number of Davidson start vectors     ....     2
   Converg. threshold    (grad. norm)   ....   1.000e-04
   Grad. Scal. Fac. for Micro threshold ....   0.100
   Minimum threshold for Micro iter.    ....   1.000e-02
   NR start threshold (gradient norm)   ....   1.000e-04
   Initial trust radius                 ....   0.400
   Minimum AH scaling param. (alpha)    ....   1.000
   Maximum AH scaling param. (alpha)    .... 1000.000
   Quad. conv. algorithm                .... NR
   White noise on init. David. guess    .... on
   Maximum white noise                  ....   0.010
   Pseudo random numbers                .... off
   Inactive MOs                         .... canonical
   Orbital update algorithm             .... Taylor
   Preconditioner                       .... Diag
   Full preconditioner red. dimension   ....   250
 SOSCF                  CNVSOSCF        .... on
   Start iteration      SOSCFMaxIt      ....   150
   Startup grad/error   SOSCFStart      ....  0.003300
   Hessian update       SOSCFHessUp     .... L-BFGS
 Level Shifting         CNVShift        .... on
   Level shift para.    LevelShift      ....    0.2500
   Turn off err/grad.   ShiftErr        ....    0.0010
 Zerner damping         CNVZerner       .... off
 Static damping         CNVDamp         .... on
   Fraction old density DampFac         ....    0.7000
   Max. Damping (<1)    DampMax         ....    0.9800
   Min. Damping (>=0)   DampMin         ....    0.0000
   Turn off err/grad.   DampErr         ....    0.1000

SCF Procedure:
 Maximum # iterations   MaxIter         ....   125
 SCF integral mode      SCFMode         .... Direct
   Integral package                     .... SHARK and LIBINT hybrid scheme
 Reset frequency        DirectResetFreq ....    20
 Integral Threshold     Thresh          ....  1.000e-09 Eh
 Primitive CutOff       TCut            ....  1.000e-10 Eh

Convergence Tolerance:
 Convergence Check Mode ConvCheckMode   .... Total+1el-Energy
 Convergence forced     ConvForced      .... 0
 Energy Change          TolE            ....  1.000e-05 Eh
 1-El. energy change                    ....  1.000e-02 Eh
 Orbital Gradient       TolG            ....  1.000e-04
 Orbital Rotation angle TolX            ....  1.000e-04
 DIIS Error             TolErr          ....  5.000e-04

------------------------------
INITIAL GUESS: MODEL POTENTIAL
------------------------------
Loading Hartree-Fock densities                     ... done
Calculating cut-offs                               ... done
Initializing the effective Hamiltonian             ... done
Setting up the integral package (SHARK)            ... done
Starting the Coulomb interaction                   ... done (   0.2 sec)
Making the grid                                    ... done (   0.3 sec)
Mapping shells                                     ... done
Starting the XC term evaluation                    ... done (   0.3 sec)
  promolecular density results
     # of electrons  =     95.994265176
     EX              =    -83.241026100
     EC              =     -3.267884564
     EX+EC           =    -86.508910663
Transforming the Hamiltonian                       ... done (   0.0 sec)
Diagonalizing the Hamiltonian                      ... done (   0.0 sec)
Back transforming the eigenvectors                 ... done (   0.0 sec)
Now organizing SCF variables                       ... done
                      ------------------
                      INITIAL GUESS DONE (   0.8 sec)
                      ------------------
             **** ENERGY FILE WAS UPDATED (sp.en.tmp) ****
Finished Guess after   1.0 sec
Maximum memory used throughout the entire GUESS-calculation: 21.6 MB

-------------------------------------------------------------------------------------------
                                      ORCA LEAN-SCF
                              memory conserving SCF solver
-------------------------------------------------------------------------------------------

----------------------------------------D-I-I-S--------------------------------------------
Iteration    Energy (Eh)           Delta-E    RMSDP     MaxDP     DIISErr   Damp  Time(sec)
-------------------------------------------------------------------------------------------
               ***  Starting incremental Fock matrix formation  ***
    1    -685.5163648610957807     0.00e+00  5.45e-03  1.72e-01  2.31e-01  0.700   1.2
    2    -685.6703961820051063    -1.54e-01  3.46e-03  1.12e-01  9.18e-02  0.700   1.2
                               ***Turning on AO-DIIS***
    3    -685.7184041358805189    -4.80e-02  1.12e-03  2.53e-02  2.12e-02  0.700   1.1
    4    -685.7505535150539799    -3.21e-02  1.38e-03  2.20e-02  1.00e-02  0.000   1.0
    5    -685.8252271400460813    -7.47e-02  4.81e-04  1.48e-02  6.26e-03  0.000   1.0
                              *** Initializing SOSCF ***
---------------------------------------S-O-S-C-F--------------------------------------
Iteration    Energy (Eh)           Delta-E    RMSDP     MaxDP     MaxGrad    Time(sec)
--------------------------------------------------------------------------------------
    6    -685.8255903496083192    -3.63e-04  1.45e-04  3.29e-03  1.45e-03     1.0
               *** Restarting incremental Fock matrix formation ***
    7    -685.8256188341470079    -2.85e-05  1.03e-04  2.37e-03  1.54e-04     1.2
    8    -685.8256177624245993     1.07e-06  4.26e-05  1.17e-03  2.46e-04     1.0
                 **** Energy Check signals convergence ****

               *****************************************************
               *                     SUCCESS                       *
               *           SCF CONVERGED AFTER   8 CYCLES          *
               *****************************************************

             **** ENERGY FILE WAS UPDATED (sp.en.tmp) ****

----------------
TOTAL SCF ENERGY
----------------

Total Energy       :       -685.82561776242460 Eh          -18662.26383 eV

Components:
Nuclear Repulsion  :        824.03082123977651 Eh           22423.01861 eV
Electronic Energy  :      -1509.85643900220111 Eh          -41085.28244 eV
One Electron Energy:      -2577.29244391235125 Eh          -70131.69283 eV
Two Electron Energy:       1067.43600491015013 Eh           29046.41038 eV

Virial components:
Potential Energy   :      -1366.92737058700709 Eh          -37195.98476 eV
Kinetic Energy     :        681.10175282458249 Eh           18533.72093 eV
Virial Ratio       :          2.00693562293483

DFT components:
N(Alpha)           :       48.000037101346 electrons
N(Beta)            :       48.000037101346 electrons
N(Total)           :       96.000074202693 electrons
E(X)               :      -84.604093451411 Eh       
E(C)               :       -3.280231059307 Eh       
E(XC)              :      -87.884324510717 Eh       

---------------
SCF CONVERGENCE
---------------

  Last Energy change         ...   -1.0717e-06  Tolerance :   1.0000e-05
  Last MAX-Density change    ...    1.1743e-03  Tolerance :   1.0000e-03
  Last RMS-Density change    ...    4.2638e-05  Tolerance :   1.0000e-04
  Last DIIS Error            ...    1.4499e-03  Tolerance :   5.0000e-04
  Last Orbital Gradient      ...    2.4581e-04  Tolerance :   1.0000e-04
  Last Orbital Rotation      ...    1.5339e-04  Tolerance :   1.0000e-04


----------------
ORBITAL ENERGIES
----------------

  NO   OCC          E(Eh)            E(eV) 
   0   2.0000     -18.773419      -510.8507 
   1   2.0000     -18.763229      -510.5734 
   2   2.0000     -18.759605      -510.4748 
   3   2.0000     -18.755068      -510.3513 
   4   2.0000     -18.752631      -510.2850 
   5   2.0000     -18.745311      -510.0858 
   6   2.0000      -9.991256      -271.8759 
   7   2.0000      -9.944987      -270.6168 
   8   2.0000      -9.942980      -270.5622 
   9   2.0000      -9.942933      -270.5610 
  10   2.0000      -9.942160      -270.5399 
  11   2.0000      -9.929019      -270.1824 
  12   2.0000      -0.986922       -26.8555 
  13   2.0000      -0.949079       -25.8258 
  14   2.0000      -0.938012       -25.5246 
  15   2.0000      -0.922895       -25.1132 
  16   2.0000      -0.917323       -24.9616 
  17   2.0000      -0.912178       -24.8216 
  18   2.0000      -0.705653       -19.2018 
  19   2.0000      -0.694128       -18.8882 
  20   2.0000      -0.618735       -16.8366 
  21   2.0000      -0.580317       -15.7912 
  22   2.0000      -0.559398       -15.2220 
  23   2.0000      -0.535172       -14.5628 
  24   2.0000      -0.508254       -13.8303 
  25   2.0000      -0.489681       -13.3249 
  26   2.0000      -0.468621       -12.7518 
  27   2.0000      -0.460274       -12.5247 
  28   2.0000      -0.453243       -12.3334 
  29   2.0000      -0.435907       -11.8616 
  30   2.0000      -0.424792       -11.5592 
  31   2.0000      -0.399199       -10.8627 
  32   2.0000      -0.384890       -10.4734 
  33   2.0000      -0.374805       -10.1990 
  34   2.0000      -0.357254        -9.7214 
  35   2.0000      -0.354166        -9.6373 
  36   2.0000      -0.324543        -8.8313 
  37   2.0000      -0.311385        -8.4732 
  38   2.0000      -0.306568        -8.3421 
  39   2.0000      -0.293319        -7.9816 
  40   2.0000      -0.291836        -7.9413 
  41   2.0000      -0.267917        -7.2904 
  42   2.0000      -0.253475        -6.8974 
  43   2.0000      -0.245397        -6.6776 
  44   2.0000      -0.234016        -6.3679 
  45   2.0000      -0.220368        -5.9965 
  46   2.0000      -0.213382        -5.8064 
  47   2.0000      -0.203362        -5.5338 
  48   0.0000       0.013550         0.3687 
  49   0.0000       0.026692         0.7263 
  50   0.0000       0.031948         0.8694 
  51   0.0000       0.044514         1.2113 
  52   0.0000       0.053094         1.4448 
  53   0.0000       0.065842         1.7916 
  54   0.0000       0.075642         2.0583 
  55   0.0000       0.096571         2.6278 
  56   0.0000       0.103058         2.8043 
  57   0.0000       0.112140         3.0515 
  58   0.0000       0.115076         3.1314 
*Only the first 10 virtual orbitals were printed.

                    ********************************
                    * MULLIKEN POPULATION ANALYSIS *
                    ********************************

-----------------------
MULLIKEN ATOMIC CHARGES
-----------------------
   0 C :    0.073824
   1 C :    0.013344
   2 H :    0.062751
   3 C :    0.060009
   4 H :    0.055695
   5 C :    0.065093
   6 H :    0.036061
   7 C :    0.035504
   8 H :    0.074147
   9 C :    0.182112
  10 H :    0.020011
  11 O :   -0.307660
  12 O :   -0.372544
  13 O :   -0.412064
  14 O :   -0.425875
  15 O :   -0.416338
  16 O :   -0.434331
  17 H :    0.067140
  18 H :    0.089793
  19 H :    0.309555
  20 H :    0.302808
  21 H :    0.307912
  22 H :    0.313047
  23 H :    0.300006
Sum of atomic charges:   -0.0000000

--------------------------------
MULLIKEN REDUCED ORBITAL CHARGES
--------------------------------
  0 C s       :     2.992417  s :     2.992417
      pz      :     0.972032  p :     2.871428
      px      :     1.007677
      py      :     0.891720
      dz2     :     0.016297  d :     0.062330
      dxz     :     0.008465
      dyz     :     0.011542
      dx2y2   :     0.011898
      dxy     :     0.014129

  1 C s       :     3.071397  s :     3.071397
      pz      :     1.045162  p :     2.848570
      px      :     0.960159
      py      :     0.843249
      dz2     :     0.016189  d :     0.066689
      dxz     :     0.008986
      dyz     :     0.009392
      dx2y2   :     0.014936
      dxy     :     0.017184

  2 H s       :     0.937249  s :     0.937249

  3 C s       :     3.048474  s :     3.048474
      pz      :     1.025975  p :     2.822973
      px      :     0.902350
      py      :     0.894649
      dz2     :     0.017387  d :     0.068544
      dxz     :     0.009589
      dyz     :     0.010530
      dx2y2   :     0.015116
      dxy     :     0.015922

  4 H s       :     0.944305  s :     0.944305

  5 C s       :     3.041904  s :     3.041904
      pz      :     0.984644  p :     2.825260
      px      :     0.995068
      py      :     0.845548
      dz2     :     0.018624  d :     0.067743
      dxz     :     0.007042
      dyz     :     0.012696
      dx2y2   :     0.015255
      dxy     :     0.014125

  6 H s       :     0.963939  s :     0.963939

  7 C s       :     3.044984  s :     3.044984
      pz      :     1.066467  p :     2.852416
      px      :     0.819224
      py      :     0.966725
      dz2     :     0.015922  d :     0.067096
      dxz     :     0.011912
      dyz     :     0.005663
      dx2y2   :     0.014986
      dxy     :     0.018613

  8 H s       :     0.925853  s :     0.925853

  9 C s       :     3.037155  s :     3.037155
      pz      :     0.984728  p :     2.678463
      px      :     0.785550
      py      :     0.908185
      dz2     :     0.023831  d :     0.102269
      dxz     :     0.017948
      dyz     :     0.012600
      dx2y2   :     0.022941
      dxy     :     0.024950

 10 H s       :     0.979989  s :     0.979989

 11 O s       :     3.764944  s :     3.764944
      pz      :     1.710698  p :     4.527305
      px      :     1.235713
      py      :     1.580894
      dz2     :     0.002126  d :     0.015411
      dxz     :     0.003607
      dyz     :     0.002406
      dx2y2   :     0.003525
      dxy     :     0.003748

 12 O s       :     3.759903  s :     3.759903
      pz      :     1.827226  p :     4.597053
      px      :     1.581519
      py      :     1.188308
      dz2     :     0.002868  d :     0.015588
      dxz     :     0.002177
      dyz     :     0.001161
      dx2y2   :     0.001809
      dxy     :     0.007574

 13 O s       :     3.783869  s :     3.783869
      pz      :     1.300816  p :     4.612750
      px      :     1.463565
      py      :     1.848369
      dz2     :     0.007042  d :     0.015446
      dxz     :     0.001635
      dyz     :     0.001360
      dx2y2   :     0.003059
      dxy     :     0.002350

 14 O s       :     3.776412  s :     3.776412
      pz      :     1.797267  p :     4.634426
      px      :     1.312508
      py      :     1.524652
      dz2     :     0.002613  d :     0.015036
      dxz     :     0.001134
      dyz     :     0.002828
      dx2y2   :     0.007056
      dxy     :     0.001404

 15 O s       :     3.784962  s :     3.784962
      pz      :     1.815639  p :     4.615998
      px      :     1.603922
      py      :     1.196437
      dz2     :     0.002247  d :     0.015378
      dxz     :     0.002512
      dyz     :     0.002146
      dx2y2   :     0.002968
      dxy     :     0.005507

 16 O s       :     3.787895  s :     3.787895
      pz      :     1.651906  p :     4.630992
      px      :     1.385113
      py      :     1.593973
      dz2     :     0.002164  d :     0.015444
      dxz     :     0.004230
      dyz     :     0.003559
      dx2y2   :     0.004026
      dxy     :     0.001465

 17 H s       :     0.932860  s :     0.932860

 18 H s       :     0.910207  s :     0.910207

 19 H s       :     0.690445  s :     0.690445

 20 H s       :     0.697192  s :     0.697192

 21 H s       :     0.692088  s :     0.692088

 22 H s       :     0.686953  s :     0.686953

 23 H s       :     0.699994  s :     0.699994


------------------------
MULLIKEN OVERLAP CHARGES
------------------------
B(  0-C ,  1-C ) :   0.5200 B(  0-C ,  2-H ) :  -0.0898 B(  0-C ,  4-H ) :  -0.0508 
B(  0-C , 11-O ) :  -0.0800 B(  0-C , 16-O ) :   0.7299 B(  0-C , 17-H ) :   0.6473 
B(  0-C , 18-H ) :   0.7167 B(  0-C , 23-H ) :  -0.0636 B(  1-C ,  2-H ) :   0.6035 
B(  1-C ,  3-C ) :  -0.0908 B(  1-C ,  5-C ) :   0.0630 B(  1-C ,  9-C ) :  -0.0943 
B(  1-C , 11-O ) :   0.5456 B(  1-C , 15-O ) :  -0.0919 B(  1-C , 16-O ) :  -0.1415 
B(  1-C , 18-H ) :  -0.0943 B(  2-H ,  5-C ) :  -0.0541 B(  2-H , 11-O ) :  -0.0712 
B(  3-C ,  4-H ) :   0.5798 B(  3-C ,  5-C ) :   0.2012 B(  3-C ,  6-H ) :  -0.0737 
B(  3-C , 14-O ) :  -0.1292 B(  3-C , 15-O ) :   0.5596 B(  3-C , 22-H ) :  -0.1008 
B(  4-H ,  5-C ) :  -0.0894 B(  4-H , 15-O ) :  -0.0705 B(  5-C ,  6-H ) :   0.5607 
B(  5-C ,  7-C ) :   0.2024 B(  5-C , 13-O ) :  -0.1081 B(  5-C , 14-O ) :   0.6676 
B(  5-C , 15-O ) :  -0.0501 B(  5-C , 21-H ) :  -0.1015 B(  6-H , 14-O ) :  -0.0844 
B(  7-C ,  8-H ) :   0.5241 B(  7-C ,  9-C ) :   0.0908 B(  7-C , 10-H ) :  -0.1823 
B(  7-C , 11-O ) :  -0.0513 B(  7-C , 12-O ) :  -0.1368 B(  7-C , 13-O ) :   0.5746 
B(  7-C , 14-O ) :  -0.0621 B(  7-C , 20-H ) :  -0.1141 B(  8-H , 13-O ) :  -0.0740 
B(  9-C , 10-H ) :   0.7117 B(  9-C , 11-O ) :   0.5709 B(  9-C , 12-O ) :   0.7816 
B(  9-C , 19-H ) :  -0.0637 B( 10-H , 11-O ) :  -0.1026 B( 10-H , 12-O ) :  -0.0939 
B( 11-O , 12-O ) :  -0.1173 B( 12-O , 19-H ) :   0.5209 B( 13-O , 20-H ) :   0.5372 
B( 13-O , 21-H ) :   0.0549 B( 14-O , 21-H ) :   0.5295 B( 15-O , 22-H ) :   0.5295 
B( 16-O , 17-H ) :  -0.0641 B( 16-O , 18-H ) :  -0.0645 B( 16-O , 23-H ) :   0.5164 
B( 17-H , 18-H ) :  -0.0831 


                     *******************************
                     * LOEWDIN POPULATION ANALYSIS *
                     *******************************

----------------------
LOEWDIN ATOMIC CHARGES
----------------------
   0 C :   -0.125592
   1 C :   -0.054333
   2 H :    0.110641
   3 C :   -0.067414
   4 H :    0.105258
   5 C :   -0.084950
   6 H :    0.095020
   7 C :   -0.092784
   8 H :    0.124540
   9 C :   -0.000536
  10 H :    0.071166
  11 O :   -0.144699
  12 O :   -0.295706
  13 O :   -0.306107
  14 O :   -0.328740
  15 O :   -0.316872
  16 O :   -0.344305
  17 H :    0.101674
  18 H :    0.108402
  19 H :    0.292331
  20 H :    0.287752
  21 H :    0.286994
  22 H :    0.291734
  23 H :    0.286526

-------------------------------
LOEWDIN REDUCED ORBITAL CHARGES
-------------------------------
  0 C s       :     2.919116  s :     2.919116
      pz      :     1.036136  p :     3.064345
      px      :     1.049430
      py      :     0.978779
      dz2     :     0.037253  d :     0.142131
      dxz     :     0.019174
      dyz     :     0.025570
      dx2y2   :     0.027947
      dxy     :     0.032188

  1 C s       :     2.895930  s :     2.895930
      pz      :     1.090382  p :     3.004236
      px      :     0.973997
      py      :     0.939856
      dz2     :     0.037912  d :     0.154168
      dxz     :     0.020235
      dyz     :     0.020907
      dx2y2   :     0.036131
      dxy     :     0.038983

  2 H s       :     0.889359  s :     0.889359

  3 C s       :     2.891550  s :     2.891550
      pz      :     1.079900  p :     3.015726
      px      :     0.978493
      py      :     0.957333
      dz2     :     0.040521  d :     0.160138
      dxz     :     0.021643
      dyz     :     0.023923
      dx2y2   :     0.036853
      dxy     :     0.037198

  4 H s       :     0.894742  s :     0.894742

  5 C s       :     2.897853  s :     2.897853
      pz      :     1.057058  p :     3.027703
      px      :     1.044942
      py      :     0.925703
      dz2     :     0.043773  d :     0.159394
      dxz     :     0.015714
      dyz     :     0.028585
      dx2y2   :     0.036265
      dxy     :     0.035057

  6 H s       :     0.904980  s :     0.904980

  7 C s       :     2.900226  s :     2.900226
      pz      :     1.079924  p :     3.034233
      px      :     0.900044
      py      :     1.054265
      dz2     :     0.037598  d :     0.158325
      dxz     :     0.025141
      dyz     :     0.012047
      dx2y2   :     0.034781
      dxy     :     0.048758

  8 H s       :     0.875460  s :     0.875460

  9 C s       :     2.886890  s :     2.886890
      pz      :     1.050132  p :     2.884288
      px      :     0.864488
      py      :     0.969668
      dz2     :     0.056545  d :     0.229358
      dxz     :     0.039700
      dyz     :     0.026891
      dx2y2   :     0.049435
      dxy     :     0.056787

 10 H s       :     0.928834  s :     0.928834

 11 O s       :     3.473947  s :     3.473947
      pz      :     1.747926  p :     4.640873
      px      :     1.293451
      py      :     1.599495
      dz2     :     0.003485  d :     0.029878
      dxz     :     0.007097
      dyz     :     0.003426
      dx2y2   :     0.007788
      dxy     :     0.008082

 12 O s       :     3.524073  s :     3.524073
      pz      :     1.847971  p :     4.744073
      px      :     1.630583
      py      :     1.265519
      dz2     :     0.004474  d :     0.027560
      dxz     :     0.002887
      dyz     :     0.002543
      dx2y2   :     0.003502
      dxy     :     0.014154

 13 O s       :     3.532253  s :     3.532253
      pz      :     1.380918  p :     4.746639
      px      :     1.522932
      py      :     1.842789
      dz2     :     0.012506  d :     0.027216
      dxz     :     0.003434
      dyz     :     0.002328
      dx2y2   :     0.005402
      dxy     :     0.003545

 14 O s       :     3.530310  s :     3.530310
      pz      :     1.827658  p :     4.772018
      px      :     1.380236
      py      :     1.564123
      dz2     :     0.003984  d :     0.026412
      dxz     :     0.001838
      dyz     :     0.004663
      dx2y2   :     0.012879
      dxy     :     0.003049

 15 O s       :     3.531704  s :     3.531704
      pz      :     1.841007  p :     4.758122
      px      :     1.647919
      py      :     1.269197
      dz2     :     0.003491  d :     0.027045
      dxz     :     0.003347
      dyz     :     0.003983
      dx2y2   :     0.005714
      dxy     :     0.010510

 16 O s       :     3.543462  s :     3.543462
      pz      :     1.701802  p :     4.774002
      px      :     1.442541
      py      :     1.629659
      dz2     :     0.003154  d :     0.026841
      dxz     :     0.006926
      dyz     :     0.006191
      dx2y2   :     0.007207
      dxy     :     0.003363

 17 H s       :     0.898326  s :     0.898326

 18 H s       :     0.891598  s :     0.891598

 19 H s       :     0.707669  s :     0.707669

 20 H s       :     0.712248  s :     0.712248

 21 H s       :     0.713006  s :     0.713006

 22 H s       :     0.708266  s :     0.708266

 23 H s       :     0.713474  s :     0.713474


---------------------------------
LOEWDIN BOND ORDERS (THRESH 0.050000)
---------------------------------
B(  0-C ,  1-C ) :   1.0694 B(  0-C ,  3-C ) :   0.0580 B(  0-C , 11-O ) :   0.0553 
B(  0-C , 16-O ) :   1.2376 B(  0-C , 17-H ) :   0.9041 B(  0-C , 18-H ) :   0.8989 
B(  1-C ,  2-H ) :   0.8605 B(  1-C ,  3-C ) :   1.0140 B(  1-C ,  5-C ) :   0.0600 
B(  1-C ,  9-C ) :   0.0704 B(  1-C , 11-O ) :   1.1293 B(  1-C , 15-O ) :   0.0608 
B(  1-C , 16-O ) :   0.0650 B(  3-C ,  4-H ) :   0.8655 B(  3-C ,  5-C ) :   1.0221 
B(  3-C ,  7-C ) :   0.0580 B(  3-C , 11-O ) :   0.0682 B(  3-C , 14-O ) :   0.0647 
B(  3-C , 15-O ) :   1.2239 B(  5-C ,  6-H ) :   0.8622 B(  5-C ,  7-C ) :   1.0204 
B(  5-C ,  9-C ) :   0.0606 B(  5-C , 13-O ) :   0.0824 B(  5-C , 14-O ) :   1.2174 
B(  5-C , 15-O ) :   0.0780 B(  7-C ,  8-H ) :   0.8655 B(  7-C ,  9-C ) :   1.0139 
B(  7-C , 11-O ) :   0.0716 B(  7-C , 12-O ) :   0.0646 B(  7-C , 13-O ) :   1.2255 
B(  7-C , 14-O ) :   0.0742 B(  9-C , 10-H ) :   0.8631 B(  9-C , 11-O ) :   1.1652 
B(  9-C , 12-O ) :   1.3006 B(  9-C , 13-O ) :   0.0749 B( 11-O , 12-O ) :   0.0761 
B( 12-O , 19-H ) :   0.8678 B( 13-O , 20-H ) :   0.8797 B( 14-O , 21-H ) :   0.8668 
B( 15-O , 22-H ) :   0.8722 B( 16-O , 23-H ) :   0.8881 

------------------------------------------
LOEWDIN REDUCED ORBITAL POPULATIONS PER MO
-------------------------------------------
THRESHOLD FOR PRINTING IS 0.1%%
                      0         1         2         3         4         5   
                 -18.77342 -18.76323 -18.75961 -18.75507 -18.75263 -18.74531
                   2.00000   2.00000   2.00000   2.00000   2.00000   2.00000
                  --------  --------  --------  --------  --------  --------
11 O  s              99.9       0.0       0.0       0.0       0.0       0.0
12 O  s               0.0       0.0      99.9       0.0       0.0       0.0
13 O  s               0.0      99.9       0.0       0.0       0.0       0.0
14 O  s               0.0       0.0       0.0      99.9       0.0       0.0
15 O  s               0.0       0.0       0.0       0.0      99.9       0.0
16 O  s               0.0       0.0       0.0       0.0       0.0      99.9

                      6         7         8         9        10        11   
                  -9.99126  -9.94499  -9.94298  -9.94293  -9.94216  -9.92902
                   2.00000   2.00000   2.00000   2.00000   2.00000   2.00000
                  --------  --------  --------  --------  --------  --------
 0 C  s               0.0       0.0       0.0       0.0       0.0      99.6
 1 C  s               0.0      99.6       0.0       0.0       0.0       0.0
 3 C  s               0.0       0.0      10.6      88.9       0.0       0.0
 5 C  s               0.0       0.0       0.0       0.1      99.5       0.0
 7 C  s               0.0       0.0      88.9      10.6       0.1       0.0
 9 C  s              99.6       0.0       0.0       0.0       0.0       0.0

                     12        13        14        15        16        17   
                  -0.98692  -0.94908  -0.93801  -0.92289  -0.91732  -0.91218
                   2.00000   2.00000   2.00000   2.00000   2.00000   2.00000
                  --------  --------  --------  --------  --------  --------
 0 C  s               0.5       0.0       0.9       7.1       0.0       2.4
 0 C  pz              0.1       0.0       0.2       1.7       0.0       0.7
 0 C  px              0.4       0.0       0.1       0.5       0.0       1.8
 0 C  py              0.0       0.0       0.1       2.9       0.0       1.8
 0 C  dyz             0.0       0.0       0.0       0.2       0.0       0.2
 0 C  dxy             0.0       0.0       0.0       0.2       0.0       0.1
 1 C  s               4.6       0.1       2.3       1.8       0.0       1.5
 1 C  pz              0.3       0.0       0.2       0.1       0.0       0.1
 1 C  px              2.1       0.1       0.1       0.2       0.1       2.8
 1 C  py              1.6       0.8       0.1       1.2       0.7       0.8
 1 C  dxy             0.2       0.0       0.0       0.0       0.0       0.2
 2 H  s               0.6       0.0       0.4       0.3       0.0       0.1
 3 C  s               0.8       2.4       6.4       0.2       2.1       0.0
 3 C  pz              0.1       0.2       0.5       0.0       0.2       0.0
 3 C  px              0.0       0.1       1.2       0.0       3.2       0.0
 3 C  py              0.3       1.4       1.6       1.1       1.4       0.7
 3 C  dxy             0.0       0.0       0.2       0.0       0.3       0.0
 4 H  s               0.1       0.3       0.8       0.0       0.2       0.0
 5 C  s               0.7       7.2       0.8       0.1       2.7       0.0
 5 C  pz              0.1       0.7       0.2       0.0       0.6       0.0
 5 C  px              0.0       0.8       1.4       0.0       1.5       0.0
 5 C  py              0.2       1.4       0.9       0.4       3.9       0.3
 5 C  dyz             0.0       0.1       0.0       0.0       0.2       0.0
 5 C  dx2y2           0.0       0.0       0.0       0.0       0.2       0.0
 5 C  dxy             0.0       0.0       0.0       0.0       0.2       0.0
 6 H  s               0.1       1.0       0.1       0.0       0.2       0.0
 7 C  s               2.7       5.5       2.6       0.4       0.4       0.1
 7 C  pz              0.3       0.7       0.6       0.1       0.2       0.0
 7 C  px              0.1       2.2       3.7       0.5       1.7       0.0
 7 C  py              0.8       1.7       0.1       0.1       0.3       0.0
 7 C  dxz             0.0       0.1       0.1       0.0       0.1       0.0
 7 C  dx2y2           0.0       0.1       0.1       0.1       0.1       0.0
 8 H  s               0.4       0.7       0.3       0.0       0.0       0.0
 9 C  s              15.7       0.3       0.4       0.4       0.0       0.1
 9 C  pz              1.7       0.1       0.0       0.0       0.0       0.0
 9 C  px              0.8       0.6       2.4       1.8       0.4       6.4
 9 C  py              1.5       1.3       0.1       2.0       0.0       3.0
 9 C  dz2             0.2       0.0       0.0       0.0       0.0       0.0
 9 C  dxz             0.0       0.0       0.0       0.1       0.0       0.2
 9 C  dx2y2           0.1       0.0       0.1       0.1       0.0       0.3
 9 C  dxy             0.1       0.0       0.0       0.1       0.0       0.3
10 H  s               1.8       0.0       0.0       0.0       0.0       0.0
11 O  s              29.3       2.3       2.8       3.3       0.8      14.9
11 O  pz              0.7       0.0       0.0       0.0       0.0       0.2
11 O  px              0.8       0.0       0.1       0.3       0.0       0.1
11 O  py              0.7       0.0       0.3       0.3       0.0       0.8
12 O  s              18.7       1.5       3.8      12.6       0.1      22.2
12 O  pz              0.2       0.0       0.0       0.1       0.0       0.1
12 O  px              1.7       0.1       0.1       0.5       0.0       0.8
12 O  py              0.3       0.0       0.0       0.0       0.0       0.0
13 O  s               2.1      22.9      19.9       4.4       8.1       1.2
13 O  pz              0.0       0.2       0.3       0.1       0.2       0.0
13 O  px              0.2       1.1       0.7       0.1       0.2       0.0
13 O  py              0.0       0.1       0.1       0.0       0.1       0.0
14 O  s               0.4      21.6       2.9       1.3      31.7       0.8
14 O  pz              0.0       0.3       0.0       0.0       0.3       0.0
14 O  px              0.0       0.2       0.0       0.0       0.6       0.0
14 O  py              0.0       0.9       0.1       0.0       0.8       0.0
15 O  s               0.4       6.6      24.9       2.8      22.8       0.5
15 O  pz              0.0       0.1       0.3       0.0       0.3       0.0
15 O  px              0.0       0.4       1.3       0.1       0.9       0.0
16 O  s               0.2       0.0       1.9      34.5       0.0      22.5
16 O  pz              0.0       0.0       0.1       1.4       0.0       0.8
16 O  px              0.0       0.0       0.0       0.2       0.0       0.2
16 O  py              0.0       0.0       0.0       0.5       0.0       0.2
17 H  s               0.1       0.0       0.1       0.9       0.0       0.2
18 H  s               0.1       0.0       0.2       0.7       0.0       0.3
19 H  s               3.9       0.3       0.7       2.4       0.0       4.2
20 H  s               0.5       4.5       4.0       0.9       1.7       0.2
21 H  s               0.1       4.7       0.4       0.2       6.2       0.1
22 H  s               0.1       1.6       5.1       0.6       4.0       0.1
23 H  s               0.0       0.0       0.4       7.0       0.0       4.7

                     18        19        20        21        22        23   
                  -0.70565  -0.69413  -0.61874  -0.58032  -0.55940  -0.53517
                   2.00000   2.00000   2.00000   2.00000   2.00000   2.00000
                  --------  --------  --------  --------  --------  --------
 0 C  s               3.1       5.9      11.4       0.1       8.5       2.4
 0 C  pz              0.0       0.0       0.1       0.0       0.5       2.4
 0 C  px              1.4       2.8       0.4       0.1       0.6       1.2
 0 C  py              0.9       0.7       0.7       0.5       0.0       0.3
 1 C  s               9.0      10.4       0.7       0.1       2.4       4.9
 1 C  pz              0.2       0.3       0.0       0.1       0.0       6.3
 1 C  px              0.2       1.9       6.4       0.1       2.8       0.7
 1 C  py              3.8       0.3       0.6       6.3       0.9       1.1
 1 C  dyz             0.0       0.0       0.0       0.1       0.0       0.0
 1 C  dx2y2           0.0       0.0       0.1       0.0       0.1       0.0
 1 C  dxy             0.2       0.0       0.0       0.1       0.0       0.0
 2 H  s               1.8       1.6       0.2       0.2       0.5       5.3
 3 C  s              12.7       0.1       4.6       5.1       0.9       3.6
 3 C  pz              0.2       0.0       0.0       0.0       0.1       4.9
 3 C  px              1.7       2.5       3.1       1.3       3.0       0.2
 3 C  py              3.7       1.4       0.1       0.4       2.5       0.5
 3 C  dxy             0.1       0.0       0.0       0.0       0.0       0.0
 4 H  s               2.5       0.0       1.0       1.3       0.3       4.1
 5 C  s              10.1       4.2       3.6       2.5       6.3       0.6
 5 C  pz              0.0       0.0       0.0       0.0       1.0       4.3
 5 C  px              1.5       0.2       3.7       3.4       0.3       0.1
 5 C  py              3.6       2.5       0.3       0.4       1.4       0.1
 5 C  dxy             0.0       0.1       0.0       0.1       0.0       0.0
 6 H  s               2.0       0.8       1.0       0.5       3.1       2.2
 7 C  s               4.1      10.9       5.1       4.7       2.5       0.3
 7 C  pz              0.0       0.0       0.1       1.2       1.9       4.7
 7 C  px              2.2       3.6       0.0       0.2       1.7       1.1
 7 C  py              0.5       0.4       3.0       5.8       0.4       0.1
 8 H  s               0.8       2.2       1.6       2.1       2.1       1.7
 9 C  s               0.1       8.4       5.2       7.7       0.6       0.6
 9 C  pz              0.0       0.1       0.0       1.3       0.5       6.8
 9 C  px              1.9       0.1       2.1       0.0       1.3       1.9
 9 C  py              1.5       3.6       1.7       0.2       0.7       0.9
 9 C  dxz             0.1       0.0       0.1       0.0       0.0       0.1
 9 C  dx2y2           0.2       0.0       0.0       0.0       0.0       0.0
 9 C  dxy             0.0       0.1       0.0       0.0       0.0       0.1
10 H  s               0.0       1.5       1.3       3.4       0.5       3.3
11 O  s               4.9       0.1       1.1       1.3       0.1       1.7
11 O  pz              0.1       0.1       0.0       0.5       0.1       2.3
11 O  px              1.5       7.9       0.1       6.1       2.7       6.3
11 O  py              1.0       0.3       0.0       0.1       2.1       2.7
12 O  s               0.3       2.3       0.7       1.2       0.3       0.2
12 O  pz              0.0       0.0       0.2       0.7       0.1       0.8
12 O  px              0.1       0.1       0.0       0.2       0.4       0.5
12 O  py              0.0       3.0       5.7       8.8       0.1       0.3
12 O  dxy             0.0       0.1       0.1       0.1       0.0       0.0
13 O  s               1.1       2.7       1.2       0.3       0.1       0.3
13 O  pz              0.5       1.4       2.3       5.7       5.9       2.9
13 O  px              0.5       1.4       1.6       3.0       1.8       0.1
13 O  py              0.0       0.0       0.1       0.4       0.0       0.1
14 O  s               2.4       1.2       0.5       1.1       0.5       0.0
14 O  pz              0.1       0.0       0.1       0.2       0.9       0.4
14 O  px              1.3       0.5       2.6       0.5       7.6       0.0
14 O  py              1.0       0.5       0.9       1.6       3.0       0.0
15 O  s               4.1       0.1       0.9       0.8       0.0       0.4
15 O  pz              0.0       0.0       0.0       0.1       0.0       0.7
15 O  px              0.3       0.0       0.6       0.2       0.1       0.2
15 O  py              3.3       0.3       0.9       7.4       1.8       5.1
16 O  s               0.6       1.5       1.8       0.1       1.1       0.3
16 O  pz              0.0       0.1       0.3       0.0       0.6       0.5
16 O  px              0.5       1.3       3.3       0.4       3.9       0.0
16 O  py              0.3       0.7       2.7       0.1       3.8       0.4
17 H  s               0.6       1.3       2.8       0.1       2.9       2.0
18 H  s               0.6       1.1       3.2       0.0       2.7       1.9
19 H  s               0.0       1.5       2.0       3.1       0.0       0.1
20 H  s               0.5       1.4       1.4       2.7       2.3       0.7
21 H  s               1.2       0.6       1.2       0.7       3.4       0.0
22 H  s               2.2       0.1       0.5       2.4       0.4       1.6
23 H  s               0.4       1.0       2.3       0.2       2.6       0.1

                     24        25        26        27        28        29   
                  -0.50825  -0.48968  -0.46862  -0.46027  -0.45324  -0.43591
                   2.00000   2.00000   2.00000   2.00000   2.00000   2.00000
                  --------  --------  --------  --------  --------  --------
 0 C  s               0.2       0.6       0.5       0.1       0.3       0.0
 0 C  pz              0.4       4.0      11.5       1.7       0.5       0.0
 0 C  px              0.9       0.2       0.1       0.0       0.1       0.0
 0 C  py              0.9       0.0       2.5       0.0       9.9       0.1
 0 C  dyz             0.0       0.0       0.3       0.0       0.2       0.0
 1 C  s               0.1       0.4       0.1       0.0       3.2       0.1
 1 C  pz              3.5       5.4       4.6       0.3       2.1       0.0
 1 C  px              0.4       1.2       0.1       0.2       0.5       0.2
 1 C  py              3.3       0.0       0.0       0.4       4.0       1.0
 1 C  dz2             0.0       0.0       0.0       0.0       0.1       0.0
 1 C  dx2y2           0.0       0.0       0.0       0.0       0.1       0.0
 1 C  dxy             0.0       0.0       0.1       0.0       0.0       0.1
 2 H  s               1.1       2.6       2.0       0.1       3.8       0.0
 3 C  s               0.2       0.0       0.4       0.4       1.0       1.3
 3 C  pz              3.7       3.1       1.3       6.0       0.4       0.7
 3 C  px              2.2       1.3       2.7       0.1       0.3       4.3
 3 C  py              0.2       2.1       0.0       0.2       3.9       2.6
 3 C  dxz             0.0       0.0       0.0       0.0       0.0       0.1
 3 C  dyz             0.0       0.0       0.0       0.0       0.1       0.0
 3 C  dxy             0.1       0.0       0.0       0.0       0.3       0.1
 4 H  s               1.5       1.3       1.1       3.1       0.5       1.8
 5 C  s               0.0       0.1       0.9       0.7       0.1       0.5
 5 C  pz              3.3       0.3       8.2       2.8       2.0       1.4
 5 C  px              1.5       0.0       1.5       0.0       0.0       0.9
 5 C  py              2.8       6.6       0.2       0.6       1.1       2.6
 5 C  dyz             0.0       0.1       0.0       0.1       0.0       0.1
 5 C  dx2y2           0.0       0.0       0.0       0.0       0.1       0.4
 6 H  s               1.0       0.2       4.4       1.9       0.9       1.3
 7 C  s               0.1       0.2       0.1       0.0       0.0       1.6
 7 C  pz              0.9       0.4       3.2       1.6       3.1       0.2
 7 C  px              0.4       9.8       0.4       2.3       0.0       1.8
 7 C  py              2.9       0.3       0.6       0.1       0.1       6.0
 7 C  dx2y2           0.0       0.1       0.0       0.1       0.0       0.1
 8 H  s               0.2       0.0       1.4       0.6       0.8       1.1
 9 C  s               0.0       0.0       0.0       1.4       0.0       0.1
 9 C  pz              0.9       0.0       0.2      25.0       1.8       0.1
 9 C  px             10.4       0.0       1.1       0.8       1.4       0.4
 9 C  py              0.3       5.2       0.5       0.2       0.1      10.5
 9 C  dz2             0.0       0.0       0.0       0.1       0.0       0.0
 9 C  dxz             0.1       0.0       0.0       0.0       0.0       0.0
 9 C  dyz             0.0       0.0       0.0       0.0       0.0       0.1
 9 C  dxy             0.2       0.0       0.0       0.0       0.0       0.1
10 H  s               0.4       0.0       0.0      13.2       0.5       0.0
11 O  s               0.2       0.3       0.8       0.4       0.8       0.0
11 O  pz              1.9       0.9       1.1       4.2       0.4       0.0
11 O  px              8.9       0.1       1.9       0.8       5.6       0.7
11 O  py              0.9       2.8       0.1       0.1       0.2       1.1
12 O  s               0.2       0.2       0.0       0.4       0.1       0.1
12 O  pz              0.2       0.3       0.3       3.1       0.4       1.1
12 O  px              1.2       0.3       0.1       0.1       0.5       1.5
12 O  py             17.4       3.9       2.1       6.9       0.0       6.7
12 O  dxy             0.1       0.1       0.0       0.1       0.0       0.1
13 O  s               0.0       0.3       0.2       0.0       0.4       0.8
13 O  pz              0.1      12.0       0.2       4.2       0.1       4.8
13 O  px              0.4       2.2       1.3       2.6       0.9       0.3
13 O  py              0.9       0.0       0.1       0.0       0.0       2.8
14 O  s               0.2       0.0       0.4       0.2       0.2       0.9
14 O  pz              0.0       0.8       1.9       0.3       0.0       0.0
14 O  px              7.2       5.9       0.4       2.4       5.5       9.3
14 O  py              0.8       2.1       0.1       0.2       1.2       1.7
15 O  s               0.3       0.0       0.3       0.3       0.0       0.5
15 O  pz              0.4       0.2       0.2       1.3       0.5       0.0
15 O  px              0.3       0.4       0.2       0.1       1.3       0.1
15 O  py              3.8       7.3       3.3       0.6       9.8      13.5
16 O  s               0.0       0.2       0.7       0.1       0.4       0.0
16 O  pz              0.0       0.5       0.6       0.2       0.2       0.0
16 O  px              0.0       0.9      14.1       0.8      12.7       0.2
16 O  py              0.4       0.2       5.8       0.4       2.5       0.1
17 H  s               0.1       1.9       4.0       0.7       0.0       0.0
18 H  s               0.9       0.3       1.5       0.1       3.0       0.1
19 H  s               5.2       1.1       0.6       1.7       0.0       1.8
20 H  s               0.1       4.0       0.3       1.6       0.0       1.7
21 H  s               2.1       2.2       0.0       0.6       1.8       3.6
22 H  s               1.2       2.1       1.0       0.2       2.9       3.6
23 H  s               0.1       0.3       5.8       0.3       4.4       0.1

                     30        31        32        33        34        35   
                  -0.42479  -0.39920  -0.38489  -0.37480  -0.35725  -0.35417
                   2.00000   2.00000   2.00000   2.00000   2.00000   2.00000
                  --------  --------  --------  --------  --------  --------
 0 C  s               0.5       0.3       0.0       0.2       0.0       0.0
 0 C  pz              2.2       4.6       5.5       1.5       3.3       0.9
 0 C  px              3.3       2.1      22.8       0.7       0.1       0.1
 0 C  py              0.6       1.1       9.1       7.0       3.0       0.6
 0 C  dz2             0.0       0.0       0.1       0.0       0.1       0.0
 0 C  dxz             0.0       0.0       0.1       0.1       0.0       0.0
 0 C  dxy             0.0       0.0       0.1       0.1       0.0       0.0
 1 C  s               0.2       0.2       0.6       0.1       0.2       0.0
 1 C  pz              0.2       3.9       0.4       2.8       9.4       2.8
 1 C  px              3.5       1.7       4.2       7.9       0.2       0.3
 1 C  py              0.2       1.4       0.3       4.9       0.0       1.0
 1 C  dz2             0.0       0.0       0.1       0.0       0.2       0.1
 1 C  dxz             0.0       0.0       0.1       0.0       0.0       0.0
 1 C  dxy             0.0       0.0       0.4       0.0       0.0       0.1
 2 H  s               0.0       0.8       0.1       1.5       5.8       1.9
 3 C  s               0.1       0.1       0.0       0.0       0.0       0.0
 3 C  pz              6.5       5.0       0.8       1.0       0.4       9.1
 3 C  px              3.3       1.8       0.0       1.7       0.0       2.2
 3 C  py              0.2       2.4       0.0      10.1       1.0       1.0
 3 C  dz2             0.0       0.0       0.0       0.0       0.0       0.2
 3 C  dxy             0.0       0.1       0.1       0.0       0.0       0.0
 4 H  s               1.6       2.5       0.3       0.8       0.3       5.1
 5 C  s               0.3       0.1       0.0       0.1       0.1       0.0
 5 C  pz              3.6       5.4       0.3       0.5       2.6       7.1
 5 C  px             15.6       0.6       0.3       2.6       1.0       1.9
 5 C  py              0.9       2.2       0.1       1.0       0.7       3.0
 5 C  dz2             0.0       0.0       0.0       0.0       0.1       0.2
 5 C  dyz             0.0       0.0       0.0       0.0       0.1       0.0
 5 C  dx2y2           0.0       0.1       0.0       0.1       0.0       0.0
 5 C  dxy             0.0       0.0       0.0       0.2       0.0       0.0
 6 H  s               1.1       1.8       0.2       0.7       2.7       4.8
 7 C  s               0.1       0.1       0.1       0.6       0.2       0.2
 7 C  pz              0.1      10.4       0.9       0.0      11.2       3.7
 7 C  px              3.1       0.8       0.0       0.1       0.1       0.3
 7 C  py              9.3       2.6       0.5       0.7       0.8       0.7
 7 C  dz2             0.0       0.1       0.0       0.1       0.2       0.0
 7 C  dxz             0.0       0.0       0.0       0.0       0.2       0.1
 7 C  dx2y2           0.3       0.0       0.0       0.0       0.0       0.0
 7 C  dxy             0.1       0.1       0.0       0.0       0.0       0.1
 8 H  s               0.1       4.4       0.9       0.5       6.9       2.0
 9 C  s               0.0       0.1       0.4       0.1       0.3       0.0
 9 C  pz              0.5       1.9       0.1       0.0       4.2       0.4
 9 C  px              0.1       0.1       0.5       0.3       0.0       0.7
 9 C  py              3.2       2.2       0.0       0.1       0.1       0.6
 9 C  dz2             0.0       0.0       0.0       0.0       0.2       0.0
 9 C  dyz             0.0       0.0       0.0       0.0       0.1       0.0
 9 C  dx2y2           0.0       0.0       0.1       0.0       0.0       0.1
 9 C  dxy             0.0       0.2       0.2       0.2       0.0       0.0
10 H  s               0.3       0.6       0.1       0.1       4.0       0.0
11 O  s               0.0       0.0       0.5       1.1       0.1       1.3
11 O  pz              0.0       3.8       0.4       0.0       1.7       6.3
11 O  px              0.2       2.5       1.3       2.1       1.0       0.6
11 O  py              2.2       0.0       3.2      11.1       0.0       3.3
12 O  s               0.2       0.0       1.5       0.1       0.7       0.7
12 O  pz              1.1       1.6       0.0       0.1       3.1       1.7
12 O  px              1.1       0.0       4.6       0.1       0.3       2.4
12 O  py              1.4       1.0       1.0       0.2       1.1       0.0
13 O  s               0.3       0.4       0.0       0.5       1.1       0.4
13 O  pz              5.3       0.1       0.0       0.9       2.2       0.6
13 O  px              0.3       6.9       0.4       0.2      13.5       6.1
13 O  py              2.7       1.1       0.1       1.2       0.0       0.5
14 O  s               1.3       0.2       0.1       0.0       0.1       1.3
14 O  pz              0.0       2.6       0.0       0.8       1.8       9.3
14 O  px              0.6       1.8       0.1       1.0       0.0       1.1
14 O  py              9.2       0.3       0.4       5.1       0.5       0.6
15 O  s               0.6       0.2       0.1       2.3       0.2       0.6
15 O  pz              1.1       1.2       0.3       2.5       1.3       9.0
15 O  px              3.0       0.7       0.7       7.7       0.8       0.4
15 O  py              0.6       2.2       0.2       0.1       0.0       0.0
16 O  s               0.4       1.1       0.3       0.1       0.7       0.1
16 O  pz              1.9       3.3       0.1       3.1       4.2       0.8
16 O  px              0.0       0.6       1.9       4.1       0.0       0.0
16 O  py              0.8       0.0      12.0       0.9       0.2       0.0
17 H  s               1.6       3.1       6.2       0.8       3.0       0.6
18 H  s               0.3       0.1      13.4       2.0       0.8       0.2
19 H  s               0.3       0.4       0.8       0.2       0.4       0.1
20 H  s               1.3       0.4       0.0       0.3       0.2       0.1
21 H  s               0.1       0.5       0.0       0.8       0.1       0.2
22 H  s               0.2       0.9       0.1       0.1       0.0       0.0
23 H  s               0.1       0.2       0.1       1.4       0.1       0.0

                     36        37        38        39        40        41   
                  -0.32454  -0.31139  -0.30657  -0.29332  -0.29184  -0.26792
                   2.00000   2.00000   2.00000   2.00000   2.00000   2.00000
                  --------  --------  --------  --------  --------  --------
 0 C  s               0.4       0.1       0.0       0.0       0.2       0.6
 0 C  pz              0.1       0.6       0.0       0.0       2.7       5.2
 0 C  px              4.6       0.0       0.0       0.0       0.0       5.9
 0 C  py              1.9       0.1       0.0       0.0       1.6       0.1
 0 C  dz2             0.0       0.0       0.0       0.0       0.1       0.3
 0 C  dx2y2           0.0       0.1       0.0       0.0       0.1       0.2
 0 C  dxy             0.0       0.0       0.0       0.0       0.4       0.2
 1 C  s               0.1       0.8       0.0       0.1       0.5       0.4
 1 C  pz              1.4       1.6       0.0       1.2       0.0       4.6
 1 C  px              2.0       0.3       0.2       0.1       2.1       4.6
 1 C  py              0.7       0.1       2.0       2.8       1.3       3.0
 1 C  dz2             0.1       0.0       0.0       0.0       0.0       0.4
 1 C  dx2y2           0.3       0.0       0.0       0.0       0.0       0.2
 2 H  s               1.3       0.8       0.0       0.7       0.4       4.8
 3 C  s               0.1       0.2       0.7       0.0       0.0       0.0
 3 C  pz              0.9       1.7       1.1       0.9       0.0       0.1
 3 C  px              0.5       0.7       0.4       2.7       1.1       1.1
 3 C  py              2.0       1.2       0.3       0.6       0.1       0.3
 3 C  dz2             0.1       0.2       0.0       0.0       0.0       0.0
 3 C  dyz             0.0       0.0       0.0       0.0       0.0       0.1
 3 C  dx2y2           0.0       0.5       0.0       0.3       0.0       0.1
 3 C  dxy             0.0       0.0       0.1       0.0       0.0       0.0
 4 H  s               1.5       2.3       0.1       0.8       0.0       0.1
 5 C  s               0.1       0.3       0.1       0.5       0.0       0.3
 5 C  pz              1.5       0.2       1.7       0.8       0.0       0.0
[...]
 3 C  dx2y2           0.1       0.0       0.1       0.3       0.2       0.0
 3 C  dxy             0.4       1.6       1.5       4.0       2.1       0.2
 5 C  s               0.0       0.8       0.0       0.0       1.0       0.0
 5 C  pz              0.0       0.3       0.0       0.0       0.4       0.0
 5 C  px              0.0       0.2       0.2       0.1       0.2       0.0
 5 C  py              0.0       2.0       0.0       0.0       1.2       0.0
 5 C  dz2             0.0       0.1       0.0       0.1       0.3       0.0
 5 C  dxz             0.0       0.3       0.3       0.1       0.3       0.0
 5 C  dyz             0.0       1.8       0.0       0.0       2.9       0.0
 5 C  dx2y2           0.0       3.9       0.0       0.6       0.8       0.1
 5 C  dxy             0.0       3.1       0.0       0.1       0.5       0.0
 7 C  s               0.0       0.3       1.1       0.1       0.8       0.1
 7 C  pz              0.0       0.1       0.3       0.0       0.2       0.0
 7 C  px              0.1       0.6       2.1       0.0       0.6       0.2
 7 C  py              0.0       0.2       0.3       0.1       0.0       0.0
 7 C  dz2             0.0       0.1       0.5       0.0       0.2       0.0
 7 C  dxz             0.0       0.3       2.0       0.0       1.3       0.4
 7 C  dyz             0.0       0.1       0.4       0.1       0.0       0.0
 7 C  dx2y2           0.1       2.1       4.7       0.6       0.8       0.0
 7 C  dxy             0.0       0.5       1.0       0.0       0.0       0.0
 9 C  s               0.1       0.3       0.1       1.2       0.4       0.3
 9 C  px              0.0       0.1       0.3       0.1       0.1       3.1
 9 C  py              0.1       0.2       0.2       0.7       0.1       0.5
 9 C  dz2             0.0       0.2       0.0       0.8       0.3       0.0
 9 C  dxz             0.0       0.5       0.0       0.2       0.4       2.7
 9 C  dyz             0.1       0.0       0.0       0.0       0.0       0.7
 9 C  dx2y2           0.0       0.4       0.2       0.2       0.0       4.8
 9 C  dxy             0.2       0.8       2.8       5.2       0.8       1.3
11 O  s               0.2       0.1       0.3       0.6       0.4       0.0
11 O  px              0.0       0.1       0.1       0.9       0.1       5.2
11 O  py              0.0       0.0       0.1       0.1       0.1       0.7
11 O  dz2             0.3       1.0       0.3       1.5       2.2       0.1
11 O  dxz             0.1       0.5       0.8       2.7       0.3      13.7
11 O  dyz             0.2       0.0       0.1       0.0       0.0       1.3
11 O  dx2y2           0.4       0.1       1.5       0.6       0.1      15.0
11 O  dxy             0.1       1.8       1.6      15.4       3.1      17.5
12 O  s               0.1       0.7       0.1       1.5       0.5       1.7
12 O  pz              0.0       0.0       0.0       0.1       0.0       0.0
12 O  px              0.0       0.0       0.1       0.1       0.1       0.3
12 O  py              0.1       0.5       0.3       1.4       0.3       0.8
12 O  dz2             0.1       1.0       0.0       1.0       0.7       3.4
12 O  dxz             0.1       0.4       0.9       2.0       0.5       0.8
12 O  dyz             0.3       1.2       1.7       5.0       0.9       0.9
12 O  dx2y2           0.0       2.4       0.2       3.7       1.0       0.0
12 O  dxy             1.4       2.4       3.4       8.9       2.1       9.7
13 O  s               0.1       0.6       3.4       0.0       1.5       0.3
13 O  pz              0.0       0.3       0.8       0.0       0.3       0.0
13 O  px              0.0       0.5       2.1       0.0       0.7       0.1
13 O  dz2             0.1       0.7       4.7       0.0       2.6       0.5
13 O  dxz             0.2       3.8      12.3       0.3       2.7       0.1
13 O  dyz             0.0       0.2       0.4       0.0       0.1       0.0
13 O  dx2y2           0.4       4.0      20.3       0.2       5.5       0.5
13 O  dxy             0.0       1.7       1.2       0.0       1.0       0.6
14 O  s               0.0       2.5       0.0       0.0       2.8       0.0
14 O  pz              0.0       0.3       0.0       0.0       0.1       0.0
14 O  px              0.0       1.1       0.0       0.0       0.4       0.0
14 O  py              0.0       1.8       0.0       0.0       1.2       0.0
14 O  dz2             0.0       1.2       0.2       0.2       3.1       0.0
14 O  dxz             0.0       2.3       0.0       0.2       0.9       0.0
14 O  dyz             0.0      14.0       0.1       0.5       6.4       0.0
14 O  dx2y2           0.0      15.1       0.8       0.5       6.8       0.0
14 O  dxy             0.0       8.9       0.0       0.1       5.2       0.1
15 O  s               0.4       0.1       1.0       1.8       1.9       0.2
15 O  px              0.1       0.0       0.2       0.5       0.3       0.0
15 O  py              0.2       0.2       0.7       1.2       1.2       0.1
15 O  dz2             0.7       0.1       1.5       2.1       3.2       0.3
15 O  dxz             0.5       0.6       1.0       2.7       1.2       0.0
15 O  dyz             0.7       1.0       1.2       3.3       2.0       0.1
15 O  dx2y2           0.0       0.5       0.0       0.1       0.1       0.2
15 O  dxy             4.4       2.5       8.3      14.8      11.9       0.9
16 O  s               3.6       0.0       0.3       0.0       0.2       0.0
16 O  pz              0.6       0.0       0.1       0.0       0.0       0.0
16 O  px              1.7       0.0       0.1       0.0       0.0       0.0
16 O  py              2.0       0.0       0.1       0.0       0.0       0.0
16 O  dxz            11.2       0.0       0.9       0.3       0.3       0.0
16 O  dyz            29.5       0.2       2.3       0.5       0.6       0.0
16 O  dx2y2           7.7       0.0       0.6       0.4       0.0       0.2
16 O  dxy            12.2       0.0       0.9       0.0       0.4       0.0
19 H  s               0.0       0.0       0.1       0.1       0.0       0.1
20 H  s               0.0       0.1       0.3       0.0       0.2       0.0
21 H  s               0.0       0.5       0.0       0.1       0.1       0.0
22 H  s               0.1       0.0       0.1       0.3       0.2       0.0
23 H  s               0.7       0.0       0.1       0.1       0.0       0.0



                      *****************************
                      * MAYER POPULATION ANALYSIS *
                      *****************************

  NA   - Mulliken gross atomic population
  ZA   - Total nuclear charge
  QA   - Mulliken gross atomic charge
  VA   - Mayer's total valence
  BVA  - Mayer's bonded valence
  FA   - Mayer's free valence

  ATOM       NA         ZA         QA         VA         BVA        FA
  0 C      5.9262     6.0000     0.0738     3.9978     3.9978    -0.0000
  1 C      5.9867     6.0000     0.0133     4.0559     4.0559    -0.0000
  2 H      0.9372     1.0000     0.0628     0.9881     0.9881     0.0000
  3 C      5.9400     6.0000     0.0600     4.0069     4.0069    -0.0000
  4 H      0.9443     1.0000     0.0557     0.9750     0.9750     0.0000
  5 C      5.9349     6.0000     0.0651     4.0366     4.0366     0.0000
  6 H      0.9639     1.0000     0.0361     0.9851     0.9851    -0.0000
  7 C      5.9645     6.0000     0.0355     3.9314     3.9314     0.0000
  8 H      0.9259     1.0000     0.0741     0.9919     0.9919     0.0000
  9 C      5.8179     6.0000     0.1821     4.2216     4.2216     0.0000
 10 H      0.9800     1.0000     0.0200     0.9725     0.9725     0.0000
 11 O      8.3077     8.0000    -0.3077     2.1387     2.1387    -0.0000
 12 O      8.3725     8.0000    -0.3725     2.0525     2.0525    -0.0000
 13 O      8.4121     8.0000    -0.4121     2.0190     2.0190    -0.0000
 14 O      8.4259     8.0000    -0.4259     2.0229     2.0229    -0.0000
 15 O      8.4163     8.0000    -0.4163     2.0136     2.0136    -0.0000
 16 O      8.4343     8.0000    -0.4343     1.9974     1.9974     0.0000
 17 H      0.9329     1.0000     0.0671     0.9669     0.9669     0.0000
 18 H      0.9102     1.0000     0.0898     0.9769     0.9769    -0.0000
 19 H      0.6904     1.0000     0.3096     0.8912     0.8912     0.0000
 20 H      0.6972     1.0000     0.3028     0.8859     0.8859     0.0000
 21 H      0.6921     1.0000     0.3079     0.9002     0.9002    -0.0000
 22 H      0.6870     1.0000     0.3130     0.8895     0.8895     0.0000
 23 H      0.7000     1.0000     0.3000     0.8792     0.8792    -0.0000

  Mayer bond orders larger than 0.100000
B(  0-C ,  1-C ) :   1.0752 B(  0-C , 16-O ) :   1.1078 B(  0-C , 17-H ) :   0.8994 
B(  0-C , 18-H ) :   0.9114 B(  1-C ,  2-H ) :   0.8694 B(  1-C ,  3-C ) :   1.0041 
B(  1-C , 11-O ) :   0.9912 B(  3-C ,  4-H ) :   0.8701 B(  3-C ,  5-C ) :   1.0156 
B(  3-C , 15-O ) :   1.0601 B(  5-C ,  6-H ) :   0.8675 B(  5-C ,  7-C ) :   0.9930 
B(  5-C , 14-O ) :   1.0903 B(  7-C ,  8-H ) :   0.8578 B(  7-C ,  9-C ) :   0.9851 
B(  7-C , 13-O ) :   1.0301 B(  9-C , 10-H ) :   0.8761 B(  9-C , 11-O ) :   1.0183 
B(  9-C , 12-O ) :   1.1921 B( 12-O , 19-H ) :   0.8374 B( 13-O , 20-H ) :   0.8445 
B( 14-O , 21-H ) :   0.8287 B( 15-O , 22-H ) :   0.8355 B( 16-O , 23-H ) :   0.8519 


-------
TIMINGS
-------

Total SCF time: 0 days 0 hours 0 min 9 sec 

Total time                  ....       9.133 sec
Sum of individual times     ....       8.728 sec  ( 95.6%)

SCF preparation             ....       0.168 sec  (  1.8%)
Fock matrix formation       ....       7.834 sec  ( 85.8%)
  Startup                   ....       0.050 sec  (  0.6% of F)
  Split-RI-J                ....       3.571 sec  ( 45.6% of F)
  XC integration            ....       3.813 sec  ( 48.7% of F)
    Basis function eval.    ....       1.299 sec  ( 34.1% of XC)
    Density eval.           ....       0.696 sec  ( 18.3% of XC)
    XC-Functional eval.     ....       0.279 sec  (  7.3% of XC)
    XC-Potential eval.      ....       0.937 sec  ( 24.6% of XC)
Diagonalization             ....       0.000 sec  (  0.0%)
Density matrix formation    ....       0.158 sec  (  1.7%)
Total Energy calculation    ....       0.024 sec  (  0.3%)
Population analysis         ....       0.098 sec  (  1.1%)
Orbital Transformation      ....       0.052 sec  (  0.6%)
Orbital Orthonormalization  ....       0.000 sec  (  0.0%)
DIIS solution               ....       0.307 sec  (  3.4%)
  MO trafo                  ....       0.000 sec  (  0.0 % of DIIS)
  Orb grad                  ....       0.000 sec  (  0.0 % of DIIS)
  Energy W gradient         ....       0.000 sec  (  0.0 % of DIIS)
  DIIS error                ....       0.006 sec  (  2.0 % of DIIS)
  DIIS work                 ....       0.260 sec  ( 84.8 % of DIIS)
  Form Q                    ....       0.000 sec  (  0.0 % of DIIS)
  Form QpQm                 ....       0.000 sec  (  0.0 % of DIIS)
  Exp/Cayley                ....       0.000 sec  (  0.0 % of DIIS)
  Orb update                ....       0.000 sec  (  0.0 % of DIIS)
  Wake-sleep                ....       0.014 sec  (  4.5 % of DIIS)
SOSCF solution              ....       0.088 sec  (  1.0%)
  MO trafo                  ....       0.047 sec  ( 53.9 % of SOSCF)
  Orb grad                  ....       0.001 sec  (  1.3 % of SOSCF)
  Rot update                ....       0.019 sec  ( 21.5 % of SOSCF)
  Step                      ....       0.020 sec  ( 23.2 % of SOSCF)
Finished LeanSCF after   9.2 sec

Maximum memory used throughout the entire LEANSCF-calculation: 17.9 MB


-------------------------------------------------------------------------------
                          DFT DISPERSION CORRECTION                            
                                                                               
                                DFTD4 V3.4.0                                   
-------------------------------------------------------------------------------
The PBE functional is recognized
Active option DFTDOPT                   ...         5   

-------------------------   ----------------
Dispersion correction           -0.023523915
-------------------------   ----------------

------------------   -----------------
gCP correction             0.152800238
------------------   -----------------

-------------------------   --------------------
FINAL SINGLE POINT ENERGY      -685.696341439018
-------------------------   --------------------


------------------------------------------------------------------------------
                              ORCA PROPERTY CALCULATIONS
------------------------------------------------------------------------------

GBWName                                 ... sp.gbw
Number of atoms                         ...     24
Number of basis functions               ...    192
Max core memory                         ...   1024 MB

Electric properties:
Dipole moment                           ... YES
Quadrupole moment                       ...  NO
Static polarizability (Dipole/Dipole)   ...  NO
Static polarizability (Dipole/Quad.)    ...  NO
Static polarizability (Quad./Quad.)     ...  NO
Static polarizability (Velocity)        ...  NO

Atomic electric properties:
Dipole moment                           ...  NO
Quadrupole moment                       ...  NO
Static polarizability                   ...  NO

Choice of electric origin               ... Center of mass
Position of electric origin             ...    -0.000007     0.000002    -0.000000

General magnetic properties:
Magnetizability                         ...  NO

EPR properties:
g-Tensor (aka g-matrix)                 ...  NO
Zero-Field splitting spin-orbit         ...  NO
Zero-field splitting spin-spin          ...  NO
Hyperfine couplings                     ...  NO (   0 nuclei)
Quadrupole couplings                    ...  NO (   0 nuclei)
Contact density                         ...  NO (   0 nuclei)

NMR properties:
Chemical shifts                         ...  NO (   0 nuclei)
Spin-rotation constants                 ...  NO (   0 nuclei)
Spin-spin couplings                     ...  NO (   0 nuclei,    0 pairs)

Choice of magnetic origin               ... GIAO
Position of magnetic origin             ...     0.000000     0.000000     0.000000

Properties with geometric perturbations:
SCF Hessian                             ...  NO
IR spectrum                             ...  NO
VCD spectrum                            ...  NO
X-ray spectroscopy properties:
SCF XES/XAS/RIXS spectra                ...  NO


-------------
DIPOLE MOMENT
-------------

Method             : SCF
Type of density    : Electron Density
Multiplicity       :   1
Irrep              :   0
Energy             :  -685.8256177624245993 Eh
Relativity type    : 
Basis              : AO
                                X                 Y                 Z
Electronic contribution:      2.433316929      -0.903850905      -0.126920264
Nuclear contribution   :     -2.714581282       0.889036403       0.328601411
                        -----------------------------------------
Total Dipole Moment    :     -0.281264353      -0.014814502       0.201681148
                        -----------------------------------------
Magnitude (a.u.)       :      0.346416500
Magnitude (Debye)      :      0.880520766



--------------------
Rotational spectrum 
--------------------
 
Rotational constants in cm-1:             0.039768             0.025602             0.016339 
Rotational constants in MHz :          1192.214483           767.538806           489.836640 

Dipole components along the rotational axes: 
x,y,z [a.u.] :    -0.273554     0.052530     0.205945 
x,y,z [Debye]:    -0.695319     0.133520     0.523470 

 

Dipole moment calculation done in   0.0 sec 

Maximum memory used throughout the entire PROP-calculation: 11.7 MB

--------------------------------
SUGGESTED CITATIONS FOR THIS RUN
--------------------------------

Below you find a list of papers that are relevant to this ORCA run
We neither can nor want to force you to cite these papers, but we appreciate if you do
You receive ORCA, which is the product of decades of hard work by many enthusiastic individuals, for free
The only thing we kindly ask in return is that you cite our papers,
We deeply appreciate it, if you show your appreciation for ORCA by not just citing the generic ORCA reference.

Please note that relegating all ORCA citations to the supporting information does *not* help us.
SI sections are not indexed - citations you put there will not count into any citation statistics
But we need these citations in order to attract the funding resources that allow us to do what we are doing

Therefore, if you are a happy ORCA user, please consider citing a few of the papers listed below in the main body of your paper

In addition to the list printed below, the program has created the file sp.bibtex that contains the list in bibtex format
You can import this file easily into all common literature databanks and citation aid programs


List of essential papers. We consider these as the minimum necessary citations

  1. Neese,F.
     Software update: the ORCA program system, version 5.0
     WIRES Comput. Molec. Sci., 2022 12(1)e1606
     doi.org/10.1002/wcms.1606

List of papers to cite with high priority. The work reported in these papers was absolutely
necessary for this run to complete.
Our perspective: the developers of density functionals and basis sets usually get cited in chemistry papers
Good! But without the algorithms to do something with them, the functionals or basis sets would not do anything.
Hence, in our opinion, the algorithm design and method developments papers are equally worthy of getting cited

  1. Neese,F.
     An improvement of the resolution of the identity approximation for the formation of the Coulomb matrix
     J. Comp. Chem., 2003 24(14)1740-1747
     doi.org/10.1002/jcc.10318
  2. Neese,F.
     The SHARK Integral Generation and Digestion System
     J. Comp. Chem., 2022  1-16
     doi.org/10.1002/jcc.26942
  3. Caldeweyher,E.; Bannwarth,C.; Grimme,S.
     Extension of the D3 dispersion coefficient model
     J. Chem. Phys., 2017 147 034112-XXXX
     doi.org/10.1063/1.4993215
  4. Caldeweyher,E.; Ehlert,S.; Hansen,A.; Neugebauer,H.; Spicher,S.; Bannwarth,C.; Grimme,S.
     A generally applicable atomic-charge dependent London dispersion correction
     J. Chem. Phys., 2019 150 154122-XXXX
     doi.org/10.1063/1.5090222
  5. Caldeweyher,E.; Mewes,J.; Ehlert,S.; Grimme,S.
     Extension and evaluation of the D4 London-dispersion model for periodic systems
     Phys. Chem. Chem. Phys., 2020 22(16)8499-8512
     doi.org/10.1039/D0CP00502A

List of suggested additional citations. These are papers that are important in the 'surrounding' of 
of this run, or papers that preceded the highly important papers. If you like your results we are grateful for a citation.

  1. Neese,F.
     The ORCA program system
     WIRES Comput. Molec. Sci., 2012 2(1)73-78
     doi.org/10.1002/wcms.81
  2. Neese,F.
     Software update: the ORCA program system, version 4.0
     WIRES Comput. Molec. Sci., 2018 8(1)1-6
     doi.org/10.1002/wcms.1327
  3. Neese,F.; Wennmohs,F.; Becker,U.; Riplinger,C.
     The ORCA quantum chemistry program package
     J. Chem. Phys., 2020 152 Art. No. L224108
     doi.org/10.1063/5.0004608

List of optional additional citations

  1. Neese,F.
     Approximate second-order SCF convergence for spin unrestricted wavefunctions
     Chem. Phys. Lett., 2000 325(1-3)93-98
     doi.org/10.1016/s0009-2614(00)00662-x

Timings for individual modules:

Sum of individual times          ...       11.337 sec (=   0.189 min)
Startup calculation              ...        0.951 sec (=   0.016 min)   8.4 %
SCF iterations                   ...       10.287 sec (=   0.171 min)  90.7 %
Property calculations            ...        0.098 sec (=   0.002 min)   0.9 %
                             ****ORCA TERMINATED NORMALLY****
TOTAL RUN TIME: 0 days 0 hours 0 minutes 11 seconds 993 msec
