24
 energy: -687.117426510450 gnorm: 0.004599161015 xtb: 6.7.1 (edcfbbe)
C           -2.57473743056465       -0.87272498393617        0.35887267730987
C           -1.15090069354696       -0.42267842277202        0.62897010483242
H           -1.01481144664603       -0.34142040874091        1.72003247746551
C           -0.79823534711788        0.91375987195171       -0.02099869409931
H           -0.97078050111900        0.84037827877503       -1.10607780383610
C            0.67222925541413        1.24405405389989        0.22005372988734
H            0.83704289196021        1.37832582985793        1.29692772989801
C            1.54287999557928        0.09980340377468       -0.27813921566481
H            1.41610109740116       -0.01140795624344       -1.36887543205684
C            1.09648432413157       -1.20609441430065        0.38743924435361
H            1.25357909095282       -1.15570843663820        1.47550558468351
O           -0.28449238645243       -1.44614542614700        0.10407153567778
O            1.82873232551512       -2.31113885584776       -0.07182751264237
O            2.90059864301285        0.39485052949547        0.04666077694492
O            1.02010418389431        2.49645939478929       -0.37835674411732
O           -1.64579981425042        1.91168795343838        0.55112925639068
O           -2.88918317076619       -0.93219632642085       -1.03724803215439
H           -3.26872592502545       -0.15868587545032        0.80816502977497
H           -2.72987738077674       -1.85090239259855        0.83238399170650
H            1.77533936101419       -2.32573375138162       -1.04135934254451
H            3.44046716388444       -0.32956438561628       -0.29130987798174
H            0.88000923296507        2.41716544236543       -1.33215494520072
H           -1.33446351905158        2.76430199292448        0.21728707384632
H           -2.31591994075428       -1.60165568088256       -1.43323299430068
24
 energy: -687.117468340418 gnorm: 0.001397295722 xtb: 6.7.1 (edcfbbe)
C           -2.57535196727154       -0.87247465000253        0.35984122084607
C           -1.15101771197179       -0.42312099264784        0.62740030954504
H           -1.01302935846350       -0.34366876533717        1.71853333999447
C           -0.79917887070176        0.91429158333416       -0.02150690956627
H           -0.97234825113949        0.84198549982384       -1.10675221703746
C            0.67165714017122        1.24370667512558        0.21935312828939
H            0.83695594596054        1.37976301444794        1.29604446823195
C            1.54310619012488        0.09934402274832       -0.27728787007374
H            1.41992322364008       -0.01033707213504       -1.36854003431110
C            1.09470226140133       -1.20681507739269        0.38570804998506
H            1.24909982751304       -1.15744536162368        1.47408910835664
O           -0.28571082153145       -1.44539367625995        0.09886172150992
O            1.82772691703510       -2.31244488216171       -0.07266044737600
O            2.89957166260864        0.39452279408522        0.05309690940858
O            1.01905721159303        2.49584164175977       -0.38123816410397
O           -1.64595990797530        1.91197237797287        0.55300634019661
O           -2.89250560971872       -0.93376761895964       -1.03557034516080
H           -3.26816553076958       -0.15752909466637        0.81004097645948
H           -2.72996907278611       -1.85005857182126        0.83577177923118
H            1.78321043068952       -2.32142748615395       -1.04173041975625
H            3.44345046322651       -0.32707680613329       -0.28997079229359
H            0.88515300400339        2.41217690421359       -1.33668174007008
H           -1.33498774209413        2.76586996162425        0.22078774153542
H           -2.31974916649847       -1.60318512554941       -1.43267718827332
24
 energy: -687.117521935450 gnorm: 0.005948352337 xtb: 6.7.1 (edcfbbe)
C           -2.57943998842212       -0.87234560182304        0.36509111868141
C           -1.15269155504769       -0.42541907428668        0.62051503563955
H           -1.00540649200729       -0.35319287632380        1.71132547777176
C           -0.80251987426739        0.91558332711184       -0.02318476786298
H           -0.97903148619544        0.84855070720946       -1.10855235339926
C            0.66944021091723        1.24308538002074        0.21491041743476
H            0.83531013936117        1.38674278814636        1.29070810919895
C            1.54540065412244        0.09805384808344       -0.27313629826953
H            1.43815535765425       -0.00638254750460       -1.36659715534315
C            1.08754233304042       -1.20940576219021        0.37879868764892
H            1.23007948023738       -1.16511641335060        1.46878551425706
O           -0.29080616764851       -1.44237018703077        0.07779627106952
O            1.82325577418765       -2.31614926839689       -0.07643790611985
O            2.89700158889367        0.39296077643388        0.07977416922896
O            1.01683863412470        2.49329175168001       -0.39433343215206
O           -1.64632877902275        1.91170977584540        0.56004758861775
O           -2.90755526029827       -0.93978150839814       -1.02713794678110
H           -3.26704213579792       -0.15326996337413        0.81779807916104
H           -2.73303818129461       -1.84730151856072        0.84888997951940
H            1.81586586566753       -2.30265510384828       -1.04592462735198
H            3.45383987986851       -0.31353916006003       -0.28364228938095
H            0.90981372800882        2.39187445531573       -1.35401173491097
H           -1.33576887403101        2.76922243821774        0.23446637477497
H           -2.33727343438135       -1.60941755590649       -1.42802774692640
24
 energy: -687.117538705110 gnorm: 0.003228394656 xtb: 6.7.1 (edcfbbe)
C           -2.57965868398067       -0.87203425157596        0.36574437568511
C           -1.15251399788234       -0.42547435866606        0.62000293096318
H           -1.00415080447050       -0.35360116181926        1.71056498439909
C           -0.80277139436403        0.91545744669620       -0.02371792487613
H           -0.97990982188261        0.84876600878490       -1.10889030715829
C            0.66915089631481        1.24314201103610        0.21439172168166
H            0.83449339355771        1.38741259831294        1.29009987248168
C            1.54571652073089        0.09806448884827       -0.27247638924189
H            1.44035691277170       -0.00655830067880       -1.36604844527648
C            1.08742721174844       -1.21001078150773        0.37817185902617
H            1.22896452791991       -1.16652876348731        1.46836158156285
O           -0.29097808828420       -1.44236906934552        0.07647546430069
O            1.82306349028477       -2.31607608580291       -0.07755305224240
O            2.89688359118338        0.39271009867813        0.08192004272693
O            1.01701693193121        2.49268180868600       -0.39542593565567
O           -1.64625668728716        1.91144665938423        0.55976772193752
O           -2.90915817346193       -0.93970835791273       -1.02609552848202
H           -3.26659454867271       -0.15263636713360        0.81860640783086
H           -2.73333771777171       -1.84666885238936        0.84946996816710
H            1.81870940302610       -2.30115044490252       -1.04704101125340
H            3.45323376727028       -0.31174772237554       -0.28190321644415
H            0.91085739566700        2.39106193683485       -1.35398964890982
H           -1.33530781196306        2.76845092600393        0.23429090726891
H           -2.33959476799330       -1.60990078252839       -1.42680554459730
24
 energy: -687.117549757315 gnorm: 0.000540755714 xtb: 6.7.1 (edcfbbe)
C           -2.58054522228178       -0.87150411567398        0.36764833665178
C           -1.15243303405679       -0.42575040861757        0.61855293667629
H           -1.00157106428574       -0.35450754817794        1.70860785209240
C           -0.80326110624628        0.91506160860791       -0.02503827116774
H           -0.98121591582658        0.84882175288979       -1.10991656519453
C            0.66851586451489        1.24312999482260        0.21328739434130
H            0.83210069182195        1.38870015781994        1.28895846911883
C            1.54657767254515        0.09799757030289       -0.27075822893224
H            1.44562230431562       -0.00623477152597       -1.36475202096314
C            1.08681699520427       -1.21143676948577        0.37665329878046
H            1.22627187399628       -1.17016300799841        1.46726338858314
O           -0.29175181203979       -1.44247527653325        0.07307795948864
O            1.82240523162120       -2.31612244866149       -0.08022819092362
O            2.89646346414458        0.39244822510068        0.08827881482818
O            1.01715486525361        2.49149948601746       -0.39746870554777
O           -1.64641866997391        1.91083393690592        0.55872332168817
O           -2.91290212061910       -0.93931868651461       -1.02348591178916
H           -3.26560699197153       -0.15105739722138        0.82124809402120
H           -2.73428080113270       -1.84556508969197        0.85153241652560
H            1.82523720471441       -2.29752758945559       -1.04989135819615
H            3.45365360134867       -0.30671485094345       -0.27913946604253
H            0.91483984749772        2.38865945101150       -1.35495116217508
H           -1.33454998324948        2.76717181302038        0.23375583015445
H           -2.34548104496583       -1.61121739825408       -1.42403667139571
24
 energy: -687.117551956625 gnorm: 0.000622135493 xtb: 6.7.1 (edcfbbe)
C           -2.58104767762527       -0.87104453072653        0.36908342614532
C           -1.15232482339060       -0.42596343393233        0.61769973943037
H           -0.99972219258401       -0.35495670833554        1.70753746257779
C           -0.80361953413992        0.91461251463781       -0.02626601368523
H           -0.98132812281377        0.84823453594058       -1.11114177801442
C            0.66792403875292        1.24301501653472        0.21293436818372
H            0.83004971685679        1.38926430524316        1.28872532123341
C            1.54717204853411        0.09799527992928       -0.26922650311902
H            1.44942267842867       -0.00537188104919       -1.36359545331032
C            1.08637457198280       -1.21251518167560        0.37552664261415
H            1.22472074634154       -1.17307263463253        1.46635208756755
O           -0.29238555087586       -1.44256682958563        0.07074718386723
O            1.82188788636413       -2.31646928372965       -0.08245793313972
O            2.89597174912827        0.39236393635181        0.09391852814517
O            1.01705563784399        2.49084210885811       -0.39812005384414
O           -1.64689463764914        1.91056367464713        0.55702923817126
O           -2.91589673123887       -0.93896525238950       -1.02155203912095
H           -3.26483066701637       -0.15002730880080        0.82363373009764
H           -2.73470483178244       -1.84486263529561        0.85326532954121
H            1.82891416773872       -2.29514580666799       -1.05206837496511
H            3.45519885553918       -0.30229887587878       -0.27851317212974
H            0.91846464758729        2.38680877856640       -1.35578979541941
H           -1.33421594119098        2.76673420068554        0.23251591685876
H           -2.35054397057142       -1.61244535251741       -1.42231564135897
24
 energy: -687.117551956625 gnorm: 0.000622135493 xtb: 6.7.1 (edcfbbe)
C           -2.58104767762527       -0.87104453072653        0.36908342614532
C           -1.15232482339060       -0.42596343393233        0.61769973943037
H           -0.99972219258401       -0.35495670833554        1.70753746257779
C           -0.80361953413992        0.91461251463781       -0.02626601368523
H           -0.98132812281377        0.84823453594058       -1.11114177801442
C            0.66792403875292        1.24301501653472        0.21293436818372
H            0.83004971685679        1.38926430524316        1.28872532123341
C            1.54717204853411        0.09799527992928       -0.26922650311902
H            1.44942267842867       -0.00537188104919       -1.36359545331032
C            1.08637457198280       -1.21251518167560        0.37552664261415
H            1.22472074634154       -1.17307263463253        1.46635208756755
O           -0.29238555087586       -1.44256682958563        0.07074718386723
O            1.82188788636413       -2.31646928372965       -0.08245793313972
O            2.89597174912827        0.39236393635181        0.09391852814517
O            1.01705563784399        2.49084210885811       -0.39812005384414
O           -1.64689463764914        1.91056367464713        0.55702923817126
O           -2.91589673123887       -0.93896525238950       -1.02155203912095
H           -3.26483066701637       -0.15002730880080        0.82363373009764
H           -2.73470483178244       -1.84486263529561        0.85326532954121
H            1.82891416773872       -2.29514580666799       -1.05206837496511
H            3.45519885553918       -0.30229887587878       -0.27851317212974
H            0.91846464758729        2.38680877856640       -1.35578979541941
H           -1.33421594119098        2.76673420068554        0.23251591685876
H           -2.35054397057142       -1.61244535251741       -1.42231564135897
