 Entering Gaussian System
 *********************************************
 Gaussian 98:
 frequency output generated by the xtb code
 *********************************************
                         Standard orientation:
 --------------------------------------------------------------------
  Center     Atomic     Atomic              Coordinates (Angstroms)
  Number     Number      Type              X           Y           Z
 --------------------------------------------------------------------
    1          6             0        3.238454   -0.101102    1.008960
    2          6             0        1.911702   -0.108921    0.333462
    3          6             0        1.341894    1.012044   -0.136841
    4          6             0        0.041899    1.049972   -0.779486
    5          8             0       -0.383808    2.067612   -1.321626
    6          6             0       -0.780707   -0.221050   -0.699595
    7          1             0       -1.513646   -0.203535   -1.513545
    8          6             0        0.159138   -1.414850   -0.878470
    9          6             0        1.243102   -1.437976    0.194093
   10          6             0       -1.561173   -0.212008    0.637743
   11          6             0       -2.600679    0.908611    0.625046
   12          6             0       -2.262308   -1.545468    0.894553
   13          1             0        3.586620    0.911761    1.188013
   14          1             0        3.968732   -0.618629    0.388307
   15          1             0        3.178543   -0.635685    1.954862
   16          1             0        1.850803    1.964190   -0.068051
   17          1             0       -0.406684   -2.345349   -0.871437
   18          1             0        0.633409   -1.323303   -1.859326
   19          1             0        0.809789   -1.705885    1.161745
   20          1             0        1.989119   -2.198541   -0.042966
   21          1             0       -0.855068   -0.014477    1.451212
   22          1             0       -3.374330    0.697179   -0.110359
   23          1             0       -2.146828    1.863593    0.368774
   24          1             0       -3.069279    1.003103    1.601663
   25          1             0       -2.902627   -1.454624    1.768598
   26          1             0       -1.553099   -2.346282    1.078790
   27          1             0       -2.883331   -1.815127    0.043501
 --------------------------------------------------------------------
     1 basis functions        1 primitive gaussians
     1 alpha electrons        1 beta electrons
 
 Harmonic frequencies (cm**-1), IR intensities (km*mol⁻¹),
 Raman scattering activities (A**4/amu), Raman depolarization ratios,
 reduced masses (AMU), force constants (mDyne/A) and normal coordinates:
                      1                      2                      3
                        a                      a                      a 
 Frequencies --    46.2598                75.7593               110.6629
 Red. masses --    10.0858                 8.6303                 2.5686
 Frc consts  --     0.0000                 0.0000                 0.0000
 IR Inten    --     2.4683                 0.7248                 0.6816
 Raman Activ --     0.0000                 0.0000                 0.0000
 Depolar     --     0.0000                 0.0000                 0.0000
 Atom AN      X      Y      Z        X      Y      Z        X      Y      Z
   1   6    -0.24   0.08   0.29    -0.20  -0.14   0.21     0.08  -0.02  -0.13
   2   6    -0.12   0.04   0.06    -0.09  -0.07   0.01    -0.03   0.01   0.08
   3   6    -0.13   0.03   0.06    -0.02  -0.02   0.03    -0.08   0.03   0.19
   4   6    -0.04  -0.02  -0.13     0.02   0.05  -0.05    -0.00  -0.00   0.04
   5   8     0.06  -0.13  -0.41     0.09   0.10  -0.05     0.10  -0.07  -0.16
   6   6    -0.04  -0.02  -0.03    -0.03   0.09  -0.07    -0.01   0.00   0.03
   7   1    -0.04  -0.01   0.02    -0.02   0.04  -0.00     0.00   0.00   0.00
   8   6    -0.00   0.02  -0.15    -0.08   0.06  -0.17    -0.01   0.00   0.03
   9   6     0.03  -0.02  -0.18    -0.07  -0.05  -0.19     0.02  -0.00  -0.00
  10   6     0.15  -0.08   0.07     0.09   0.13   0.00    -0.04   0.02   0.01
  11   6     0.33   0.09   0.39    -0.18  -0.13  -0.15    -0.05   0.01  -0.06
  12   6    -0.02  -0.01  -0.05     0.45   0.01   0.38    -0.02   0.02   0.04
  13   1    -0.10   0.03   0.13    -0.06  -0.05   0.10    -0.19  -0.01   0.39
  14   1    -0.02   0.06   0.11    -0.03  -0.04   0.09     0.10   0.45  -0.34
  15   1    -0.11  -0.00   0.07    -0.11  -0.06   0.05     0.22  -0.46  -0.28
  16   1    -0.06   0.02   0.06    -0.00  -0.01   0.05    -0.03   0.01   0.08
  17   1     0.01   0.00  -0.06    -0.04   0.03  -0.07    -0.00   0.00   0.01
  18   1    -0.01   0.03  -0.05    -0.03   0.03  -0.05    -0.01  -0.00   0.00
  19   1     0.03  -0.08  -0.06    -0.01  -0.06  -0.06     0.01  -0.02  -0.00
  20   1     0.04   0.04  -0.10    -0.02  -0.00  -0.09     0.02   0.01  -0.01
  21   1     0.08  -0.09   0.00     0.04   0.14  -0.03    -0.02   0.02   0.01
  22   1     0.07   0.11   0.11    -0.08  -0.16   0.02    -0.01  -0.01  -0.02
  23   1     0.13   0.02   0.17    -0.13  -0.03  -0.16    -0.01   0.00  -0.02
  24   1     0.12  -0.02   0.13    -0.00   0.02  -0.03    -0.02   0.01  -0.02
  25   1     0.04  -0.02   0.02     0.16   0.02   0.13    -0.01   0.01   0.01
  26   1    -0.03  -0.04  -0.09     0.19   0.06   0.13    -0.00   0.01   0.02
  27   1    -0.06   0.07   0.00     0.12  -0.09   0.15    -0.00  -0.00   0.01
                      4                      5                      6
                        a                      a                      a 
 Frequencies --   143.4266               168.8353               196.8337
 Red. masses --    11.1810                 8.5682                 5.8723
 Frc consts  --     0.0000                 0.0000                 0.0000
 IR Inten    --     6.8091                 0.3142                 0.1631
 Raman Activ --     0.0000                 0.0000                 0.0000
 Depolar     --     0.0000                 0.0000                 0.0000
 Atom AN      X      Y      Z        X      Y      Z        X      Y      Z
   1   6     0.14  -0.10  -0.23     0.09   0.08  -0.04    -0.00   0.07   0.17
   2   6    -0.01   0.04   0.08     0.08  -0.00  -0.02     0.15  -0.00  -0.13
   3   6    -0.07   0.10   0.30    -0.17   0.03   0.38     0.17  -0.03  -0.21
   4   6     0.03   0.08   0.08    -0.05  -0.07   0.15     0.09  -0.00  -0.02
   5   8     0.37  -0.07  -0.48    -0.00  -0.13   0.03     0.11  -0.01  -0.06
   6   6    -0.06   0.14   0.11    -0.00  -0.09   0.06    -0.04   0.08   0.17
   7   1    -0.01   0.06   0.03     0.01  -0.03   0.01    -0.01   0.03   0.05
   8   6    -0.05   0.15   0.03     0.02  -0.07  -0.06    -0.13   0.01   0.11
   9   6    -0.09   0.07   0.06     0.32  -0.09  -0.36     0.19  -0.01  -0.20
  10   6    -0.09  -0.04   0.08    -0.08   0.04   0.02    -0.13   0.01   0.12
  11   6    -0.21  -0.15   0.12    -0.01   0.11  -0.24    -0.19  -0.04   0.13
  12   6     0.04  -0.15  -0.06    -0.20   0.14   0.16    -0.13  -0.05  -0.12
  13   1     0.16  -0.04  -0.23     0.06   0.03  -0.12    -0.05   0.03   0.11
  14   1    -0.06  -0.20  -0.04     0.01  -0.07   0.05     0.07   0.07   0.09
  15   1     0.05   0.11   0.01     0.00   0.14   0.05    -0.05  -0.01   0.03
  16   1    -0.01   0.02   0.08    -0.10   0.03   0.19     0.05  -0.01  -0.07
  17   1    -0.01   0.04  -0.02     0.01  -0.02   0.03    -0.05   0.01   0.11
  18   1    -0.00   0.07   0.02    -0.07  -0.02  -0.06    -0.12  -0.04  -0.01
  19   1    -0.04   0.03   0.01     0.18  -0.15  -0.10     0.15  -0.07  -0.03
  20   1    -0.04   0.00   0.03     0.12   0.04  -0.23     0.05   0.03  -0.16
  21   1    -0.04  -0.01   0.04    -0.03   0.02   0.01    -0.06  -0.01   0.06
  22   1    -0.04  -0.05   0.02     0.04   0.03  -0.11    -0.16  -0.12   0.18
  23   1    -0.08  -0.03   0.06     0.02   0.02  -0.06    -0.10  -0.04  -0.15
  24   1    -0.08  -0.08   0.03    -0.06   0.06  -0.10     0.08   0.11   0.09
  25   1    -0.03  -0.08  -0.04    -0.02   0.08   0.07    -0.29   0.03  -0.22
  26   1     0.03  -0.02   0.00    -0.08   0.02   0.03    -0.04   0.04   0.24
  27   1     0.05  -0.06  -0.04    -0.10   0.05   0.08     0.21  -0.12  -0.18
                      7                      8                      9
                        a                      a                      a 
 Frequencies --   206.6892               227.9148               298.2267
 Red. masses --     3.8423                 3.6418                 9.9291
 Frc consts  --     0.0000                 0.0000                 0.0000
 IR Inten    --     0.1964                 0.1267                 5.0876
 Raman Activ --     0.0000                 0.0000                 0.0000
 Depolar     --     0.0000                 0.0000                 0.0000
 Atom AN      X      Y      Z        X      Y      Z        X      Y      Z
   1   6    -0.02  -0.00   0.13    -0.06  -0.04  -0.08    -0.00   0.48  -0.09
   2   6     0.10  -0.01  -0.10    -0.11  -0.00   0.02    -0.07  -0.22   0.05
   3   6     0.17  -0.03  -0.24    -0.13   0.04   0.14    -0.09  -0.25   0.05
   4   6     0.06   0.02  -0.03    -0.06   0.01   0.00     0.02  -0.04  -0.04
   5   8     0.07   0.01  -0.05    -0.14   0.00   0.03     0.37   0.20   0.14
   6   6    -0.03   0.07   0.15     0.03  -0.02  -0.04    -0.07   0.01  -0.15
   7   1    -0.01   0.02   0.04    -0.00  -0.01  -0.00    -0.01  -0.00  -0.05
   8   6    -0.06   0.06   0.04    -0.07  -0.10   0.03    -0.15  -0.12   0.06
   9   6     0.07   0.00  -0.10    -0.05  -0.03   0.01    -0.05  -0.23   0.03
  10   6    -0.10   0.01   0.11     0.12   0.05  -0.01    -0.02   0.05  -0.12
  11   6    -0.18  -0.07  -0.02     0.20   0.11  -0.04    -0.07   0.01   0.11
  12   6    -0.02  -0.04   0.08     0.22  -0.01  -0.05     0.10   0.00  -0.05
  13   1    -0.04   0.00   0.10     0.01  -0.02  -0.05    -0.15   0.21  -0.13
  14   1     0.04   0.04   0.06    -0.05  -0.04  -0.04     0.06   0.20  -0.01
  15   1    -0.05  -0.04   0.01    -0.00   0.00  -0.01     0.12   0.21   0.02
  16   1     0.06  -0.01  -0.09    -0.04   0.01   0.07    -0.02  -0.08   0.03
  17   1    -0.02   0.02   0.02    -0.04  -0.01   0.06    -0.08  -0.01   0.05
  18   1    -0.05   0.03  -0.00    -0.03  -0.08   0.00    -0.04  -0.09   0.01
  19   1     0.06  -0.02  -0.02    -0.01  -0.01   0.01     0.01  -0.09   0.01
  20   1     0.01   0.01  -0.07    -0.01   0.00   0.01    -0.02  -0.06  -0.03
  21   1    -0.06   0.02   0.05     0.04   0.02  -0.01     0.02   0.02  -0.06
  22   1     0.21   0.17  -0.34     0.18   0.16  -0.18    -0.03   0.04   0.03
  23   1     0.02   0.06   0.43     0.12   0.06   0.21    -0.03   0.02   0.09
  24   1    -0.40  -0.32  -0.14    -0.11  -0.11  -0.08    -0.01  -0.06   0.04
  25   1     0.07  -0.06   0.08    -0.26   0.08  -0.26     0.06  -0.01   0.01
  26   1     0.01  -0.02  -0.08     0.08   0.11   0.39     0.05   0.01  -0.04
  27   1    -0.08   0.03   0.06     0.40  -0.22  -0.19    -0.00  -0.01   0.01
                     10                     11                     12
                        a                      a                      a 
 Frequencies --   324.6530               350.2867               363.9246
 Red. masses --     7.7036                 8.9590                 8.1932
 Frc consts  --     0.0000                 0.0000                 0.0000
 IR Inten    --     0.6838                 2.0969                 0.6913
 Raman Activ --     0.0000                 0.0000                 0.0000
 Depolar     --     0.0000                 0.0000                 0.0000
 Atom AN      X      Y      Z        X      Y      Z        X      Y      Z
   1   6    -0.01  -0.17   0.02    -0.06  -0.07   0.01    -0.15   0.09  -0.08
   2   6     0.01   0.06  -0.03     0.01   0.17  -0.12    -0.14  -0.03  -0.04
   3   6    -0.04   0.10   0.11     0.01   0.21   0.04     0.01   0.04  -0.05
   4   6     0.01   0.01  -0.05     0.06   0.12  -0.04    -0.00   0.11   0.10
   5   8    -0.19  -0.05  -0.03     0.23   0.26   0.03     0.03   0.07  -0.03
   6   6     0.07   0.02  -0.06     0.03   0.01  -0.20     0.02   0.10   0.31
   7   1     0.03  -0.01  -0.03     0.03   0.02  -0.07    -0.03   0.05   0.13
   8   6    -0.16  -0.23   0.31    -0.20  -0.19   0.13    -0.22  -0.00   0.13
   9   6     0.14  -0.00  -0.00    -0.03   0.18  -0.03    -0.09  -0.06  -0.02
  10   6     0.04   0.22  -0.10     0.05  -0.27  -0.17     0.10  -0.11   0.30
  11   6    -0.16   0.06   0.13     0.15  -0.22  -0.02     0.29   0.02  -0.33
  12   6     0.28   0.09  -0.32    -0.21  -0.10   0.21     0.11  -0.21  -0.14
  13   1     0.05  -0.07   0.03     0.03  -0.04   0.04    -0.07   0.04  -0.04
  14   1    -0.02  -0.08   0.00    -0.02  -0.04   0.01    -0.03   0.04  -0.02
  15   1    -0.04  -0.07  -0.01    -0.08  -0.05  -0.02    -0.02   0.04  -0.01
  16   1    -0.03   0.04   0.07    -0.01   0.07   0.03     0.05  -0.01  -0.03
  17   1    -0.09  -0.04   0.24    -0.12  -0.02   0.25    -0.10   0.03   0.07
  18   1    -0.12  -0.23   0.04    -0.12  -0.27  -0.01    -0.10  -0.03   0.02
  19   1     0.15  -0.04   0.04     0.03   0.09   0.02     0.02  -0.05   0.01
  20   1     0.06   0.04  -0.08    -0.01   0.05   0.01    -0.02   0.00  -0.05
  21   1     0.02   0.07  -0.03     0.04  -0.09  -0.07    -0.02  -0.05   0.13
  22   1    -0.06   0.00   0.06     0.03  -0.03  -0.01     0.12  -0.07  -0.11
  23   1    -0.10   0.05   0.05     0.06  -0.06   0.02     0.15  -0.06  -0.23
  24   1    -0.01  -0.05   0.06     0.05  -0.08  -0.00     0.02   0.20  -0.14
  25   1     0.20  -0.11   0.01    -0.02   0.11   0.08     0.08  -0.18   0.01
  26   1     0.12   0.02  -0.28    -0.12  -0.07   0.13     0.04  -0.09  -0.19
  27   1    -0.03   0.12  -0.04    -0.11  -0.06   0.11    -0.01   0.06  -0.05
                     13                     14                     15
                        a                      a                      a 
 Frequencies --   405.6289               427.8259               472.2661
 Red. masses --     8.8002                 8.3210                10.1389
 Frc consts  --     0.0000                 0.0000                 0.0000
 IR Inten    --     1.2872                 4.5804                 5.5660
 Raman Activ --     0.0000                 0.0000                 0.0000
 Depolar     --     0.0000                 0.0000                 0.0000
 Atom AN      X      Y      Z        X      Y      Z        X      Y      Z
   1   6     0.15   0.02   0.12     0.00   0.15   0.03     0.13   0.08   0.03
   2   6     0.27   0.05  -0.17     0.18  -0.07  -0.33    -0.15   0.13   0.50
   3   6     0.01   0.00   0.08     0.06   0.08   0.22     0.29   0.09  -0.09
   4   6    -0.03  -0.17   0.10     0.12  -0.08   0.14     0.22  -0.14   0.05
   5   8     0.08  -0.17   0.08    -0.06  -0.26   0.03    -0.10  -0.31   0.10
   6   6    -0.23  -0.04  -0.08     0.09  -0.01   0.04    -0.02   0.04  -0.07
   7   1    -0.04   0.03  -0.05    -0.01   0.07   0.04    -0.00   0.12  -0.02
   8   6    -0.15   0.04  -0.04    -0.13  -0.10  -0.18    -0.26  -0.01  -0.16
   9   6    -0.09   0.21  -0.05    -0.24   0.08  -0.07    -0.19   0.16  -0.15
  10   6    -0.29  -0.05  -0.12     0.23   0.08   0.11     0.03  -0.01  -0.07
  11   6     0.06   0.33  -0.03    -0.03  -0.18   0.01     0.02  -0.04  -0.01
  12   6     0.16  -0.29   0.02    -0.01   0.22  -0.09     0.01   0.02  -0.00
  13   1     0.02   0.01   0.09    -0.10   0.07   0.04     0.07   0.03  -0.09
  14   1     0.10   0.02   0.09     0.11   0.09   0.11    -0.07   0.01  -0.11
  15   1    -0.04  -0.01   0.02    -0.07   0.06   0.01     0.21   0.05   0.03
  16   1    -0.06   0.03   0.01    -0.01   0.03   0.11     0.09   0.02  -0.10
  17   1    -0.00  -0.01   0.02    -0.06  -0.02  -0.01    -0.08   0.00   0.04
  18   1    -0.06   0.00  -0.02    -0.05  -0.06  -0.06    -0.12  -0.06  -0.07
  19   1    -0.06   0.18   0.01    -0.19   0.25  -0.01    -0.03  -0.14  -0.08
  20   1    -0.09  -0.03   0.06    -0.15  -0.12   0.18     0.01   0.13  -0.14
  21   1    -0.07  -0.01  -0.05     0.05   0.04   0.04     0.02  -0.01  -0.03
  22   1    -0.03   0.22   0.01     0.03  -0.14  -0.01     0.01  -0.01  -0.01
  23   1     0.15   0.03  -0.01    -0.10  -0.01   0.00    -0.00  -0.00   0.01
  24   1     0.06   0.16   0.01    -0.05  -0.10  -0.01     0.00  -0.03   0.00
  25   1     0.10  -0.16   0.05    -0.04   0.07  -0.05     0.01   0.03   0.01
  26   1     0.17   0.02  -0.03    -0.08  -0.01  -0.03    -0.01  -0.00   0.01
  27   1     0.03  -0.18   0.05     0.01   0.16  -0.07    -0.01   0.00   0.01
                     16                     17                     18
                        a                      a                      a 
 Frequencies --   511.9749               521.4999               630.6370
 Red. masses --    10.1160                11.1677                 9.7056
 Frc consts  --     0.0000                 0.0000                 0.0000
 IR Inten    --    24.7972                 2.1325                 1.2789
 Raman Activ --     0.0000                 0.0000                 0.0000
 Depolar     --     0.0000                 0.0000                 0.0000
 Atom AN      X      Y      Z        X      Y      Z        X      Y      Z
   1   6     0.15  -0.07   0.08     0.36  -0.01   0.18     0.23   0.00   0.13
   2   6     0.09   0.16   0.11     0.25  -0.19   0.08     0.04  -0.01   0.18
   3   6    -0.24  -0.13  -0.10    -0.04  -0.24   0.07    -0.01  -0.01   0.05
   4   6    -0.22  -0.27  -0.18    -0.13   0.18  -0.07     0.10   0.12  -0.42
   5   8     0.29   0.10   0.17    -0.37   0.07  -0.20    -0.15   0.31  -0.07
   6   6    -0.32  -0.15  -0.04    -0.12   0.24  -0.13     0.14  -0.09   0.07
   7   1    -0.17  -0.12   0.06    -0.04   0.06  -0.04    -0.04  -0.07   0.08
   8   6    -0.07   0.06   0.01    -0.17   0.26   0.13     0.04  -0.29  -0.24
   9   6     0.01   0.24  -0.02    -0.01  -0.09   0.06    -0.03  -0.03  -0.12
  10   6     0.20   0.06   0.20     0.11  -0.08  -0.10    -0.09   0.02   0.25
  11   6     0.06  -0.13  -0.05     0.14  -0.14  -0.07    -0.11   0.12   0.04
  12   6     0.05   0.15  -0.10    -0.02   0.01   0.01    -0.06  -0.13   0.05
  13   1     0.11  -0.05   0.04     0.05   0.02   0.04     0.08   0.00  -0.01
  14   1    -0.01  -0.05  -0.01     0.14   0.02   0.07     0.01  -0.00  -0.03
  15   1     0.03  -0.05   0.01     0.11   0.02   0.06     0.15   0.01   0.05
  16   1    -0.18   0.03  -0.08     0.01  -0.08   0.06    -0.04   0.01   0.16
  17   1     0.06  -0.03   0.03    -0.10   0.10   0.06    -0.01  -0.07   0.04
  18   1    -0.04   0.04  -0.01    -0.04   0.01   0.04    -0.06  -0.15  -0.11
  19   1     0.02   0.04  -0.01     0.03  -0.04   0.03    -0.18   0.12  -0.07
  20   1    -0.00   0.07  -0.04    -0.08  -0.08  -0.07    -0.02  -0.08   0.17
  21   1     0.09   0.03   0.02     0.06  -0.04  -0.05    -0.08   0.02   0.11
  22   1     0.08  -0.14  -0.05     0.05  -0.06  -0.03    -0.01   0.03  -0.01
  23   1    -0.04  -0.02  -0.04     0.03  -0.04  -0.03     0.01   0.01  -0.01
  24   1    -0.05  -0.02  -0.05     0.03  -0.03  -0.03    -0.06   0.09  -0.01
  25   1    -0.04  -0.01  -0.06     0.01   0.08   0.00    -0.03  -0.12   0.01
  26   1    -0.04  -0.01  -0.07    -0.05  -0.03   0.03     0.01  -0.03  -0.03
  27   1     0.05   0.15  -0.09    -0.03   0.00   0.02     0.01  -0.00  -0.02
                     19                     20                     21
                        a                      a                      a 
 Frequencies --   695.2309               785.0967               850.4243
 Red. masses --    10.2385                 7.0490                 5.6341
 Frc consts  --     0.0000                 0.0000                 0.0000
 IR Inten    --     8.6960                24.5133                 8.5433
 Raman Activ --     0.0000                 0.0000                 0.0000
 Depolar     --     0.0000                 0.0000                 0.0000
 Atom AN      X      Y      Z        X      Y      Z        X      Y      Z
   1   6    -0.16   0.00  -0.09    -0.19  -0.01  -0.03     0.01   0.02   0.09
   2   6    -0.01  -0.04  -0.10    -0.05  -0.08   0.13    -0.03   0.05   0.04
   3   6     0.02   0.04   0.15    -0.14  -0.33  -0.15     0.19   0.05  -0.28
   4   6     0.41  -0.25  -0.56    -0.05  -0.08   0.09    -0.08   0.08   0.10
   5   8    -0.07  -0.10   0.20     0.03  -0.12   0.03     0.03   0.06  -0.05
   6   6    -0.01   0.12  -0.02     0.18   0.19   0.07    -0.10  -0.13   0.26
   7   1    -0.02   0.01   0.01     0.06   0.04   0.01    -0.01  -0.07   0.06
   8   6    -0.05   0.28   0.20     0.18   0.27   0.00    -0.13  -0.09   0.10
   9   6     0.01   0.03   0.05     0.21   0.19  -0.18     0.01  -0.10  -0.08
  10   6    -0.02  -0.01   0.04     0.00  -0.01  -0.05    -0.07  -0.04  -0.20
  11   6     0.01  -0.03   0.01    -0.01   0.00  -0.01     0.10  -0.13  -0.06
  12   6    -0.05  -0.08   0.03     0.01  -0.02  -0.02     0.05   0.17  -0.08
  13   1    -0.05   0.00  -0.05    -0.02  -0.01  -0.06     0.07  -0.01  -0.03
  14   1    -0.06   0.00  -0.05    -0.14  -0.02  -0.10    -0.10  -0.01  -0.09
  15   1    -0.01   0.01  -0.02     0.04  -0.01  -0.01     0.13  -0.01   0.02
  16   1    -0.11   0.05   0.29    -0.12  -0.06   0.11    -0.24   0.13   0.52
  17   1     0.02   0.06  -0.05    -0.06   0.14   0.35     0.04  -0.07  -0.16
  18   1     0.05   0.15   0.09    -0.16  -0.21  -0.12    -0.02   0.19   0.05
  19   1     0.10   0.01   0.06    -0.17   0.25  -0.09     0.00   0.13   0.02
  20   1    -0.04  -0.01  -0.08    -0.02  -0.09   0.20    -0.06  -0.11   0.06
  21   1    -0.01  -0.02   0.01    -0.05   0.01   0.03    -0.05  -0.01  -0.02
  22   1     0.02  -0.01  -0.02    -0.02   0.03   0.01    -0.04   0.05   0.04
  23   1     0.03  -0.03  -0.01     0.01   0.00   0.01     0.03  -0.03   0.04
  24   1    -0.02   0.02  -0.01     0.03  -0.02   0.01     0.12  -0.11   0.04
  25   1    -0.01  -0.00   0.01     0.03   0.04   0.01     0.06   0.10   0.01
  26   1    -0.02  -0.03   0.02    -0.01  -0.02   0.02     0.07   0.10   0.02
  27   1    -0.02  -0.03   0.02    -0.03  -0.02   0.03    -0.02  -0.06   0.03
                     22                     23                     24
                        a                      a                      a 
 Frequencies --   868.0309               899.0947               924.3874
 Red. masses --     7.3486                 7.8673                 7.5377
 Frc consts  --     0.0000                 0.0000                 0.0000
 IR Inten    --     2.5613                15.8579                 3.8847
 Raman Activ --     0.0000                 0.0000                 0.0000
 Depolar     --     0.0000                 0.0000                 0.0000
 Atom AN      X      Y      Z        X      Y      Z        X      Y      Z
   1   6     0.13   0.01   0.02    -0.17  -0.11  -0.06    -0.06   0.10   0.03
   2   6     0.01   0.05  -0.02     0.01  -0.22   0.06    -0.01   0.09   0.04
   3   6    -0.29  -0.01   0.13     0.21  -0.07   0.24     0.02   0.20   0.12
   4   6     0.02  -0.10  -0.21     0.09   0.15  -0.05     0.08  -0.05  -0.07
   5   8     0.02   0.05   0.06    -0.10   0.14  -0.08    -0.01  -0.04   0.04
   6   6     0.27  -0.02   0.43    -0.27  -0.26   0.06    -0.34   0.14  -0.04
   7   1     0.05  -0.06   0.14    -0.07  -0.17   0.01    -0.08   0.09  -0.02
   8   6    -0.08   0.02   0.02     0.06   0.01   0.12    -0.06  -0.00  -0.06
   9   6    -0.13   0.01  -0.07     0.05   0.33  -0.15     0.37  -0.38   0.01
  10   6    -0.06  -0.04  -0.22    -0.08  -0.01  -0.05    -0.13  -0.01  -0.00
  11   6     0.06  -0.11  -0.08     0.07  -0.11  -0.03     0.08  -0.15   0.03
  12   6     0.05   0.12  -0.12     0.03   0.13  -0.01     0.02   0.13  -0.03
  13   1     0.04  -0.01   0.05    -0.23   0.06  -0.13     0.15  -0.04   0.05
  14   1     0.06  -0.01   0.05     0.03   0.06  -0.01    -0.15  -0.05  -0.09
  15   1    -0.04  -0.01  -0.00     0.09   0.07   0.04    -0.01  -0.05  -0.04
  16   1     0.06  -0.04  -0.37     0.31  -0.14  -0.09     0.14   0.01  -0.27
  17   1    -0.06   0.03  -0.05     0.23  -0.13   0.11    -0.04   0.01  -0.02
  18   1    -0.08   0.10  -0.01    -0.08   0.07  -0.01    -0.11   0.02  -0.06
  19   1    -0.06  -0.05  -0.04    -0.02   0.11  -0.04    -0.13   0.15  -0.02
  20   1    -0.02   0.03  -0.03     0.00   0.06   0.01     0.05  -0.23   0.29
  21   1    -0.16  -0.02   0.07    -0.01   0.03  -0.04     0.01  -0.01  -0.04
  22   1    -0.10   0.11   0.06    -0.01   0.02   0.01     0.05  -0.02  -0.03
  23   1     0.05  -0.02   0.07     0.05  -0.04   0.02     0.10  -0.09  -0.02
  24   1     0.17  -0.14   0.06     0.06  -0.05   0.02    -0.01   0.04  -0.02
  25   1     0.11   0.18   0.03    -0.00  -0.03  -0.01     0.02   0.00   0.00
  26   1     0.06   0.09   0.06     0.06   0.07  -0.03     0.06   0.08  -0.01
  27   1    -0.07  -0.13   0.09     0.04   0.03  -0.02     0.02  -0.00  -0.00
                     25                     26                     27
                        a                      a                      a 
 Frequencies --   951.8517               963.5783               982.4560
 Red. masses --     2.8117                 6.6398                 4.7140
 Frc consts  --     0.0000                 0.0000                 0.0000
 IR Inten    --     1.5873                 1.2228                10.5287
 Raman Activ --     0.0000                 0.0000                 0.0000
 Depolar     --     0.0000                 0.0000                 0.0000
 Atom AN      X      Y      Z        X      Y      Z        X      Y      Z
   1   6    -0.02  -0.01  -0.00    -0.04   0.02   0.09     0.07   0.03  -0.04
   2   6     0.01  -0.01   0.00     0.00   0.01  -0.01    -0.05   0.03   0.02
   3   6    -0.03  -0.06   0.00     0.03   0.10   0.06     0.08   0.15  -0.01
   4   6     0.01   0.01  -0.00    -0.02   0.01   0.00    -0.04  -0.03  -0.03
   5   8    -0.00  -0.01  -0.00     0.01   0.02   0.00     0.03  -0.01   0.02
   6   6     0.02   0.05  -0.01    -0.05  -0.13   0.10     0.03  -0.12  -0.02
   7   1     0.01   0.05  -0.00    -0.02  -0.15   0.03     0.03  -0.16  -0.03
   8   6    -0.00  -0.06  -0.03    -0.09   0.07   0.15     0.09   0.24   0.06
   9   6     0.01   0.08   0.01     0.06  -0.10  -0.15    -0.09  -0.18  -0.03
  10   6    -0.04   0.12   0.01     0.34   0.06  -0.15    -0.05   0.14  -0.01
  11   6     0.21   0.07   0.10    -0.07   0.35  -0.06     0.19  -0.06  -0.16
  12   6    -0.23   0.05  -0.11    -0.02  -0.34  -0.00    -0.19  -0.02   0.20
  13   1    -0.02   0.00  -0.01     0.05  -0.00  -0.04     0.03  -0.01   0.06
  14   1    -0.00   0.00  -0.01    -0.11  -0.00  -0.09     0.07  -0.01   0.06
  15   1     0.01   0.00   0.01     0.12  -0.01   0.02    -0.09  -0.01  -0.02
  16   1    -0.00  -0.02  -0.00     0.09  -0.00  -0.14    -0.02   0.06   0.02
  17   1     0.02  -0.03  -0.02     0.02  -0.01  -0.04    -0.07   0.12   0.16
  18   1     0.02  -0.01   0.00    -0.08   0.16   0.03    -0.07  -0.09  -0.04
  19   1     0.04   0.02   0.02    -0.06   0.12  -0.03    -0.13  -0.10  -0.07
  20   1     0.02   0.03   0.01    -0.07  -0.14   0.06    -0.07  -0.08  -0.04
  21   1     0.03  -0.31   0.05     0.13  -0.02  -0.07     0.00   0.16  -0.04
  22   1     0.21  -0.39  -0.03    -0.01  -0.10   0.03    -0.07  -0.01   0.08
  23   1    -0.28   0.15  -0.08    -0.31   0.24   0.01    -0.12   0.10   0.08
  24   1    -0.13  -0.07  -0.06    -0.02  -0.12   0.01     0.22  -0.30   0.07
  25   1     0.09  -0.11   0.10     0.00   0.10  -0.01    -0.16  -0.43   0.01
  26   1     0.29   0.33   0.01    -0.18  -0.23   0.07     0.13   0.11  -0.15
  27   1    -0.08  -0.39   0.12    -0.08  -0.03   0.03     0.13   0.06  -0.11
                     28                     29                     30
                        a                      a                      a 
 Frequencies --   987.9953              1002.3671              1020.3709
 Red. masses --     4.9332                 6.1092                 4.6787
 Frc consts  --     0.0000                 0.0000                 0.0000
 IR Inten    --    43.8873                13.6740                15.2323
 Raman Activ --     0.0000                 0.0000                 0.0000
 Depolar     --     0.0000                 0.0000                 0.0000
 Atom AN      X      Y      Z        X      Y      Z        X      Y      Z
   1   6     0.12  -0.05  -0.21     0.00  -0.10   0.26     0.05  -0.37   0.05
   2   6    -0.11   0.02   0.11    -0.01  -0.01  -0.19    -0.11   0.01  -0.04
   3   6     0.20   0.18  -0.02     0.01   0.24   0.01    -0.03   0.17  -0.05
   4   6    -0.06  -0.04  -0.06    -0.13  -0.07   0.02    -0.07  -0.09  -0.04
   5   8     0.02   0.01   0.02     0.05  -0.01   0.01     0.03  -0.03   0.03
   6   6    -0.16  -0.10   0.06     0.15  -0.12  -0.11    -0.08   0.20   0.03
   7   1    -0.10  -0.20   0.07     0.11  -0.21  -0.09    -0.09   0.15   0.07
   8   6     0.16   0.18  -0.01     0.14   0.18   0.14    -0.01  -0.06  -0.10
   9   6    -0.05  -0.16   0.04    -0.19  -0.13  -0.15     0.18  -0.03   0.10
  10   6     0.04  -0.08  -0.02    -0.10  -0.06   0.07     0.04   0.05  -0.01
  11   6    -0.08   0.07   0.08    -0.05  -0.05   0.14     0.05   0.00  -0.10
  12   6     0.11   0.03  -0.17     0.04   0.13  -0.04    -0.03  -0.07   0.02
  13   1    -0.12   0.02   0.08    -0.05   0.03  -0.17    -0.41   0.10  -0.22
  14   1     0.28   0.02   0.22    -0.11   0.06  -0.15     0.25   0.16   0.08
  15   1    -0.25   0.04  -0.03     0.40   0.04   0.13     0.28   0.16   0.17
  16   1    -0.02   0.08   0.14    -0.03   0.10  -0.15    -0.15   0.13  -0.07
  17   1    -0.00   0.07   0.22    -0.07   0.11   0.09    -0.09   0.03  -0.06
  18   1    -0.12  -0.10  -0.09     0.05  -0.07   0.03     0.02  -0.03  -0.02
  19   1    -0.21  -0.18  -0.11    -0.02  -0.01  -0.02     0.06   0.05   0.05
  20   1     0.03  -0.01   0.04    -0.15  -0.11  -0.11     0.18   0.08   0.16
  21   1     0.01  -0.13   0.02     0.01  -0.07  -0.00    -0.03   0.05   0.03
  22   1     0.05  -0.04  -0.04     0.08  -0.03  -0.06    -0.06   0.04   0.04
  23   1    -0.01  -0.00  -0.04     0.11  -0.10  -0.06    -0.05   0.05   0.05
  24   1    -0.11   0.11  -0.03    -0.14   0.19  -0.05     0.11  -0.12   0.03
  25   1     0.13   0.25   0.01     0.03   0.02   0.00    -0.01  -0.01   0.00
  26   1    -0.04  -0.02   0.09     0.05   0.07   0.00    -0.02  -0.03   0.00
  27   1    -0.10  -0.11   0.09     0.01  -0.01   0.01    -0.01  -0.01   0.00
                     31                     32                     33
                        a                      a                      a 
 Frequencies --  1037.9913              1110.0900              1117.7894
 Red. masses --     5.6384                 5.0803                 6.0845
 Frc consts  --     0.0000                 0.0000                 0.0000
 IR Inten    --     3.1361                 7.2622                 6.1221
 Raman Activ --     0.0000                 0.0000                 0.0000
 Depolar     --     0.0000                 0.0000                 0.0000
 Atom AN      X      Y      Z        X      Y      Z        X      Y      Z
   1   6    -0.15   0.09   0.13     0.05   0.01   0.12     0.07   0.02  -0.01
   2   6     0.16  -0.05  -0.22    -0.00  -0.04  -0.23    -0.10  -0.00   0.06
   3   6     0.13   0.01   0.09    -0.13   0.01  -0.05    -0.01   0.06  -0.03
   4   6    -0.05  -0.01  -0.01     0.11   0.02  -0.03    -0.01  -0.01   0.04
   5   8    -0.01   0.00  -0.01    -0.00  -0.01   0.01     0.01  -0.04   0.01
   6   6    -0.18  -0.01   0.04    -0.16   0.15   0.25    -0.10   0.21  -0.19
   7   1    -0.26   0.01   0.21     0.13   0.23  -0.09    -0.13   0.18   0.05
   8   6     0.14   0.06  -0.28     0.19  -0.10   0.05     0.22  -0.14   0.23
   9   6    -0.06  -0.00   0.29    -0.15  -0.01   0.06    -0.13  -0.06  -0.27
  10   6     0.07  -0.04   0.06    -0.11   0.09  -0.18     0.02   0.21   0.19
  11   6    -0.02   0.05  -0.14     0.10  -0.02   0.07     0.07  -0.09  -0.09
  12   6     0.01   0.01  -0.09     0.04  -0.06   0.06    -0.04  -0.12  -0.11
  13   1     0.13  -0.02  -0.05     0.07  -0.01  -0.03     0.02  -0.00   0.04
  14   1    -0.25  -0.02  -0.18    -0.05   0.01  -0.05     0.03  -0.01   0.03
  15   1     0.14  -0.05  -0.00     0.11  -0.01   0.03    -0.03  -0.00  -0.01
  16   1     0.07  -0.02   0.07    -0.11   0.04   0.03    -0.03   0.03  -0.07
  17   1    -0.04   0.06   0.17     0.30  -0.18   0.18     0.30  -0.18   0.09
  18   1     0.03  -0.26  -0.09    -0.16   0.04  -0.08     0.22  -0.06   0.13
  19   1     0.10  -0.19   0.07    -0.26  -0.30  -0.17    -0.03   0.07  -0.04
  20   1     0.02   0.09  -0.12     0.12   0.15   0.02    -0.22  -0.17  -0.14
  21   1    -0.10  -0.03   0.12     0.12   0.05  -0.18    -0.16   0.10   0.18
  22   1    -0.12   0.09   0.06     0.10  -0.12  -0.03    -0.06   0.06   0.04
  23   1    -0.06   0.07   0.07    -0.02  -0.00  -0.04     0.03  -0.01   0.05
  24   1     0.13  -0.15   0.05    -0.06   0.02  -0.03     0.12  -0.09   0.03
  25   1     0.07   0.10   0.02    -0.04  -0.02  -0.02     0.07   0.12   0.02
  26   1     0.01   0.02   0.04    -0.07  -0.09  -0.02    -0.04  -0.03   0.07
  27   1    -0.06  -0.09   0.05     0.03   0.08  -0.03    -0.10  -0.13   0.08
                     34                     35                     36
                        a                      a                      a 
 Frequencies --  1142.5124              1168.0661              1173.0781
 Red. masses --     6.6150                 6.5145                 6.4873
 Frc consts  --     0.0000                 0.0000                 0.0000
 IR Inten    --    13.5669                73.0515                 6.6985
 Raman Activ --     0.0000                 0.0000                 0.0000
 Depolar     --     0.0000                 0.0000                 0.0000
 Atom AN      X      Y      Z        X      Y      Z        X      Y      Z
   1   6     0.04  -0.02  -0.03    -0.27  -0.07  -0.13    -0.08  -0.01  -0.07
   2   6    -0.05   0.02   0.07     0.47   0.12   0.23     0.13   0.05   0.13
   3   6    -0.09   0.03  -0.03     0.06  -0.05   0.04     0.07  -0.01   0.05
   4   6     0.11   0.02  -0.04     0.03   0.03   0.04    -0.05  -0.04  -0.05
   5   8    -0.01   0.02   0.01    -0.05   0.09  -0.06    -0.02   0.05  -0.02
   6   6    -0.08   0.01   0.10     0.07  -0.05   0.03    -0.04  -0.02   0.11
   7   1    -0.01   0.28   0.02    -0.02   0.05   0.04     0.11  -0.02  -0.08
   8   6     0.09   0.01   0.01    -0.06  -0.03  -0.07     0.07  -0.03  -0.13
   9   6    -0.03  -0.05  -0.06     0.03  -0.07   0.13    -0.03  -0.01   0.01
  10   6     0.03  -0.52  -0.03     0.13   0.08  -0.06    -0.48   0.08  -0.03
  11   6    -0.13   0.23  -0.09    -0.06  -0.05   0.04     0.30   0.02   0.06
  12   6     0.12   0.26   0.11    -0.10  -0.04  -0.00     0.25  -0.05   0.02
  13   1    -0.03   0.01   0.01    -0.22   0.05  -0.12    -0.07   0.01  -0.02
  14   1     0.05  -0.00   0.04    -0.06   0.00  -0.03    -0.01  -0.01   0.00
  15   1    -0.02   0.01   0.00    -0.07  -0.01  -0.03    -0.05  -0.00  -0.02
  16   1    -0.06   0.03  -0.06    -0.36   0.21  -0.21    -0.04   0.03  -0.05
  17   1     0.14  -0.07   0.10     0.12  -0.09   0.04    -0.13   0.08  -0.02
  18   1     0.09  -0.10   0.03    -0.12   0.05  -0.06     0.12  -0.13   0.01
  19   1     0.09   0.08   0.06    -0.07  -0.12  -0.03     0.15   0.09   0.09
  20   1    -0.19  -0.17  -0.10    -0.22  -0.18  -0.16    -0.13  -0.08  -0.12
  21   1     0.08  -0.33  -0.03     0.05   0.06  -0.04    -0.14   0.06  -0.00
  22   1    -0.08   0.02   0.03    -0.00   0.06  -0.02     0.15  -0.27   0.01
  23   1    -0.15   0.13   0.02     0.08  -0.06  -0.01    -0.16   0.10  -0.04
  24   1    -0.01  -0.07   0.00    -0.03   0.08  -0.01    -0.02  -0.15  -0.01
  25   1    -0.04  -0.08  -0.01    -0.00  -0.06   0.02    -0.02   0.18  -0.07
  26   1     0.07   0.08  -0.08     0.04   0.04  -0.01    -0.18  -0.21   0.04
  27   1     0.14   0.17  -0.09    -0.01  -0.08   0.01    -0.01   0.21  -0.02
                     37                     38                     39
                        a                      a                      a 
 Frequencies --  1184.6971              1202.7648              1245.5044
 Red. masses --     5.6039                 6.4188                 6.5808
 Frc consts  --     0.0000                 0.0000                 0.0000
 IR Inten    --     6.2053                 4.1825               151.2966
 Raman Activ --     0.0000                 0.0000                 0.0000
 Depolar     --     0.0000                 0.0000                 0.0000
 Atom AN      X      Y      Z        X      Y      Z        X      Y      Z
   1   6    -0.09  -0.00   0.00    -0.09   0.04  -0.04    -0.07  -0.02  -0.03
   2   6     0.19   0.01  -0.03     0.19   0.02   0.07     0.11   0.10   0.04
   3   6     0.05  -0.04   0.02     0.16  -0.07   0.10     0.16   0.09   0.06
   4   6    -0.02   0.00   0.03    -0.10  -0.06  -0.05    -0.51  -0.30  -0.20
   5   8    -0.02   0.01  -0.02    -0.02  -0.01   0.00     0.04   0.08   0.00
   6   6     0.09   0.03  -0.31    -0.14   0.30   0.15     0.11   0.01   0.09
   7   1     0.10  -0.05  -0.15    -0.12  -0.17   0.11     0.20   0.39  -0.13
   8   6    -0.13  -0.01   0.19     0.21  -0.23   0.19     0.00  -0.05   0.03
   9   6     0.04   0.01  -0.01    -0.14   0.05  -0.25     0.05   0.03   0.03
  10   6    -0.14  -0.19   0.30     0.06  -0.07  -0.13     0.03   0.01   0.08
  11   6     0.05   0.09  -0.14    -0.05   0.02  -0.00    -0.04  -0.01  -0.04
  12   6     0.14   0.10  -0.02    -0.03   0.03   0.05    -0.04  -0.01  -0.03
  13   1    -0.02   0.01  -0.05    -0.01   0.01  -0.02    -0.05   0.01  -0.03
  14   1    -0.06   0.01  -0.05    -0.06  -0.02  -0.04    -0.01   0.02  -0.02
  15   1     0.01  -0.02  -0.01    -0.06  -0.02  -0.03    -0.01   0.02   0.00
  16   1    -0.10   0.05  -0.03    -0.07   0.05  -0.05     0.37  -0.17   0.21
  17   1     0.02  -0.04  -0.09    -0.30   0.16  -0.17    -0.01  -0.00  -0.02
  18   1    -0.10   0.17   0.03     0.32  -0.13   0.17    -0.03   0.05  -0.00
  19   1    -0.32  -0.21  -0.21    -0.15  -0.04  -0.13    -0.09  -0.06  -0.06
  20   1     0.18   0.12   0.14     0.14   0.14   0.08    -0.10  -0.08  -0.06
  21   1    -0.17  -0.19   0.23     0.14  -0.05  -0.13     0.13   0.00  -0.09
  22   1    -0.08  -0.01   0.07    -0.01   0.03  -0.01    -0.03   0.04   0.01
  23   1    -0.13   0.11   0.06     0.01  -0.01  -0.01     0.02  -0.01   0.03
  24   1     0.10  -0.17   0.03    -0.02   0.03  -0.01     0.03   0.00   0.01
  25   1     0.03   0.09  -0.01    -0.03  -0.08  -0.00     0.02   0.01   0.01
  26   1    -0.03  -0.02   0.03     0.04   0.03  -0.04     0.02   0.03   0.01
  27   1     0.01   0.06   0.01     0.04   0.02  -0.03    -0.01  -0.04   0.01
                     40                     41                     42
                        a                      a                      a 
 Frequencies --  1256.1677              1280.2035              1295.5788
 Red. masses --     5.3139                 5.1217                 5.7687
 Frc consts  --     0.0000                 0.0000                 0.0000
 IR Inten    --    44.9803                40.3570                43.2096
 Raman Activ --     0.0000                 0.0000                 0.0000
 Depolar     --     0.0000                 0.0000                 0.0000
 Atom AN      X      Y      Z        X      Y      Z        X      Y      Z
   1   6    -0.01  -0.01   0.01    -0.00  -0.05   0.02     0.01   0.11  -0.01
   2   6    -0.01   0.02  -0.02     0.05   0.09  -0.03    -0.08  -0.29   0.01
   3   6     0.07   0.05   0.01    -0.19  -0.00  -0.09     0.30   0.00   0.15
   4   6    -0.21  -0.08  -0.02     0.19   0.10   0.05    -0.19  -0.14  -0.05
   5   8     0.04  -0.05   0.03    -0.01   0.03  -0.02    -0.04   0.15  -0.07
   6   6     0.26   0.20  -0.14    -0.04  -0.43  -0.02     0.09  -0.19  -0.02
   7   1    -0.38  -0.09   0.36    -0.15   0.38   0.13    -0.01   0.36   0.03
   8   6    -0.08  -0.04   0.04    -0.08   0.12   0.11    -0.02   0.14   0.05
   9   6     0.06   0.01   0.05     0.15   0.05  -0.01    -0.11  -0.06  -0.11
  10   6    -0.05  -0.03  -0.35     0.02  -0.02  -0.10     0.05  -0.09  -0.07
  11   6     0.06   0.01   0.14     0.04   0.01   0.09     0.03   0.03   0.07
  12   6     0.05   0.03   0.19    -0.01   0.00  -0.02    -0.03   0.00  -0.01
  13   1    -0.00  -0.00  -0.00    -0.04   0.01  -0.05     0.10  -0.02   0.06
  14   1    -0.00   0.01  -0.01     0.02   0.02  -0.01    -0.04  -0.05   0.00
  15   1     0.01   0.01   0.01     0.03   0.01   0.02    -0.05  -0.04  -0.04
  16   1     0.14  -0.06   0.07     0.08  -0.08   0.07    -0.29   0.21  -0.18
  17   1     0.17  -0.12   0.02    -0.20   0.14  -0.08     0.06   0.00   0.08
  18   1    -0.08   0.10  -0.01     0.29  -0.15   0.16     0.00   0.03   0.02
  19   1    -0.06  -0.04  -0.04    -0.28  -0.15  -0.20     0.12   0.14   0.09
  20   1    -0.05  -0.04  -0.04    -0.03  -0.04  -0.02     0.25   0.20   0.16
  21   1    -0.28  -0.08   0.17    -0.15   0.20   0.06    -0.13   0.20   0.06
  22   1     0.09  -0.09  -0.03     0.06  -0.06  -0.01     0.04  -0.04  -0.00
  23   1    -0.03  -0.01  -0.07    -0.02   0.00  -0.04    -0.03   0.02  -0.02
  24   1    -0.12   0.08  -0.04    -0.07   0.04  -0.02    -0.06   0.04  -0.02
  25   1    -0.10  -0.11  -0.03     0.01  -0.01   0.00     0.01   0.00   0.01
  26   1    -0.03  -0.06  -0.09    -0.00   0.00  -0.00     0.03   0.03  -0.01
  27   1     0.10   0.14  -0.06    -0.00  -0.02   0.00     0.01  -0.00  -0.01
                     43                     44                     45
                        a                      a                      a 
 Frequencies --  1319.8576              1330.8892              1347.2098
 Red. masses --     4.7600                 4.8142                 4.5048
 Frc consts  --     0.0000                 0.0000                 0.0000
 IR Inten    --     2.1922                25.3693                13.2155
 Raman Activ --     0.0000                 0.0000                 0.0000
 Depolar     --     0.0000                 0.0000                 0.0000
 Atom AN      X      Y      Z        X      Y      Z        X      Y      Z
   1   6     0.00   0.02  -0.00    -0.02  -0.02  -0.01     0.03   0.02   0.00
   2   6    -0.02  -0.05  -0.00     0.08   0.10   0.03    -0.09  -0.06  -0.02
   3   6     0.04  -0.00   0.02    -0.04  -0.01  -0.02     0.00  -0.01   0.00
   4   6    -0.00  -0.01   0.01     0.03   0.01  -0.02     0.07   0.02   0.04
   5   8    -0.01   0.05  -0.03    -0.00  -0.01   0.01    -0.02   0.02  -0.02
   6   6    -0.02  -0.20   0.02    -0.30   0.02   0.05     0.02  -0.08  -0.16
   7   1    -0.00   0.17   0.01     0.26   0.01  -0.29    -0.23   0.21   0.17
   8   6     0.01   0.06   0.01     0.21  -0.10   0.03     0.39  -0.21   0.18
   9   6    -0.01   0.01  -0.04    -0.12  -0.06  -0.01    -0.03   0.12   0.04
  10   6    -0.01   0.47  -0.10     0.32  -0.02  -0.20    -0.10  -0.01   0.07
  11   6    -0.09  -0.12  -0.07    -0.01   0.01   0.08     0.02   0.00  -0.03
  12   6     0.10  -0.04   0.12    -0.04   0.01   0.08     0.02   0.00  -0.03
  13   1     0.02  -0.00   0.01    -0.03   0.01  -0.02     0.02  -0.01   0.03
  14   1    -0.01  -0.01   0.00     0.00   0.01  -0.01     0.01  -0.02   0.02
  15   1    -0.00  -0.01  -0.01    -0.00   0.01   0.00     0.02  -0.00  -0.00
  16   1    -0.06   0.04  -0.04     0.07  -0.05   0.05    -0.05   0.02  -0.03
  17   1    -0.06   0.05   0.01    -0.14   0.09  -0.03    -0.33   0.21  -0.13
  18   1     0.05  -0.03   0.02    -0.17   0.07  -0.09    -0.44   0.30  -0.18
  19   1     0.02   0.00   0.00     0.06   0.06   0.05     0.03   0.02   0.02
  20   1     0.04   0.02   0.07     0.00   0.03  -0.06    -0.14  -0.05  -0.13
  21   1     0.04  -0.70   0.13    -0.46   0.02   0.42     0.11   0.01  -0.10
  22   1    -0.03   0.07  -0.04     0.03   0.02  -0.02    -0.02  -0.01   0.02
  23   1     0.14  -0.09   0.03    -0.02  -0.00  -0.03    -0.01   0.01   0.01
  24   1     0.10   0.01   0.03    -0.05   0.08  -0.01    -0.00  -0.03  -0.00
  25   1    -0.09  -0.09  -0.04    -0.02  -0.07   0.01     0.00   0.02  -0.01
  26   1    -0.11  -0.14  -0.01     0.02   0.01  -0.05    -0.00   0.00   0.02
  27   1     0.01   0.05   0.01     0.05   0.01  -0.03    -0.03   0.01   0.02
                     46                     47                     48
                        a                      a                      a 
 Frequencies --  1355.0129              1387.4876              1406.5119
 Red. masses --     7.6500                 3.3628                 3.1943
 Frc consts  --     0.0000                 0.0000                 0.0000
 IR Inten    --    27.9464                42.4472                 1.2685
 Raman Activ --     0.0000                 0.0000                 0.0000
 Depolar     --     0.0000                 0.0000                 0.0000
 Atom AN      X      Y      Z        X      Y      Z        X      Y      Z
   1   6     0.05   0.08   0.02    -0.40   0.06  -0.18    -0.00   0.00  -0.00
   2   6    -0.30  -0.34  -0.10     0.09   0.05   0.04    -0.00  -0.01  -0.01
   3   6     0.16   0.07   0.07    -0.03  -0.01  -0.01    -0.00   0.00  -0.00
   4   6    -0.07  -0.06  -0.03     0.01  -0.01   0.01     0.01   0.01   0.00
   5   8    -0.01   0.03  -0.01    -0.00   0.01  -0.00     0.00  -0.00  -0.00
   6   6    -0.07   0.10   0.09     0.01   0.00  -0.00    -0.00  -0.02   0.00
   7   1     0.14  -0.10  -0.12    -0.01  -0.00   0.01    -0.01  -0.00   0.01
   8   6    -0.07  -0.11  -0.08    -0.00   0.01   0.01     0.00   0.02   0.01
   9   6     0.35   0.36   0.18    -0.03  -0.04  -0.02     0.00   0.03  -0.01
  10   6     0.08  -0.02  -0.04    -0.00  -0.00   0.00    -0.01   0.09  -0.01
  11   6    -0.01   0.01   0.01     0.00  -0.00  -0.00     0.10  -0.14  -0.01
  12   6    -0.01   0.01   0.01     0.00   0.00  -0.00    -0.17  -0.35   0.08
  13   1     0.11  -0.03   0.07     0.35  -0.15   0.12     0.00  -0.00   0.01
  14   1     0.02  -0.05   0.07     0.33  -0.03   0.45     0.00  -0.00   0.00
  15   1     0.06  -0.04  -0.02     0.55  -0.08  -0.03     0.01   0.00   0.00
  16   1    -0.19   0.14  -0.12     0.01  -0.01   0.01    -0.01   0.00  -0.00
  17   1    -0.09   0.02  -0.09     0.01  -0.01   0.00    -0.00   0.00  -0.03
  18   1     0.10  -0.04   0.03     0.00  -0.01   0.00    -0.01  -0.04  -0.00
  19   1    -0.17  -0.15  -0.14    -0.01   0.02   0.00     0.01  -0.05  -0.01
  20   1    -0.27  -0.20  -0.15     0.03   0.02  -0.00    -0.02  -0.03   0.04
  21   1    -0.08   0.00   0.08     0.01   0.00  -0.01     0.02  -0.10   0.01
  22   1     0.01   0.00  -0.01    -0.00   0.00   0.00    -0.09   0.18   0.05
  23   1    -0.00  -0.00  -0.01    -0.00   0.00  -0.00    -0.18   0.09   0.03
  24   1     0.00   0.01   0.00    -0.00  -0.00  -0.00    -0.09   0.15  -0.07
  25   1    -0.00  -0.03   0.00    -0.00  -0.00  -0.00     0.13   0.45   0.06
  26   1    -0.00  -0.00  -0.01    -0.00  -0.00   0.00     0.35   0.27  -0.05
  27   1     0.01  -0.01  -0.00    -0.00  -0.00   0.00     0.14   0.40  -0.24
                     49                     50                     51
                        a                      a                      a 
 Frequencies --  1425.4262              1444.3892              1456.5676
 Red. masses --     3.0292                 1.9432                 1.9125
 Frc consts  --     0.0000                 0.0000                 0.0000
 IR Inten    --     3.0480                20.0182                46.4832
 Raman Activ --     0.0000                 0.0000                 0.0000
 Depolar     --     0.0000                 0.0000                 0.0000
 Atom AN      X      Y      Z        X      Y      Z        X      Y      Z
   1   6    -0.00  -0.00  -0.00     0.01   0.01   0.07    -0.09  -0.18  -0.14
   2   6    -0.00  -0.00   0.00    -0.06   0.00  -0.01     0.00   0.05  -0.03
   3   6     0.00  -0.00   0.00     0.03  -0.03   0.02     0.06  -0.09   0.05
   4   6    -0.00   0.01  -0.01    -0.01   0.01  -0.01     0.00   0.02  -0.00
   5   8     0.00  -0.01   0.00    -0.00  -0.00   0.00    -0.01   0.00  -0.00
   6   6    -0.00  -0.00   0.02     0.00   0.01   0.01    -0.00  -0.01   0.01
   7   1     0.02  -0.00  -0.01     0.00  -0.01  -0.00     0.01   0.00  -0.00
   8   6    -0.00  -0.00  -0.02    -0.01   0.01   0.01    -0.00   0.01   0.01
   9   6    -0.00   0.00  -0.00     0.09  -0.18   0.17     0.02  -0.03   0.04
  10   6    -0.03   0.02   0.01    -0.01   0.02   0.01    -0.00   0.00   0.00
  11   6     0.28  -0.27  -0.00    -0.00  -0.02  -0.01    -0.00  -0.00  -0.00
  12   6     0.09   0.14  -0.03    -0.01  -0.01   0.01    -0.00  -0.00   0.00
  13   1    -0.00  -0.00   0.00     0.04   0.02  -0.19     0.22  -0.18   0.43
  14   1    -0.00   0.00  -0.00     0.05   0.05   0.02     0.00   0.31  -0.26
  15   1    -0.00   0.00   0.00    -0.05  -0.13  -0.07    -0.04   0.59   0.32
  16   1    -0.00   0.00  -0.00    -0.01   0.00  -0.01    -0.06   0.02  -0.04
  17   1    -0.00   0.00   0.02     0.03  -0.02  -0.07     0.01  -0.01  -0.04
  18   1     0.02   0.01   0.01    -0.02  -0.08  -0.01    -0.01  -0.04  -0.01
  19   1     0.01  -0.00   0.00    -0.38   0.51  -0.02    -0.09   0.07  -0.02
  20   1    -0.00  -0.00   0.01     0.12   0.29  -0.56     0.00   0.04  -0.11
  21   1     0.03  -0.02  -0.03     0.04  -0.06  -0.02     0.01  -0.01  -0.00
  22   1    -0.24   0.41   0.15    -0.01   0.02   0.00     0.00  -0.00  -0.00
  23   1    -0.43   0.20   0.03    -0.01   0.01   0.02     0.00   0.00   0.01
  24   1    -0.29   0.31  -0.18     0.00   0.02  -0.00     0.00   0.01   0.00
  25   1    -0.08  -0.20  -0.04     0.01   0.04   0.00     0.00   0.01  -0.00
  26   1    -0.15  -0.12   0.03     0.02   0.00  -0.04     0.00  -0.00  -0.01
  27   1    -0.08  -0.16   0.12     0.03  -0.01  -0.02     0.01  -0.01  -0.00
                     52                     53                     54
                        a                      a                      a 
 Frequencies --  1457.4116              1479.3665              1493.6958
 Red. masses --     1.5938                 1.8417                 1.5971
 Frc consts  --     0.0000                 0.0000                 0.0000
 IR Inten    --     6.0226                 1.5695                 0.6843
 Raman Activ --     0.0000                 0.0000                 0.0000
 Depolar     --     0.0000                 0.0000                 0.0000
 Atom AN      X      Y      Z        X      Y      Z        X      Y      Z
   1   6    -0.12  -0.09   0.16     0.01   0.01   0.01    -0.00   0.00   0.00
   2   6    -0.03   0.00   0.03    -0.01  -0.01   0.00    -0.00   0.00   0.00
   3   6     0.03  -0.02   0.02     0.01  -0.00   0.00    -0.00  -0.00  -0.00
   4   6    -0.00  -0.00  -0.00    -0.01  -0.00  -0.01     0.00   0.01   0.00
   5   8    -0.00   0.01  -0.00     0.00  -0.00   0.00     0.00  -0.00   0.00
   6   6    -0.00  -0.00   0.00     0.00  -0.00   0.01     0.00  -0.01   0.00
   7   1     0.00   0.00  -0.00     0.00   0.02   0.00     0.00  -0.01  -0.00
   8   6     0.01  -0.01  -0.01     0.04   0.16   0.18     0.00  -0.01  -0.02
   9   6    -0.01   0.05  -0.04    -0.02   0.04  -0.02    -0.00   0.00  -0.00
  10   6     0.00  -0.00  -0.00    -0.00  -0.00   0.02    -0.02   0.05  -0.01
  11   6    -0.00   0.00   0.00    -0.00  -0.01  -0.02     0.09   0.07  -0.07
  12   6     0.00   0.00  -0.00     0.02   0.04   0.11    -0.16   0.08   0.02
  13   1     0.44  -0.07  -0.49    -0.00   0.01  -0.02     0.00   0.00  -0.00
  14   1     0.28   0.54  -0.09     0.00  -0.01   0.01     0.00   0.00   0.00
  15   1    -0.28  -0.10  -0.05    -0.00  -0.02  -0.01     0.00  -0.00  -0.00
  16   1    -0.02   0.01  -0.02    -0.00   0.00  -0.00    -0.00   0.00  -0.00
  17   1    -0.01   0.01   0.01     0.15  -0.09  -0.53    -0.03   0.02   0.03
  18   1     0.00   0.02   0.00    -0.24  -0.49  -0.16     0.01   0.03   0.01
  19   1     0.09  -0.09   0.01     0.06  -0.06   0.01     0.02  -0.01   0.01
  20   1    -0.05  -0.08   0.10    -0.02  -0.03   0.08    -0.00  -0.01   0.01
  21   1    -0.01   0.01   0.00     0.01   0.03  -0.01     0.00  -0.03   0.00
  22   1     0.00  -0.00  -0.00     0.00  -0.03   0.00    -0.24  -0.16   0.30
  23   1     0.00  -0.00  -0.00    -0.00   0.02   0.07     0.20  -0.06   0.11
  24   1    -0.00  -0.00   0.00     0.02   0.05   0.01    -0.28  -0.08  -0.14
  25   1    -0.00  -0.01  -0.00    -0.13   0.19  -0.11     0.37   0.03   0.28
  26   1    -0.00   0.00   0.01    -0.01  -0.09  -0.36    -0.21  -0.18  -0.07
  27   1    -0.01   0.00   0.00     0.07  -0.24   0.03     0.44  -0.20  -0.27
                     55                     56                     57
                        a                      a                      a 
 Frequencies --  1501.5165              1505.7254              1513.1703
 Red. masses --     1.5887                 1.5995                 1.5909
 Frc consts  --     0.0000                 0.0000                 0.0000
 IR Inten    --     0.6793                 2.0565                 3.1090
 Raman Activ --     0.0000                 0.0000                 0.0000
 Depolar     --     0.0000                 0.0000                 0.0000
 Atom AN      X      Y      Z        X      Y      Z        X      Y      Z
   1   6     0.00   0.00   0.00    -0.00  -0.00  -0.00    -0.00  -0.00  -0.00
   2   6    -0.00  -0.01  -0.00     0.00   0.00  -0.00     0.01  -0.01   0.00
   3   6     0.00   0.00   0.00    -0.00  -0.00  -0.00    -0.01   0.01  -0.01
   4   6    -0.01  -0.02   0.00    -0.00   0.02  -0.01     0.01  -0.03   0.02
   5   8    -0.00   0.01  -0.00     0.00  -0.01   0.01    -0.01   0.02  -0.01
   6   6    -0.01   0.01   0.02    -0.01  -0.00   0.01    -0.00  -0.00  -0.01
   7   1     0.02   0.00  -0.01     0.01  -0.01  -0.01     0.01  -0.00  -0.02
   8   6     0.01   0.06   0.06    -0.01  -0.04  -0.05    -0.01  -0.06  -0.07
   9   6    -0.00   0.00   0.00     0.01  -0.01   0.00     0.00  -0.01  -0.00
  10   6     0.06   0.03  -0.02     0.04  -0.00  -0.03     0.01   0.01   0.07
  11   6     0.10   0.12   0.05     0.03   0.05  -0.16     0.04   0.05   0.11
  12   6     0.05  -0.07  -0.07     0.09  -0.05   0.08     0.01   0.00   0.14
  13   1     0.00   0.00  -0.00    -0.00  -0.00   0.00     0.00  -0.00   0.00
  14   1    -0.00   0.00  -0.00    -0.00  -0.00  -0.00    -0.00   0.01  -0.00
  15   1    -0.00  -0.00  -0.00     0.00   0.00   0.00    -0.00   0.01   0.00
  16   1     0.00   0.00   0.00    -0.00   0.00  -0.00     0.01  -0.00   0.01
  17   1     0.07  -0.04  -0.20    -0.05   0.03   0.17    -0.07   0.04   0.23
  18   1    -0.08  -0.19  -0.06     0.07   0.14   0.05     0.10   0.20   0.06
  19   1    -0.00   0.00   0.00    -0.02   0.01  -0.01    -0.01   0.01  -0.00
  20   1     0.00   0.00  -0.00     0.00   0.00  -0.01     0.00   0.01  -0.01
  21   1     0.00  -0.03   0.02    -0.01   0.02   0.01     0.03   0.00  -0.01
  22   1    -0.25   0.05   0.25    -0.20  -0.35   0.30    -0.03   0.24  -0.03
  23   1     0.21  -0.17  -0.30     0.22   0.02   0.44    -0.01  -0.11  -0.43
  24   1    -0.39  -0.38  -0.15    -0.16   0.17  -0.10    -0.13  -0.34  -0.02
  25   1    -0.08  -0.14  -0.05    -0.31   0.13  -0.24    -0.17   0.29  -0.15
  26   1     0.08   0.13   0.28     0.15   0.08  -0.22     0.06  -0.06  -0.48
  27   1    -0.24   0.23   0.10    -0.21  -0.01   0.17     0.07  -0.26   0.04
                     58                     59                     60
                        a                      a                      a 
 Frequencies --  1621.9161              1664.5494              2929.3342
 Red. masses --    12.3580                12.1748                 1.7192
 Frc consts  --     0.0000                 0.0000                 0.0000
 IR Inten    --  1279.0695                28.4469                17.6394
 Raman Activ --     0.0000                 0.0000                 0.0000
 Depolar     --     0.0000                 0.0000                 0.0000
 Atom AN      X      Y      Z        X      Y      Z        X      Y      Z
   1   6     0.02  -0.00   0.02     0.06  -0.02   0.04    -0.00   0.00   0.00
   2   6    -0.16   0.29  -0.12    -0.28   0.52  -0.22     0.00  -0.00  -0.00
   3   6     0.22  -0.30   0.17     0.24  -0.40   0.19    -0.00  -0.00  -0.00
   4   6    -0.24   0.55  -0.30     0.16  -0.34   0.19    -0.00   0.00  -0.00
   5   8     0.15  -0.38   0.20    -0.14   0.29  -0.17     0.00  -0.00   0.00
   6   6     0.00  -0.08   0.01    -0.00   0.02  -0.00    -0.07   0.00  -0.07
   7   1     0.02   0.08  -0.02    -0.00  -0.04   0.00     0.25  -0.00   0.28
   8   6    -0.00  -0.00   0.00    -0.01   0.02  -0.01    -0.00   0.00   0.01
   9   6     0.01  -0.02  -0.00     0.01  -0.06   0.00     0.01  -0.00  -0.01
  10   6    -0.01   0.00   0.01     0.01  -0.00  -0.01     0.15   0.04   0.17
  11   6    -0.00   0.00   0.01     0.00  -0.00  -0.00    -0.00  -0.01  -0.01
  12   6     0.00  -0.00  -0.00    -0.00   0.00   0.00    -0.00   0.00  -0.01
  13   1    -0.03   0.02  -0.03    -0.05   0.03  -0.03     0.00  -0.00   0.00
  14   1     0.01  -0.03   0.04     0.03  -0.03   0.05     0.00  -0.00  -0.00
  15   1     0.05  -0.04  -0.02     0.07  -0.03  -0.01     0.00   0.00  -0.00
  16   1    -0.11   0.02  -0.08    -0.06  -0.06  -0.02    -0.00  -0.00   0.00
  17   1    -0.00  -0.00   0.02     0.02  -0.01   0.02    -0.01  -0.01   0.00
  18   1     0.00   0.02   0.00     0.01  -0.00   0.00     0.02   0.00  -0.03
  19   1     0.01  -0.03  -0.01    -0.00  -0.05  -0.01    -0.02  -0.01   0.04
  20   1    -0.04  -0.05   0.03    -0.05  -0.07   0.02    -0.01   0.01   0.00
  21   1    -0.00   0.01   0.00    -0.00   0.00  -0.00    -0.57  -0.16  -0.66
  22   1     0.00   0.01  -0.01    -0.00  -0.00   0.00     0.02   0.00   0.02
  23   1     0.01  -0.02  -0.04    -0.00   0.01   0.01     0.01   0.01  -0.01
  24   1    -0.00  -0.02   0.00    -0.00   0.01  -0.00    -0.01  -0.00   0.02
  25   1    -0.00   0.01  -0.00    -0.00  -0.01  -0.00    -0.01   0.00   0.01
  26   1     0.00  -0.00  -0.01    -0.00   0.00  -0.00     0.01  -0.01   0.00
  27   1    -0.00  -0.00   0.00    -0.00   0.00   0.00     0.02   0.01   0.02
                     61                     62                     63
                        a                      a                      a 
 Frequencies --  2935.4364              2949.2475              2962.6051
 Red. masses --     1.7861                 1.8414                 1.8448
 Frc consts  --     0.0000                 0.0000                 0.0000
 IR Inten    --   127.6856                 1.3167                93.1450
 Raman Activ --     0.0000                 0.0000                 0.0000
 Depolar     --     0.0000                 0.0000                 0.0000
 Atom AN      X      Y      Z        X      Y      Z        X      Y      Z
   1   6     0.00   0.00   0.00     0.00   0.00  -0.00     0.00   0.00  -0.00
   2   6    -0.00   0.00  -0.00    -0.00  -0.00   0.01    -0.00  -0.00   0.00
   3   6    -0.00   0.00  -0.00    -0.00   0.00  -0.00    -0.00   0.00  -0.00
   4   6     0.01  -0.00   0.01    -0.00  -0.00   0.00     0.00   0.00   0.00
   5   8    -0.00   0.00  -0.00     0.00  -0.00   0.00    -0.00   0.00  -0.00
   6   6     0.16  -0.00   0.18    -0.00   0.00  -0.01     0.01  -0.00   0.02
   7   1    -0.59   0.01  -0.65     0.02  -0.00   0.02    -0.06   0.00  -0.06
   8   6     0.01  -0.00  -0.02     0.05   0.03  -0.08    -0.13  -0.06   0.21
   9   6     0.00  -0.00  -0.01    -0.14   0.00   0.21    -0.05  -0.01   0.09
  10   6     0.07   0.02   0.08     0.01   0.00   0.01     0.00   0.00   0.00
  11   6    -0.00  -0.00  -0.01    -0.00  -0.00  -0.00    -0.00   0.00  -0.00
  12   6    -0.00   0.00  -0.01    -0.00  -0.00   0.00    -0.00   0.00   0.00
  13   1    -0.00  -0.00  -0.00     0.00   0.00  -0.00    -0.00  -0.00  -0.00
  14   1    -0.00   0.00   0.00    -0.00   0.00   0.00    -0.00   0.00   0.00
  15   1     0.00   0.00  -0.00    -0.00  -0.01   0.01    -0.00  -0.00   0.01
  16   1    -0.00  -0.00   0.00    -0.00  -0.00  -0.00     0.00   0.00   0.00
  17   1     0.01   0.02  -0.00    -0.03  -0.07  -0.01     0.07   0.14   0.03
  18   1    -0.04  -0.01   0.08    -0.15  -0.03   0.31     0.38   0.08  -0.78
  19   1    -0.01  -0.01   0.02     0.34   0.21  -0.75     0.14   0.08  -0.30
  20   1    -0.00   0.00   0.00     0.18  -0.21  -0.04     0.04  -0.05  -0.00
  21   1    -0.25  -0.07  -0.28    -0.03  -0.01  -0.04    -0.01  -0.00  -0.02
  22   1     0.02   0.01   0.02     0.00  -0.00   0.00     0.00   0.00   0.00
  23   1    -0.00  -0.00  -0.00     0.00   0.00  -0.00    -0.00  -0.00   0.00
  24   1    -0.01   0.00   0.02    -0.00  -0.00   0.00    -0.00   0.00   0.00
  25   1    -0.01   0.00   0.01     0.00  -0.00  -0.01    -0.00   0.00   0.00
  26   1     0.01  -0.01   0.00    -0.00   0.00  -0.00     0.00  -0.00  -0.00
  27   1     0.01   0.01   0.02    -0.00  -0.00  -0.00    -0.00  -0.00  -0.00
                     64                     65                     66
                        a                      a                      a 
 Frequencies --  2985.4368              3008.2588              3009.0538
 Red. masses --     1.6039                 1.6558                 1.8772
 Frc consts  --     0.0000                 0.0000                 0.0000
 IR Inten    --    37.0693                55.9094                17.1415
 Raman Activ --     0.0000                 0.0000                 0.0000
 Depolar     --     0.0000                 0.0000                 0.0000
 Atom AN      X      Y      Z        X      Y      Z        X      Y      Z
   1   6    -0.01   0.01   0.00     0.02  -0.01  -0.02     0.16  -0.07  -0.22
   2   6     0.00  -0.01   0.00     0.00  -0.00  -0.00     0.01  -0.00  -0.00
   3   6    -0.00   0.00  -0.00     0.00  -0.00   0.00    -0.00   0.00  -0.00
   4   6    -0.00   0.00  -0.00    -0.00  -0.00   0.00    -0.00   0.00   0.00
   5   8     0.00  -0.00   0.00    -0.00   0.00  -0.00     0.00  -0.00   0.00
   6   6     0.00   0.00   0.00     0.01   0.01   0.01    -0.00  -0.00  -0.00
   7   1    -0.00  -0.00  -0.00    -0.02   0.00  -0.03     0.00  -0.00   0.00
   8   6     0.02   0.02  -0.01     0.11   0.21   0.04    -0.01  -0.02  -0.01
   9   6     0.14  -0.18   0.01    -0.01   0.03  -0.00     0.01  -0.01  -0.00
  10   6    -0.00  -0.00   0.00     0.00   0.00  -0.00     0.00   0.00   0.00
  11   6     0.00   0.00  -0.00    -0.00  -0.00  -0.00     0.00   0.00   0.00
  12   6     0.00  -0.00   0.00     0.01  -0.01  -0.00    -0.00   0.00   0.00
  13   1    -0.00  -0.01  -0.00     0.00   0.00  -0.00     0.03   0.02  -0.03
  14   1     0.04  -0.02  -0.03    -0.08   0.05   0.06    -0.58   0.42   0.50
  15   1    -0.00  -0.01   0.02     0.00  -0.02   0.02    -0.00  -0.20   0.31
  16   1     0.00   0.01   0.00     0.00   0.00  -0.00     0.00   0.00  -0.00
  17   1    -0.06  -0.10   0.00    -0.50  -0.79   0.03     0.06   0.09  -0.00
  18   1    -0.01   0.00   0.02     0.10   0.05  -0.16    -0.01  -0.01   0.02
  19   1     0.14   0.04  -0.26    -0.02  -0.01   0.04     0.00  -0.00  -0.01
  20   1    -0.63   0.63   0.22     0.07  -0.07  -0.02    -0.04   0.04   0.01
  21   1     0.00   0.00   0.00     0.00   0.00   0.00    -0.00  -0.00  -0.00
  22   1    -0.00  -0.00  -0.00     0.01   0.00   0.01    -0.01  -0.00  -0.00
  23   1    -0.00  -0.00   0.00    -0.00  -0.00   0.00    -0.00  -0.00   0.00
  24   1    -0.00   0.00   0.00     0.00  -0.00  -0.01     0.00   0.00  -0.00
  25   1     0.00  -0.00  -0.01    -0.01   0.00   0.01     0.00  -0.00  -0.00
  26   1    -0.01   0.01  -0.00    -0.02   0.02  -0.01     0.00  -0.00   0.00
  27   1    -0.00  -0.00  -0.00    -0.00  -0.00  -0.00    -0.00  -0.00  -0.00
                     67                     68                     69
                        a                      a                      a 
 Frequencies --  3023.5713              3027.4164              3029.6304
 Red. masses --     1.8986                 1.9224                 1.5617
 Frc consts  --     0.0000                 0.0000                 0.0000
 IR Inten    --    54.6023                43.6269                25.5387
 Raman Activ --     0.0000                 0.0000                 0.0000
 Depolar     --     0.0000                 0.0000                 0.0000
 Atom AN      X      Y      Z        X      Y      Z        X      Y      Z
   1   6     0.00  -0.00  -0.00    -0.00   0.00  -0.00    -0.05   0.16  -0.14
   2   6     0.00  -0.00  -0.00    -0.00  -0.00  -0.00    -0.01   0.01  -0.01
   3   6     0.00   0.00   0.00    -0.00  -0.00  -0.00     0.00  -0.00   0.00
   4   6    -0.00   0.00  -0.00     0.00   0.00   0.00     0.00  -0.00   0.00
   5   8    -0.00  -0.00   0.00    -0.00  -0.00   0.00    -0.00   0.00  -0.00
   6   6    -0.00  -0.00  -0.00     0.00   0.00   0.00     0.00  -0.00   0.00
   7   1     0.01   0.00   0.01    -0.01  -0.00  -0.01    -0.00  -0.00  -0.00
   8   6    -0.00  -0.00  -0.00    -0.00  -0.00   0.00     0.00   0.00   0.00
   9   6     0.00  -0.00  -0.00     0.00  -0.00   0.00    -0.00   0.01  -0.00
  10   6    -0.01  -0.00  -0.01    -0.00  -0.00   0.01    -0.00   0.00  -0.00
  11   6    -0.18  -0.12  -0.18    -0.14  -0.09   0.22     0.00   0.00  -0.01
  12   6     0.04  -0.00   0.02     0.04  -0.02  -0.04    -0.00  -0.00  -0.01
  13   1     0.00  -0.00  -0.00    -0.00   0.00  -0.00    -0.01   0.01  -0.02
  14   1    -0.00   0.00   0.00     0.00  -0.00  -0.00     0.25  -0.16  -0.24
  15   1    -0.00  -0.00   0.00    -0.00  -0.01   0.01    -0.07  -0.43   0.78
  16   1     0.00   0.00  -0.00     0.00   0.00   0.00     0.00   0.00   0.00
  17   1     0.01   0.01  -0.00     0.00   0.01   0.00    -0.01  -0.01   0.00
  18   1    -0.00  -0.00   0.00    -0.00   0.00   0.00     0.00   0.00  -0.00
  19   1    -0.00  -0.00   0.00     0.00   0.00  -0.00    -0.01  -0.00   0.02
  20   1    -0.00   0.00   0.00    -0.00   0.00   0.00     0.03  -0.03  -0.01
  21   1     0.02   0.01   0.03    -0.01  -0.00  -0.01     0.00   0.00   0.00
  22   1     0.62   0.17   0.60    -0.04  -0.02   0.02     0.01   0.00   0.00
  23   1     0.11   0.26  -0.10     0.20   0.43  -0.09    -0.01  -0.02   0.00
  24   1    -0.10  -0.01   0.14     0.33  -0.08  -0.72    -0.00   0.00   0.01
  25   1    -0.02   0.00   0.04    -0.12   0.02   0.17    -0.01   0.00   0.01
  26   1    -0.03   0.04  -0.01    -0.04   0.05  -0.02    -0.00   0.00  -0.00
  27   1    -0.07  -0.03  -0.11     0.01  -0.00  -0.00     0.01   0.01   0.02
                     70                     71                     72
                        a                      a                      a 
 Frequencies --  3031.2591              3037.8916              3040.7721
 Red. masses --     1.9231                 1.6935                 1.3219
 Frc consts  --     0.0000                 0.0000                 0.0000
 IR Inten    --    78.6897                68.7604                60.7555
 Raman Activ --     0.0000                 0.0000                 0.0000
 Depolar     --     0.0000                 0.0000                 0.0000
 Atom AN      X      Y      Z        X      Y      Z        X      Y      Z
   1   6    -0.00   0.00  -0.00     0.00  -0.00   0.00     0.00  -0.00   0.00
   2   6    -0.00   0.00  -0.00    -0.00   0.00   0.00     0.00  -0.00   0.00
   3   6    -0.00  -0.00  -0.00     0.00   0.00   0.00    -0.00   0.00  -0.00
   4   6     0.00   0.00   0.00     0.00  -0.00   0.00     0.00  -0.00   0.00
   5   8    -0.00  -0.00  -0.00     0.00   0.00  -0.00     0.00   0.00  -0.00
   6   6     0.00  -0.00   0.00    -0.00   0.00   0.00    -0.00   0.00  -0.00
   7   1    -0.01   0.00  -0.01     0.00   0.00   0.00     0.00   0.00   0.01
   8   6     0.00   0.00   0.00    -0.00  -0.00  -0.00    -0.00  -0.00  -0.00
   9   6     0.00   0.00  -0.00     0.00  -0.00   0.00     0.00  -0.00   0.00
  10   6     0.01   0.00   0.02     0.01   0.00   0.00    -0.00   0.00   0.00
  11   6    -0.00  -0.00   0.04     0.04   0.07  -0.02    -0.04   0.15   0.01
  12   6     0.02   0.07   0.27     0.23  -0.04  -0.03    -0.06   0.01   0.01
  13   1    -0.00   0.00  -0.00    -0.00  -0.00   0.00     0.00   0.01   0.00
  14   1     0.01  -0.01  -0.01     0.00  -0.00  -0.00    -0.00   0.00   0.00
  15   1    -0.00  -0.01   0.02     0.00   0.00  -0.00     0.00   0.01  -0.01
  16   1     0.00   0.00   0.00    -0.01  -0.01  -0.00    -0.00  -0.00  -0.00
  17   1    -0.00  -0.01  -0.00     0.01   0.02  -0.00     0.00   0.00  -0.00
  18   1     0.00   0.00  -0.00    -0.00  -0.00   0.01    -0.00  -0.00   0.00
  19   1    -0.00  -0.00   0.01     0.00   0.00  -0.00     0.00   0.00  -0.00
  20   1     0.00  -0.00  -0.00    -0.00   0.00   0.00    -0.00   0.00   0.00
  21   1    -0.02  -0.00  -0.03    -0.01  -0.00  -0.01    -0.01  -0.00  -0.01
  22   1    -0.06  -0.02  -0.05    -0.01   0.01  -0.02     0.27   0.10   0.26
  23   1     0.02   0.04  -0.00    -0.14  -0.28   0.08    -0.32  -0.61   0.18
  24   1     0.05  -0.01  -0.11     0.00   0.01   0.00     0.21  -0.02  -0.46
  25   1     0.33  -0.05  -0.41    -0.39   0.07   0.58     0.10  -0.02  -0.15
  26   1     0.04  -0.03   0.05    -0.15   0.19  -0.05     0.06  -0.07   0.02
  27   1    -0.46  -0.18  -0.60    -0.27  -0.13  -0.43     0.07   0.03   0.11
                     73                     74                     75
                        a                      a                      a 
 Frequencies --  3054.9747              3057.1379              3065.9908
 Red. masses --     1.5185                 1.7100                 1.8129
 Frc consts  --     0.0000                 0.0000                 0.0000
 IR Inten    --    42.2380                22.6058                90.2094
 Raman Activ --     0.0000                 0.0000                 0.0000
 Depolar     --     0.0000                 0.0000                 0.0000
 Atom AN      X      Y      Z        X      Y      Z        X      Y      Z
   1   6     0.00   0.01   0.00    -0.08  -0.23  -0.03     0.01   0.04   0.00
   2   6     0.00   0.00  -0.00    -0.00  -0.01  -0.00     0.01   0.00   0.01
   3   6     0.00   0.00   0.00     0.02   0.04   0.00     0.12   0.24   0.01
   4   6    -0.00  -0.00  -0.00     0.00   0.00  -0.00     0.00   0.01  -0.00
   5   8    -0.00   0.00  -0.00     0.00  -0.00   0.00     0.00  -0.00   0.00
   6   6     0.00   0.00   0.00     0.00  -0.00   0.00    -0.00  -0.00  -0.00
   7   1    -0.00   0.00  -0.00    -0.00   0.00  -0.00     0.00   0.00   0.00
   8   6     0.00   0.01   0.00    -0.00   0.00   0.00    -0.00  -0.00   0.00
   9   6     0.00  -0.00   0.00     0.00  -0.00  -0.00    -0.00  -0.00  -0.00
  10   6    -0.01   0.00  -0.01    -0.00   0.00  -0.00    -0.00  -0.00  -0.00
  11   6    -0.00  -0.01  -0.00     0.00  -0.00  -0.00    -0.00  -0.00   0.00
  12   6    -0.10   0.18  -0.07    -0.00   0.01  -0.00    -0.00  -0.00   0.00
  13   1    -0.01  -0.04  -0.01     0.29   0.89   0.15    -0.05  -0.14  -0.03
  14   1    -0.00   0.00   0.00     0.02  -0.05  -0.02    -0.00   0.01   0.00
  15   1     0.00   0.00   0.00    -0.01  -0.03  -0.01     0.00   0.00   0.01
  16   1    -0.00  -0.00  -0.00    -0.07  -0.13  -0.01    -0.45  -0.84  -0.06
  17   1    -0.01  -0.02   0.00    -0.00  -0.00  -0.00    -0.00  -0.00   0.00
  18   1    -0.00   0.00   0.00     0.00   0.00  -0.00     0.00   0.00  -0.00
  19   1     0.00   0.00  -0.01     0.00   0.00  -0.00     0.00   0.00  -0.00
  20   1    -0.01   0.01   0.00    -0.01   0.01   0.00    -0.00   0.00   0.00
  21   1     0.01   0.00   0.01     0.00  -0.00   0.00     0.00   0.00   0.00
  22   1     0.00   0.00   0.00    -0.00  -0.00  -0.00    -0.00  -0.00  -0.00
  23   1     0.01   0.02  -0.01     0.00   0.01  -0.00     0.00   0.01  -0.00
  24   1    -0.00  -0.00   0.01    -0.00   0.00   0.00     0.00  -0.00  -0.00
  25   1    -0.18   0.05   0.21    -0.01   0.00   0.01     0.01  -0.00  -0.01
  26   1     0.62  -0.67   0.14     0.02  -0.02   0.01    -0.01   0.01  -0.00
  27   1    -0.09  -0.01  -0.11    -0.00  -0.00  -0.00     0.00   0.00   0.00
