15
 energy: -22.628257340210 gnorm: 0.016979365475 xtb: 6.7.1 (edcfbbe)
C           -3.36888532422487       -0.00240841177349       -0.53162640191583
C           -2.72859586117183       -1.20776193518547       -0.24875806512701
C           -1.45438763504297       -1.20594461992314        0.30828470326154
C           -0.80763490852358        0.00203068512067        0.58951880932324
C           -1.45668072031083        1.20774711016398        0.30397648163581
C           -2.73093047346759        1.20514543371802       -0.25302322609751
C            0.54698808989921        0.00448606562102        1.19205740029850
Br           1.98053609211768        0.00022915103612       -0.23771242619265
H           -4.36404743318340       -0.00413960915287       -0.96482667952589
H           -3.22494877200965       -2.14986988136031       -0.45891282041960
H           -0.95466723224237       -2.14488853739217        0.52973748759324
H           -0.95876514622180        2.14842580859600        0.52209026847605
H           -3.22908948349589        2.14555003483083       -0.46650956907730
H            0.75680011719125       -0.89080622021631        1.77419825491639
H            0.75599019052454        0.90371897989609        1.76836418982659
15
 energy: -22.628854457334 gnorm: 0.005459428796 xtb: 6.7.1 (edcfbbe)
C           -3.36164342354529       -0.00239630785724       -0.52568388706211
C           -2.72447365429176       -1.20133671530705       -0.24562667321499
C           -1.45671661509778       -1.20020454591972        0.30889715029308
C           -0.81481593689814        0.00203462911755        0.59471377925327
C           -1.45898763595969        1.20200938316193        0.30457098583386
C           -2.72677662546282        1.19873866299506       -0.24991038212130
C            0.54311494132610        0.00442754206620        1.19211474034895
Br           1.95818210771513        0.00038966806772       -0.23807225731418
H           -4.35030122240873       -0.00412563348537       -0.96097633761011
H           -3.21595104722403       -2.13913604954765       -0.46036978616988
H           -0.95754835803972       -2.13552162376635        0.52276940645233
H           -0.96163018685640        2.13904173975305        0.51511458878241
H           -3.22005233244064        2.13482788112856       -0.46796748931447
H            0.75497097542232       -0.89084764435099        1.77157048070716
H            0.75431051359935        0.90361306792329        1.76571408811156
15
 energy: -22.628898649654 gnorm: 0.002581643733 xtb: 6.7.1 (edcfbbe)
C           -3.35905068877986       -0.00239963370662       -0.52510060945372
C           -2.72244487738707       -1.20004538500968       -0.24550187689422
C           -1.45628545793901       -1.19899423496098        0.30970225697741
C           -0.81621900075939        0.00206735554234        0.59673910192277
C           -1.45858552068372        1.20084516914194        0.30537775412385
C           -2.72476524890634        1.19745884388078       -0.24979655961885
C            0.54522574932707        0.00445682928877        1.19101830587079
Br           1.94567328586731        0.00028793060385       -0.24467955263120
H           -4.34666279736085       -0.00413566412290       -0.95920495498431
H           -3.21207181846610       -2.13687858875893       -0.46147729662122
H           -0.95765217353294       -2.13330461172891        0.52234482435986
H           -0.96177331922826        2.13687973303567        0.51466246622234
H           -3.21619490975991        2.13256899162613       -0.46911807958017
H            0.75161135993380       -0.88989628247671        1.77374736023858
H            0.75087691751320        0.90260360162424        1.76814526704365
15
 energy: -22.628907651890 gnorm: 0.001056410726 xtb: 6.7.1 (edcfbbe)
C           -3.35947373728463       -0.00239905962171       -0.52513225306667
C           -2.72298130084176       -1.20006113725462       -0.24532232434175
C           -1.45704337267872       -1.19899246378707        0.31070036651360
C           -0.81787862369119        0.00205627208148        0.59808144762597
C           -1.45931222233977        1.20083255038309        0.30633752220263
C           -2.72527399123721        1.19747204363442       -0.24964758057500
C            0.54682943342761        0.00439540205926        1.18912038434113
Br           1.94489724884798        0.00050486877014       -0.24121103629091
H           -4.34652310659838       -0.00412962319176       -0.96002037586534
H           -3.21159344316385       -2.13693879090901       -0.46240716433413
H           -0.95829816326398       -2.13316233174603        0.52283587219255
H           -0.96238117922932        2.13672277467082        0.51511265935607
H           -3.21567833905488        2.13262771458059       -0.47009088599650
H            0.75351653706201       -0.88991190348908        1.77207273857122
H            0.75287575988400        0.90249773779846        1.76642903664270
15
 energy: -22.628909744898 gnorm: 0.000477384997 xtb: 6.7.1 (edcfbbe)
C           -3.35951484148090       -0.00240117183170       -0.52550067901788
C           -2.72295920756263       -1.20045592169700       -0.24527943934944
C           -1.45626107702648       -1.19937822716849        0.31051052997840
C           -0.81698777360813        0.00206701183993        0.59699526909912
C           -1.45853391745650        1.20123511366212        0.30613197106503
C           -2.72524954530007        1.19786926777652       -0.24963132028032
C            0.54855031587553        0.00441653068806        1.18922656516834
Br           1.94086992393472        0.00051049246147       -0.24335626959211
H           -4.34658635397050       -0.00413470079908       -0.96125543209375
H           -3.21164607404383       -2.13773784433227       -0.46215606330299
H           -0.95786969069862       -2.13389116696406        0.52360486443088
H           -0.96194995110421        2.13747481648745        0.51583117021277
H           -3.21572574734119        2.13342424820446       -0.46989841603659
H            0.75314290509258       -0.88991385594384        1.77352560879710
H            0.75240253452813        0.90242946159543        1.76811004789700
15
 energy: -22.628910382674 gnorm: 0.000175740689 xtb: 6.7.1 (edcfbbe)
C           -3.35946238063143       -0.00239909978874       -0.52584918571522
C           -2.72305750461186       -1.20039913892160       -0.24545652645927
C           -1.45665026285621       -1.19934623115550        0.31076373035835
C           -0.81734646527983        0.00205469720964        0.59733882491605
C           -1.45890250858016        1.20118630477654        0.30636982928155
C           -2.72532996113643        1.19780925288755       -0.24981959726311
C            0.54830657609391        0.00439501216653        1.18863129324716
Br           1.94387588894145        0.00061627742801       -0.24238524187590
H           -4.34677053262214       -0.00412691885212       -0.96117677400169
H           -3.21212044118052       -2.13766717961570       -0.46179235856615
H           -0.95815350223656       -2.13390969713111        0.52362687937641
H           -0.96220063492393        2.13747029646061        0.51583277540100
H           -3.21616985794093        2.13335661813751       -0.46955294189766
H            0.75319756026098       -0.88983654375258        1.77287622209472
H            0.75246552654157        0.90231040412994        1.76745147807932
15
 energy: -22.628910460752 gnorm: 0.000108169403 xtb: 6.7.1 (edcfbbe)
C           -3.35947231374102       -0.00239770803388       -0.52558580811671
C           -2.72305546137696       -1.20033484782633       -0.24532296753777
C           -1.45659010440804       -1.19928816250232        0.31056943147312
C           -0.81724029507935        0.00205070945097        0.59706562694246
C           -1.45883247282898        1.20112256201144        0.30616220975493
C           -2.72531691429269        1.19774516313038       -0.24970095085999
C            0.54805466881947        0.00439258611285        1.18893599085148
Br           1.94336818397770        0.00067414522821       -0.24214319136000
H           -4.34661416415096       -0.00412398695652       -0.96114931586882
H           -3.21204749161548       -2.13754334857456       -0.46180899944073
H           -0.95819247600209       -2.13381049430643        0.52352780113317
H           -0.96222049675898        2.13736332982651        0.51570881849582
H           -3.21607729984538        2.13323438765208       -0.46959563336582
H            0.75334032646360       -0.88997156928438        1.77277598921526
H            0.75257781067707        0.90240128805098        1.76741940565917
