      -----------------------------------------------------------      
     |                   =====================                   |     
     |                           x T B                           |     
     |                   =====================                   |     
     |                         S. Grimme                         |     
     |          Mulliken Center for Theoretical Chemistry        |     
     |                    University of Bonn                     |     
      -----------------------------------------------------------      

   * xtb version 6.7.1 (edcfbbe) compiled by 'albert@albert-system' on 2024-07-22

   xtb is free software: you can redistribute it and/or modify it under
   the terms of the GNU Lesser General Public License as published by
   the Free Software Foundation, either version 3 of the License, or
   (at your option) any later version.
   
   xtb is distributed in the hope that it will be useful,
   but WITHOUT ANY WARRANTY; without even the implied warranty of
   MERCHANTABILITY or FITNESS FOR A PARTICULAR PURPOSE.  See the
   GNU Lesser General Public License for more details.
   
   Cite this work as:
   * C. Bannwarth, E. Caldeweyher, S. Ehlert, A. Hansen, P. Pracht,
     J. Seibert, S. Spicher, S. Grimme, WIREs Comput. Mol. Sci., 2020, 11,
     e01493. DOI: 10.1002/wcms.1493
   
   for GFN2-xTB:
   * C. Bannwarth, S. Ehlert and S. Grimme., J. Chem. Theory Comput., 2019,
     15, 1652-1671. DOI: 10.1021/acs.jctc.8b01176
   for GFN1-xTB:
   * S. Grimme, C. Bannwarth, P. Shushkov, J. Chem. Theory Comput., 2017,
     13, 1989-2009. DOI: 10.1021/acs.jctc.7b00118
   for GFN0-xTB:
   * P. Pracht, E. Caldeweyher, S. Ehlert, S. Grimme, ChemRxiv, 2019, preprint.
     DOI: 10.26434/chemrxiv.8326202.v1
   for GFN-FF:
   * S. Spicher and S. Grimme, Angew. Chem. Int. Ed., 2020, 59, 15665-15673.
     DOI: 10.1002/anie.202004239
   
   for ALPB and GBSA implicit solvation:
   * S. Ehlert, M. Stahn, S. Spicher, S. Grimme, J. Chem. Theory Comput.,
     2021, 17, 4250-4261. DOI: 10.1021/acs.jctc.1c00471
   
   for ddCOSMO and CPCM-X implicit solvation:
   * M. Stahn, S. Ehlert, S. Grimme, J. Phys. Chem. A,
     2023, XX, XXXX-XXXX. DOI: 10.1021/acs.jpca.3c04382
   
   for DFT-D4:
   * E. Caldeweyher, C. Bannwarth and S. Grimme, J. Chem. Phys., 2017,
     147, 034112. DOI: 10.1063/1.4993215
   * E. Caldeweyher, S. Ehlert, A. Hansen, H. Neugebauer, S. Spicher,
     C. Bannwarth and S. Grimme, J. Chem. Phys., 2019, 150, 154122.
     DOI: 10.1063/1.5090222
   * E. Caldeweyher, J.-M. Mewes, S. Ehlert and S. Grimme, Phys. Chem. Chem. Phys.
     2020, 22, 8499-8512. DOI: 10.1039/D0CP00502A
   
   for sTDA-xTB:
   * S. Grimme and C. Bannwarth, J. Chem. Phys., 2016, 145, 054103.
     DOI: 10.1063/1.4959605
   
   in the mass-spec context:
   * V. Asgeirsson, C. Bauer and S. Grimme, Chem. Sci., 2017, 8, 4879.
     DOI: 10.1039/c7sc00601b
   * J. Koopman and S. Grimme, ACS Omega 2019, 4, 12, 15120-15133.
     DOI: 10.1021/acsomega.9b02011
   
   for metadynamics refer to:
   * S. Grimme, J. Chem. Theory Comput., 2019, 155, 2847-2862
     DOI: 10.1021/acs.jctc.9b00143
   
   for SPH calculations refer to:
   * S. Spicher and S. Grimme, J. Chem. Theory Comput., 2021, 17, 1701-1714
     DOI: 10.1021/acs.jctc.0c01306
   
   for ONIOM refer to:
   * C. Plett, A. Katbashev, S. Ehlert, S. Grimme, M. Bursch,
     Phys. Chem. Chem. Phys., 2023, 25, 17860-17868. DOI: 10.1039/D3CP02178E
   
   for DIPRO refer to:
   * J. Kohn, N. Gildemeister, S. Grimme, D. Fazzi, A. Hansen,
     J. Chem. Phys., 2023, just accepted.
   
   for PTB refer to:
   * S. Grimme, M. Mueller, A. Hansen, J. Chem. Phys., 2023, 158, 124111.
     DOI: 10.1063/5.0137838
   
   with help from (in alphabetical order)
   P. Atkinson, C. Bannwarth, F. Bohle, G. Brandenburg, E. Caldeweyher
   M. Checinski, S. Dohm, S. Ehlert, S. Ehrlich, I. Gerasimov, C. Hölzer
   A. Katbashev, J. Kohn, J. Koopman, C. Lavigne, S. Lehtola, F. März, M. Müller,
   F. Musil, H. Neugebauer, J. Pisarek, C. Plett, P. Pracht, F. Pultar,
   J. Seibert, P. Shushkov, S. Spicher, M. Stahn, M. Steiner, T. Strunk,
   J. Stückrath, T. Rose, and J. Unsleber
   
 * started run on 2025/04/03 at 21:49:17.088     
   ID    Z sym.   atoms
    1    6 C      1-3, 5
    2    8 O      4
    3    1 H      6-13

           -------------------------------------------------
          |                Calculation Setup                |
           -------------------------------------------------

          program call               : /srv/scratch/z5358697/.xtb/bin/xtb xtb_rrho.coord --gfn2 --ohess vtight --chrg 0 --enso --norestart -I rrho-xcontrol-inp --parallel 1 --alpb water
          hostname                   : k142
          coordinate file            : xtb_rrho.coord
          omp threads                :                     1


           -------------------------------------------------
          |                 G F N 2 - x T B                 |
           -------------------------------------------------

        Reference                      10.1021/acs.jctc.8b01176
      * Hamiltonian:
        H0-scaling (s, p, d)           1.850000    2.230000    2.230000
        zeta-weighting                 0.500000
      * Dispersion:
        s8                             2.700000
        a1                             0.520000
        a2                             5.000000
        s9                             5.000000
      * Repulsion:
        kExp                           1.500000    1.000000
        rExp                           1.000000
      * Coulomb:
        alpha                          2.000000
        third order                    shell-resolved
        anisotropic                    true
        a3                             3.000000
        a5                             4.000000
        cn-shift                       1.200000
        cn-exp                         4.000000
        max-rad                        5.000000

      * Solvation model:               ALPB
        Solvent                        water
        Parameter file                 internal GFN2-xTB/ALPB
        Dielectric constant                8.0200E+01
        Reference state                gsolv [1 M gas/solution]
        Free energy shift                  1.0808E-03 Eh       6.7819E-01 kcal/mol
        Temperature                        2.9815E+02 K
        Density                            1.0000E+00 kg/L
        Solvent mass                       1.8000E+01 g/mol
        Interaction kernel             P16
        Born radius scaling (c1)           1.4744E+00
        Born radii integrator          GBOBC
        Born offset                        0.0000E+00 a0       0.0000E+00 AA
        H-bond correction              true
        Ion screening                  false
        Surface tension                    1.0000E-05 Eh       1.5569E+01 dyn/cm
        Grid points                               974 per atom

          ...................................................
          :                      SETUP                      :
          :.................................................:
          :  # basis functions                  28          :
          :  # atomic orbitals                  28          :
          :  # shells                           18          :
          :  # electrons                        30          :
          :  max. iterations                   250          :
          :  Hamiltonian                  GFN2-xTB          :
          :  restarted?                      false          :
          :  GBSA solvation                   true          :
          :  PC potential                    false          :
          :  electronic temp.          300.0000000     K    :
          :  accuracy                    1.0000000          :
          :  -> integral cutoff          0.2500000E+02      :
          :  -> integral neglect         0.1000000E-07      :
          :  -> SCF convergence          0.1000000E-05 Eh   :
          :  -> wf. convergence          0.1000000E-03 e    :
          :  Broyden damping             0.4000000          :
          :  net charge                          0          :
          :  unpaired electrons                  0          :
          ...................................................

 iter      E             dE          RMSdq      gap      omega  full diag
   1    -16.8528982 -0.168529E+02  0.401E+00   10.85       0.0  T
   2    -16.8885647 -0.356665E-01  0.204E+00   10.33       1.0  T
   3    -16.8890780 -0.513265E-03  0.779E-01   10.35       1.0  T
   4    -16.8891932 -0.115223E-03  0.110E-01   10.38       1.0  T
   5    -16.8892107 -0.174708E-04  0.598E-02   10.40       1.0  T
   6    -16.8892121 -0.137830E-05  0.944E-03   10.40       2.9  T
   7    -16.8892122 -0.172648E-06  0.230E-03   10.40      12.0  T
   8    -16.8892122 -0.454842E-08  0.110E-03   10.40      25.3  T
   9    -16.8892122 -0.162936E-08  0.147E-04   10.40     188.6  T
  10    -16.8892122  0.285425E-10  0.794E-05   10.40     349.5  T

   *** convergence criteria satisfied after 10 iterations ***

         #    Occupation            Energy/Eh            Energy/eV
      -------------------------------------------------------------
         1        2.0000           -0.6930877             -18.8599
       ...           ...                  ...                  ...
         9        2.0000           -0.5020860             -13.6625
        10        2.0000           -0.4878204             -13.2743
        11        2.0000           -0.4622314             -12.5780
        12        2.0000           -0.4553631             -12.3911
        13        2.0000           -0.4544004             -12.3649
        14        2.0000           -0.4357006             -11.8560
        15        2.0000           -0.3941954             -10.7266 (HOMO)
        16                         -0.0119392              -0.3249 (LUMO)
        17                          0.0340281               0.9260
        18                          0.0992539               2.7008
        19                          0.1016818               2.7669
        20                          0.1255998               3.4177
       ...                                ...                  ...
        28                          0.3014537               8.2030
      -------------------------------------------------------------
                  HL-Gap            0.3822561 Eh           10.4017 eV
             Fermi-level           -0.2030673 Eh           -5.5257 eV

 SCC (total)                   0 d,  0 h,  0 min,  0.019 sec
 SCC setup                      ...        0 min,  0.001 sec (  3.758%)
 Dispersion                     ...        0 min,  0.000 sec (  0.271%)
 classical contributions        ...        0 min,  0.000 sec (  0.083%)
 integral evaluation            ...        0 min,  0.001 sec (  3.975%)
 iterations                     ...        0 min,  0.015 sec ( 80.444%)
 molecular gradient             ...        0 min,  0.002 sec ( 10.799%)
 printout                       ...        0 min,  0.000 sec (  0.598%)

         :::::::::::::::::::::::::::::::::::::::::::::::::::::
         ::                     SUMMARY                     ::
         :::::::::::::::::::::::::::::::::::::::::::::::::::::
         :: total energy             -16.708328225939 Eh    ::
         :: total w/o Gsasa/hb       -16.709037889904 Eh    ::
         :: gradient norm              0.023279508206 Eh/a0 ::
         :: HOMO-LUMO gap             10.401719089778 eV    ::
         ::.................................................::
         :: SCC energy               -16.889206968907 Eh    ::
         :: -> isotropic ES            0.027525693219 Eh    ::
         :: -> anisotropic ES          0.002959896063 Eh    ::
         :: -> anisotropic XC          0.005366088378 Eh    ::
         :: -> dispersion             -0.006461808083 Eh    ::
         :: -> Gsolv                  -0.003691703739 Eh    ::
         ::    -> Gelec               -0.004401367704 Eh    ::
         ::    -> Gsasa                0.000524505648 Eh    ::
         ::    -> Ghb                 -0.000895601381 Eh    ::
         ::    -> Gshift               0.001080759698 Eh    ::
         :: repulsion energy           0.180878742968 Eh    ::
         :: add. restraining           0.000000000000 Eh    ::
         :: total charge              -0.000000000000 e     ::
         :::::::::::::::::::::::::::::::::::::::::::::::::::::

      ----------------------------------------------------------- 
     |                   =====================                   |
     |                        A N C O P T                        |
     |                   =====================                   |
     |               Approximate Normal Coordinate               |
     |                Rational Function Optimizer                |
      ----------------------------------------------------------- 
      ----------------------------------------------------------- 
     |                   =====================                   |
     |                        A N C O P T                        |
     |                   =====================                   |
     |               Approximate Normal Coordinate               |
     |                Rational Function Optimizer                |
      ----------------------------------------------------------- 

          ...................................................
          :                      SETUP                      :
          :.................................................:
          :   optimization level         verytight          :
          :   max. optcycles                   260          :
          :   ANC micro-cycles                  20          :
          :   degrees of freedom                33          :
          :.................................................:
          :   RF solver                   davidson          :
          :   write xtbopt.log                true          :
          :   linear?                        false          :
          :   energy convergence         0.1000000E-06 Eh   :
          :   grad. convergence          0.2000000E-03 Eh/α :
          :   maxmium RF displ.          1.0000000          :
          :   Hlow (freq-cutoff)         0.1000000E-01      :
          :   Hmax (freq-cutoff)         5.0000000          :
          :   S6 in model hess.         20.0000000          :
          ...................................................

generating ANC from exact Hessian ...
Using Lindh-Hessian (1995)
 Shifting diagonal of input Hessian by   0.000000000000000E+000
 Lowest  eigenvalues of input Hessian
    0.000000    0.000000    0.000000    0.000000    0.000000    0.000000
    0.011742    0.017493    0.033649    0.045189    0.049010    0.049922
    0.052452    0.056584    0.061234    0.065946    0.070018    0.084958
 Highest eigenvalues
    1.131318    1.188236    1.220935    1.248616    1.274228    1.357354
 

........................................................................
.............................. CYCLE    1 ..............................
........................................................................

 iter      E             dE          RMSdq      gap      omega  full diag
   1    -16.8892122 -0.168892E+02  0.916E-06   10.40       0.0  T
   2    -16.8892122 -0.436984E-12  0.312E-06   10.40    8882.5  T
   3    -16.8892122 -0.213163E-13  0.173E-06   10.40   16041.7  T
     SCC iter.                  ...        0 min,  0.001 sec
     gradient                   ...        0 min,  0.002 sec
 * total energy  :   -16.7083282 Eh     change       -0.4593659E-10 Eh
   gradient norm :     0.0232787 Eh/α   predicted     0.0000000E+00 (-100.00%)
   displ. norm   :     0.1296743 α      lambda       -0.1331965E-02
   maximum displ.:     0.0708127 α      in ANC's #1, #4, #9, ...

........................................................................
.............................. CYCLE    2 ..............................
........................................................................

 iter      E             dE          RMSdq      gap      omega  full diag
   1    -16.8943942 -0.168944E+02  0.147E-01   10.77       0.0  T
   2    -16.8944062 -0.120276E-04  0.901E-02   10.78       1.0  T
   3    -16.8944069 -0.693096E-06  0.143E-02   10.78       1.9  T
   4    -16.8944072 -0.259102E-06  0.360E-03   10.78       7.7  T
   5    -16.8944072 -0.406349E-07  0.103E-03   10.78      27.0  T
   6    -16.8944072 -0.140641E-08  0.493E-04   10.78      56.2  T
   7    -16.8944072 -0.105150E-09  0.584E-05   10.78     475.0  T
     SCC iter.                  ...        0 min,  0.001 sec
     gradient                   ...        0 min,  0.002 sec
 * total energy  :   -16.7091234 Eh     change       -0.7951400E-03 Eh
   gradient norm :     0.0119613 Eh/α   predicted    -0.6771831E-03 ( -14.83%)
   displ. norm   :     0.0623958 α      lambda       -0.2455346E-03
   maximum displ.:     0.0556740 α      in ANC's #1, #5, #21, ...

........................................................................
.............................. CYCLE    3 ..............................
........................................................................

 iter      E             dE          RMSdq      gap      omega  full diag
   1    -16.8963607 -0.168964E+02  0.467E-02   10.91       0.0  T
   2    -16.8963636 -0.292778E-05  0.284E-02   10.91       1.0  T
   3    -16.8963638 -0.175004E-06  0.870E-03   10.92       3.2  T
   4    -16.8963639 -0.627173E-07  0.189E-03   10.92      14.7  T
   5    -16.8963639 -0.910130E-08  0.547E-04   10.92      50.7  T
   6    -16.8963639 -0.255518E-09  0.264E-04   10.92     105.2  T
     SCC iter.                  ...        0 min,  0.001 sec
     gradient                   ...        0 min,  0.002 sec
 * total energy  :   -16.7092737 Eh     change       -0.1503120E-03 Eh
   gradient norm :     0.0040367 Eh/α   predicted    -0.1232443E-03 ( -18.01%)
   displ. norm   :     0.0509748 α      lambda       -0.5647308E-04
   maximum displ.:     0.0489580 α      in ANC's #1, #14, #9, ...

........................................................................
.............................. CYCLE    4 ..............................
........................................................................

 iter      E             dE          RMSdq      gap      omega  full diag
   1    -16.8961447 -0.168961E+02  0.287E-02   10.97       0.0  T
   2    -16.8961453 -0.643727E-06  0.169E-02   10.97       1.6  T
   3    -16.8961453 -0.217055E-07  0.424E-03   10.97       6.5  T
   4    -16.8961454 -0.232463E-07  0.888E-04   10.97      31.2  T
   5    -16.8961454 -0.183444E-08  0.190E-04   10.97     145.7  T
     SCC iter.                  ...        0 min,  0.001 sec
     gradient                   ...        0 min,  0.002 sec
 * total energy  :   -16.7093093 Eh     change       -0.3559559E-04 Eh
   gradient norm :     0.0009801 Eh/α   predicted    -0.2831136E-04 ( -20.46%)
   displ. norm   :     0.0472687 α      lambda       -0.1132951E-04
   maximum displ.:     0.0458566 α      in ANC's #1, #14, #9, ...

........................................................................
.............................. CYCLE    5 ..............................
........................................................................

 iter      E             dE          RMSdq      gap      omega  full diag
   1    -16.8953631 -0.168954E+02  0.216E-02   10.97       0.0  T
   2    -16.8953631 -0.426531E-07  0.128E-02   10.97       2.2  T
   3    -16.8953631 -0.357691E-08  0.887E-04   10.97      31.3  T
   4    -16.8953631 -0.381236E-08  0.342E-04   10.97      81.2  T
     SCC iter.                  ...        0 min,  0.001 sec
     gradient                   ...        0 min,  0.002 sec
 * total energy  :   -16.7093172 Eh     change       -0.7972195E-05 Eh
   gradient norm :     0.0011871 Eh/α   predicted    -0.5668844E-05 ( -28.89%)
   displ. norm   :     0.0097784 α      lambda       -0.2100797E-05
   maximum displ.:     0.0091964 α      in ANC's #1, #4, #9, ...

........................................................................
.............................. CYCLE    6 ..............................
........................................................................

 iter      E             dE          RMSdq      gap      omega  full diag
   1    -16.8954804 -0.168955E+02  0.684E-03   10.96       0.0  T
   2    -16.8954805 -0.161165E-07  0.407E-03   10.96       6.8  T
   3    -16.8954805 -0.456588E-09  0.604E-04   10.96      45.9  T
   4    -16.8954805 -0.112488E-08  0.156E-04   10.96     177.2  T
     SCC iter.                  ...        0 min,  0.001 sec
     gradient                   ...        0 min,  0.002 sec
 * total energy  :   -16.7093194 Eh     change       -0.2180372E-05 Eh
   gradient norm :     0.0004195 Eh/α   predicted    -0.1049000E-05 ( -51.89%)
   displ. norm   :     0.0108171 α      lambda       -0.7815524E-06
   maximum displ.:     0.0104567 α      in ANC's #1, #2, #21, ...

........................................................................
.............................. CYCLE    7 ..............................
........................................................................

 iter      E             dE          RMSdq      gap      omega  full diag
   1    -16.8956422 -0.168956E+02  0.493E-03   10.96       0.0  T
   2    -16.8956422 -0.515993E-08  0.290E-03   10.96       9.6  T
   3    -16.8956422 -0.343817E-09  0.349E-04   10.96      79.4  T
   4    -16.8956422 -0.334207E-09  0.112E-04   10.96     248.1  T
     SCC iter.                  ...        0 min,  0.001 sec
     gradient                   ...        0 min,  0.002 sec
 * total energy  :   -16.7093201 Eh     change       -0.6783711E-06 Eh
   gradient norm :     0.0001090 Eh/α   predicted    -0.3931745E-06 ( -42.04%)
   displ. norm   :     0.0051622 α      lambda       -0.1258182E-06
   maximum displ.:     0.0048703 α      in ANC's #1, #2, #4, ...

........................................................................
.............................. CYCLE    8 ..............................
........................................................................

 iter      E             dE          RMSdq      gap      omega  full diag
   1    -16.8956351 -0.168956E+02  0.244E-03   10.96       0.0  T
   2    -16.8956351 -0.427733E-09  0.146E-03   10.96      19.1  T
   3    -16.8956351 -0.893117E-10  0.807E-05   10.96     343.9  T
   4    -16.8956351 -0.105480E-10  0.413E-05   10.96     671.2  T
     SCC iter.                  ...        0 min,  0.001 sec
     gradient                   ...        0 min,  0.002 sec
 * total energy  :   -16.7093202 Eh     change       -0.1155268E-06 Eh
   gradient norm :     0.0000695 Eh/α   predicted    -0.6392306E-07 ( -44.67%)
   displ. norm   :     0.0027635 α      lambda       -0.4001195E-07
   maximum displ.:     0.0024344 α      in ANC's #1, #2, #3, ...

........................................................................
.............................. CYCLE    9 ..............................
........................................................................

 iter      E             dE          RMSdq      gap      omega  full diag
   1    -16.8956128 -0.168956E+02  0.121E-03   10.96       0.0  T
   2    -16.8956128 -0.116479E-09  0.738E-04   10.96      37.6  T
   3    -16.8956128 -0.358540E-10  0.465E-05   10.96     596.3  T
     SCC iter.                  ...        0 min,  0.001 sec
     gradient                   ...        0 min,  0.002 sec
 * total energy  :   -16.7093203 Eh     change       -0.4119972E-07 Eh
   gradient norm :     0.0000335 Eh/α   predicted    -0.2002219E-07 ( -51.40%)
   displ. norm   :     0.0029089 α      lambda       -0.2371316E-07
   maximum displ.:     0.0022070 α      in ANC's #1, #2, #3, ...

   *** GEOMETRY OPTIMIZATION CONVERGED AFTER 9 ITERATIONS ***

------------------------------------------------------------------------
 total energy gain   :        -0.0009920 Eh       -0.6225 kcal/mol
 total RMSD          :         0.0760234 a0        0.0402 Å
 total power (kW/mol):        -0.2893987 (step)  -61.2082 (real)
------------------------------------------------------------------------

 ANCopt (total)                0 d,  0 h,  0 min,  0.043 sec
 optimizer setup                ...        0 min,  0.000 sec (  0.740%)
 model hessian                  ...        0 min,  0.003 sec (  7.628%)
 ANC generation                 ...        0 min,  0.000 sec (  0.517%)
 coordinate transformation      ...        0 min,  0.000 sec (  0.099%)
 single point calculation       ...        0 min,  0.037 sec ( 85.933%)
 optimization log               ...        0 min,  0.001 sec (  1.611%)
 hessian update                 ...        0 min,  0.000 sec (  0.104%)
 rational function              ...        0 min,  0.001 sec (  2.477%)

================
 final structure:
================
$coord
       -1.96101570059938       -1.39017986774344       -0.41624248332981      C
       -1.96940140652242        1.37149851034750        0.42451243715479      C
        0.71312824656489        2.18965722990262       -0.26411003324177      C
        2.28060207298620        0.01177497838310       -0.00099098615645      O
        0.73700058672875       -2.18663585729910        0.23994877500945      C
       -2.26491649033721       -1.51718037792506       -2.44952292251265      H
       -3.36073350590516       -2.53709645847439        0.55283546901196      H
       -3.39094574334381        2.50520633855703       -0.52814180645833      H
       -2.24913463612140        1.49633420872407        2.46139862185477      H
        0.81324245008773        2.83741715761364       -2.23274157862209      H
        1.46333557243413        3.66873357340057        0.96463089241601      H
        1.49110026948420       -3.64095834032308       -1.01633197237606      H
        0.86250715716338       -2.86113568507829        2.19765629543971      H
$end
 
 Bond Distances (Angstroems)
 ---------------------------
C1-C2=1.5276         C1-C5=1.5286         C1-H6=1.0900         C1-H7=1.0863         C2-C1=1.5276         C2-C3=1.5282         
C2-H8=1.0862         C2-H9=1.0900         C3-C2=1.5282         C3-O4=1.4268         C3-H10=1.0980        C3-H11=1.0922        
O4-C3=1.4268         O4-C5=1.4272         C5-C1=1.5286         C5-O4=1.4272         C5-H12=1.0925        C5-H13=1.0977        
H6-C1=1.0900         H7-C1=1.0863         H8-C2=1.0862         H9-C2=1.0900         H10-C3=1.0980        H11-C3=1.0922        
H12-C5=1.0925        H13-C5=1.0977        
 C  H  Rav=1.0916 sigma=0.0042  Rmin=1.0862  Rmax=1.0980     8
 C  C  Rav=1.5281 sigma=0.0004  Rmin=1.5276  Rmax=1.5286     3
 O  C  Rav=1.4270 sigma=0.0002  Rmin=1.4268  Rmax=1.4272     2
 
 selected bond angles (degree)
 --------------------
C5-C1-C2=101.56                H6-C1-C2=110.25                H6-C1-C5=110.18                H7-C1-C2=113.27                
H7-C1-C5=112.06                H7-C1-H6=109.33                C3-C2-C1=101.47                H8-C2-C1=113.28                
H8-C2-C3=112.10                H9-C2-C1=110.27                H9-C2-C3=110.17                H9-C2-H8=109.35                
O4-C3-C2=106.73                H10-C3-C2=111.07               H10-C3-O4=108.46               H11-C3-C2=113.50               
H11-C3-O4=108.03               H11-C3-H10=108.88              C5-O4-C3=109.54                O4-C5-C1=106.83                
H12-C5-C1=113.40               H12-C5-O4=108.11               H13-C5-C1=111.13               H13-C5-O4=108.34               
H13-C5-H12=108.85              
 
 selected dihedral angles (degree)
 ---------------------------------
C3-C2-C1-C5= 36.16            C3-C2-C1-H6=279.37            C3-C2-C1-H7=156.51            H8-C2-C1-C5=156.50            
H8-C2-C1-H6= 39.71            H8-C2-C1-H7=276.85            H9-C2-C1-C5=279.42            H9-C2-C1-H6=162.63            
H9-C2-C1-H7= 39.77            O4-C3-C2-C1=328.86            O4-C3-C2-H8=207.69            O4-C3-C2-H9= 85.67            
H10-C3-C2-C1= 86.91           H10-C3-C2-H8=325.74           H10-C3-C2-H9=203.72           H11-C3-C2-C1=209.97           
H11-C3-C2-H8= 88.80           H11-C3-C2-H9=326.79           C5-O4-C3-C2= 12.78            C5-O4-C3-H10=253.03           
C5-O4-C3-H11=135.16           O4-C5-C1-C2=329.75            O4-C5-C1-H6= 86.59            O4-C5-C1-H7=208.56            
H12-C5-C1-C2=210.76           H12-C5-C1-H6=327.60           H12-C5-C1-H7= 89.57           H13-C5-C1-C2= 87.75           
H13-C5-C1-H6=204.59           H13-C5-C1-H7=326.56           C1-C5-O4-C3= 11.25            H12-C5-O4-C3=133.63           
H13-C5-O4-C3=251.44           
           -------------------------------------------------
          |                Final Singlepoint                |
           -------------------------------------------------

          ...................................................
          :                      SETUP                      :
          :.................................................:
          :  # basis functions                  28          :
          :  # atomic orbitals                  28          :
          :  # shells                           18          :
          :  # electrons                        30          :
          :  max. iterations                   250          :
          :  Hamiltonian                  GFN2-xTB          :
          :  restarted?                      false          :
          :  GBSA solvation                   true          :
          :  PC potential                    false          :
          :  electronic temp.          300.0000000     K    :
          :  accuracy                    1.0000000          :
          :  -> integral cutoff          0.2500000E+02      :
          :  -> integral neglect         0.1000000E-07      :
          :  -> SCF convergence          0.1000000E-05 Eh   :
          :  -> wf. convergence          0.1000000E-03 e    :
          :  Broyden damping             0.4000000          :
          :  net charge                          0          :
          :  unpaired electrons                  0          :
          ...................................................

 iter      E             dE          RMSdq      gap      omega  full diag
   1    -16.8956128 -0.168956E+02  0.259E-05   10.96       0.0  T
   2    -16.8956128 -0.152767E-12  0.160E-05   10.96    1730.1  T
   3    -16.8956128 -0.994760E-13  0.189E-06   10.96   14708.7  T

   *** convergence criteria satisfied after 3 iterations ***

         #    Occupation            Energy/Eh            Energy/eV
      -------------------------------------------------------------
         1        2.0000           -0.6983578             -19.0033
       ...           ...                  ...                  ...
         9        2.0000           -0.5021241             -13.6635
        10        2.0000           -0.4898859             -13.3305
        11        2.0000           -0.4636118             -12.6155
        12        2.0000           -0.4551495             -12.3852
        13        2.0000           -0.4534728             -12.3396
        14        2.0000           -0.4350323             -11.8378
        15        2.0000           -0.3918656             -10.6632 (HOMO)
        16                          0.0109260               0.2973 (LUMO)
        17                          0.0469562               1.2777
        18                          0.1029908               2.8025
        19                          0.1053529               2.8668
        20                          0.1291465               3.5143
       ...                                ...                  ...
        28                          0.3152817               8.5793
      -------------------------------------------------------------
                  HL-Gap            0.4027916 Eh           10.9605 eV
             Fermi-level           -0.1904698 Eh           -5.1829 eV

 SCC (total)                   0 d,  0 h,  0 min,  0.004 sec
 SCC setup                      ...        0 min,  0.001 sec ( 15.175%)
 Dispersion                     ...        0 min,  0.000 sec (  0.841%)
 classical contributions        ...        0 min,  0.000 sec (  0.320%)
 integral evaluation            ...        0 min,  0.001 sec ( 21.792%)
 iterations                     ...        0 min,  0.001 sec ( 15.647%)
 molecular gradient             ...        0 min,  0.002 sec ( 43.698%)
 printout                       ...        0 min,  0.000 sec (  2.186%)

         :::::::::::::::::::::::::::::::::::::::::::::::::::::
         ::                     SUMMARY                     ::
         :::::::::::::::::::::::::::::::::::::::::::::::::::::
         :: total energy             -16.709320261181 Eh    ::
         :: total w/o Gsasa/hb       -16.710042768680 Eh    ::
         :: gradient norm              0.000033597346 Eh/a0 ::
         :: HOMO-LUMO gap             10.960518001571 eV    ::
         ::.................................................::
         :: SCC energy               -16.895607635996 Eh    ::
         :: -> isotropic ES            0.026161700423 Eh    ::
         :: -> anisotropic ES          0.002597748695 Eh    ::
         :: -> anisotropic XC          0.004897659193 Eh    ::
         :: -> dispersion             -0.006479898286 Eh    ::
         :: -> Gsolv                  -0.003309172844 Eh    ::
         ::    -> Gelec               -0.004031680343 Eh    ::
         ::    -> Gsasa                0.000479809413 Eh    ::
         ::    -> Ghb                 -0.000838061613 Eh    ::
         ::    -> Gshift               0.001080759698 Eh    ::
         :: repulsion energy           0.186287374815 Eh    ::
         :: add. restraining           0.000000000000 Eh    ::
         :: total charge              -0.000000000000 e     ::
         :::::::::::::::::::::::::::::::::::::::::::::::::::::

           ------------------------------------------------- 
          |                Numerical Hessian                |
           ------------------------------------------------- 
step length          :   0.00500
SCC accuracy         :   0.30000
Hessian scale factor :   1.00000
frozen atoms in %    :   0.00000    0
RMS gradient         :   0.00003
estimated CPU  time      0.01 min
estimated wall time      0.01 min

writing file <hessian>.

 projected vibrational frequencies (cm⁻¹)
eigval :       -0.00    -0.00     0.00     0.00     0.00     0.00
eigval :       47.87   225.36   584.95   656.89   856.06   872.09
eigval :      926.73   931.16   978.28   987.18  1073.30  1081.88
eigval :     1132.13  1144.78  1156.55  1202.68  1213.20  1276.80
eigval :     1297.76  1306.88  1307.20  1463.58  1471.29  1483.79
eigval :     1492.43  2876.11  2878.74  2952.83  2955.67  2992.72
eigval :     3001.87  3034.64  3037.44
           -------------------------------------------------
          |                Property Printout                |
           -------------------------------------------------

    * Orbital Energies and Occupations

         #    Occupation            Energy/Eh            Energy/eV
      -------------------------------------------------------------
         1        2.0000           -0.6983578             -19.0033
       ...           ...                  ...                  ...
         3        2.0000           -0.6356435             -17.2967
         4        2.0000           -0.5856626             -15.9367
         5        2.0000           -0.5795699             -15.7709
         6        2.0000           -0.5550499             -15.1037
         7        2.0000           -0.5475543             -14.8997
         8        2.0000           -0.5131493             -13.9635
         9        2.0000           -0.5021241             -13.6635
        10        2.0000           -0.4898859             -13.3305
        11        2.0000           -0.4636118             -12.6155
        12        2.0000           -0.4551495             -12.3852
        13        2.0000           -0.4534728             -12.3396
        14        2.0000           -0.4350323             -11.8378
        15        2.0000           -0.3918656             -10.6632 (HOMO)
        16                          0.0109260               0.2973 (LUMO)
        17                          0.0469563               1.2777
        18                          0.1029908               2.8025
        19                          0.1053529               2.8668
        20                          0.1291465               3.5143
        21                          0.1394097               3.7935
        22                          0.1574522               4.2845
        23                          0.1664363               4.5290
        24                          0.2010680               5.4713
        25                          0.2217166               6.0332
        26                          0.2615588               7.1174
       ...                                ...                  ...
        28                          0.3152817               8.5793
      -------------------------------------------------------------
                  HL-Gap            0.4027916 Eh           10.9605 eV
             Fermi-level           -0.1904698 Eh           -5.1829 eV

     #   Z          covCN         q      C6AA      α(0)
     1   6 C        3.826    -0.070    21.825     6.648
     2   6 C        3.825    -0.070    21.825     6.648
     3   6 C        3.735     0.076    19.394     6.285
     4   8 O        1.698    -0.374    20.334     6.088
     5   6 C        3.735     0.076    19.398     6.286
     6   1 H        0.925     0.051     2.313     2.378
     7   1 H        0.925     0.055     2.263     2.353
     8   1 H        0.925     0.055     2.264     2.353
     9   1 H        0.925     0.051     2.312     2.378
    10   1 H        0.923     0.033     2.547     2.496
    11   1 H        0.924     0.043     2.406     2.425
    12   1 H        0.924     0.043     2.413     2.429
    13   1 H        0.924     0.033     2.539     2.492

 Mol. C6AA /au·bohr⁶  :       1220.007163
 Mol. C8AA /au·bohr⁸  :      25757.693994
 Mol. α(0) /au        :         51.258095


Wiberg/Mayer (AO) data.
largest (>0.10) Wiberg bond orders for each atom

 ---------------------------------------------------------------------------
     #   Z sym  total        # sym  WBO       # sym  WBO       # sym  WBO
 ---------------------------------------------------------------------------
     1   6 C    3.995 --     2 C    1.006     5 C    1.003     6 H    0.979
                             7 H    0.978
     2   6 C    3.995 --     1 C    1.006     3 C    1.003     9 H    0.979
                             8 H    0.978
     3   6 C    3.949 --     2 C    1.003    11 H    0.974    10 H    0.973
                             4 O    0.969
     4   8 O    2.024 --     3 C    0.969     5 C    0.968
     5   6 C    3.949 --     1 C    1.003    12 H    0.974    13 H    0.973
                             4 O    0.968
     6   1 H    0.997 --     1 C    0.979
     7   1 H    0.997 --     1 C    0.978
     8   1 H    0.997 --     2 C    0.978
     9   1 H    0.997 --     2 C    0.979
    10   1 H    0.999 --     3 C    0.973
    11   1 H    0.998 --     3 C    0.974
    12   1 H    0.998 --     5 C    0.974
    13   1 H    0.999 --     5 C    0.973
 ---------------------------------------------------------------------------

Topologies differ in total number of bonds
Writing topology from bond orders to xtbtopo.mol

molecular dipole:
                 x           y           z       tot (Debye)
 q only:       -0.880      -0.004      -0.001
   full:       -0.929      -0.005      -0.003       2.361
molecular quadrupole (traceless):
                xx          xy          yy          xz          yz          zz
 q only:       -2.466      -0.025       2.758      -0.003      -0.070      -0.292
  q+dip:       -4.033      -0.028       1.785      -0.002      -0.053       2.249
   full:       -3.638      -0.030       2.549      -0.003      -0.115       1.089

           -------------------------------------------------
          |                Geometry Summary                 |
           -------------------------------------------------

      molecular mass/u    :       72.1058745
   center of mass at/Å    :        0.0000730      -0.0003579      -0.0018886
  moments of inertia/u·Å² :        0.7053752E+02   0.7226644E+02   0.1257849E+03
rotational constants/cm⁻¹ :        0.2389882E+00   0.2332706E+00   0.1340195E+00

 * 13 selected distances

     #   Z          #   Z                                           value/Å
     1   6 C        2   6 C                                       1.5276465
     2   6 C        3   6 C                                       1.5281729
     3   6 C        4   8 O                                       1.4267562
     1   6 C        5   6 C                                       1.5286008 (max)
     4   8 O        5   6 C                                       1.4271870
     1   6 C        6   1 H                                       1.0899914
     1   6 C        7   1 H                                       1.0862631
     2   6 C        8   1 H                                       1.0862492 (min)
     2   6 C        9   1 H                                       1.0899947
     3   6 C       10   1 H                                       1.0979792
     3   6 C       11   1 H                                       1.0922457
     5   6 C       12   1 H                                       1.0924610
     5   6 C       13   1 H                                       1.0977489

 * 3 distinct bonds (by element types)

   Z      Z             #   av. dist./Å        max./Å        min./Å
   1 H    6 C           8     1.0916166     1.0979792     1.0862492
   6 C    6 C           3     1.5281401     1.5286008     1.5276465
   6 C    8 O           2     1.4269716     1.4271870     1.4267562

           -------------------------------------------------
          |               Frequency Printout                |
           -------------------------------------------------
 projected vibrational frequencies (cm⁻¹)
eigval :       -0.00    -0.00     0.00     0.00     0.00     0.00
eigval :       47.87   225.36   584.95   656.89   856.06   872.09
eigval :      926.73   931.16   978.28   987.18  1073.30  1081.88
eigval :     1132.13  1144.78  1156.55  1202.68  1213.20  1276.80
eigval :     1297.76  1306.88  1307.20  1463.58  1471.29  1483.79
eigval :     1492.43  2876.11  2878.74  2952.83  2955.67  2992.72
eigval :     3001.87  3034.64  3037.44
 reduced masses (amu)
   1: 10.94   2: 11.20   3:  9.74   4: 10.94   5: 11.42   6:  9.93   7:  9.27   8:  5.52
   9:  7.01  10: 10.94  11:  4.88  12:  6.34  13: 11.39  14:  4.57  15:  7.16  16:  8.06
  17: 11.35  18:  5.30  19:  5.96  20:  3.69  21:  5.96  22:  3.88  23:  3.53  24:  4.17
  25:  4.51  26:  3.26  27:  3.58  28:  1.96  29:  2.00  30:  1.91  31:  2.01  32:  1.81
  33:  1.82  34:  1.62  35:  1.63  36:  1.80  37:  1.78  38:  1.75  39:  1.68
 IR intensities (km·mol⁻¹)
   1:  0.30   2:  0.61   3:  1.51   4:  2.28   5:  0.37   6:  0.17   7:  9.22   8:  0.03
   9:  3.04  10:  3.77  11:  2.99  12:  5.94  13: 43.77  14: 13.69  15: 26.61  16:  7.89
  17:120.06  18:  3.40  19:  0.21  20: 19.37  21: 10.21  22:  5.07  23:  0.00  24:  0.30
  25: 10.73  26:  7.37  27:  2.19  28:  1.57  29:  0.29  30:  5.84  31:  0.19  32:107.42
  33: 78.98  34: 73.54  35: 61.45  36:  0.59  37:116.83  38: 43.08  39: 43.16
 Raman intensities (Ä⁴*amu⁻¹)
   1:  0.00   2:  0.00   3:  0.00   4:  0.00   5:  0.00   6:  0.00   7:  0.00   8:  0.00
   9:  0.00  10:  0.00  11:  0.00  12:  0.00  13:  0.00  14:  0.00  15:  0.00  16:  0.00
  17:  0.00  18:  0.00  19:  0.00  20:  0.00  21:  0.00  22:  0.00  23:  0.00  24:  0.00
  25:  0.00  26:  0.00  27:  0.00  28:  0.00  29:  0.00  30:  0.00  31:  0.00  32:  0.00
  33:  0.00  34:  0.00  35:  0.00  36:  0.00  37:  0.00  38:  0.00  39:  0.00
 output can be read by thermo (or use thermo option).
 writing <g98.out> molden fake output.
 recommended (thermochemical) frequency scaling factor: 1.0
           -------------------------------------------------
          |             Thermodynamic Functions             |
           -------------------------------------------------

Molecule has the following symmetry elements: (C2) 
It seems to be the C2 point group
c2  symmetry found (for desy threshold:  0.10E+00) used in thermo

          ...................................................
          :                      SETUP                      :
          :.................................................:
          :  # frequencies                          33      :
          :  # imaginary freq.                       0      :
          :  linear?                             false      :
          :  only rotor calc.                    false      :
          :  symmetry                               c2      :
          :  rotational number                       2      :
          :  scaling factor                  1.0000000      :
          :  rotor cutoff                    0.0000000 cm⁻¹ :
          :  imag. cutoff                 -100.0000000 cm⁻¹ :
          :.................................................:

    mode    ω/cm⁻¹     T·S(HO)/kcal·mol⁻¹    T·S(FR)/kcal·mol⁻¹   T·S(vib)
   ------------------------------------------------------------------------
       1     47.87    -1.46201 (100.00%)    -1.06830 (  0.00%)    -1.46201
       2    225.36    -0.57114 (100.00%)    -0.61026 (  0.00%)    -0.57114
   ------------------------------------------------------------------------

   temp. (K)  partition function   enthalpy   heat capacity  entropy
                                   cal/mol     cal/K/mol   cal/K/mol   J/K/mol
 298.15  VIB   9.07                 1366.106     11.233      8.964
         ROT  0.306E+05              888.752      2.981     23.506
         INT  0.277E+06             2254.859     14.214     32.470
         TR   0.592E+27             1481.254      4.968     38.726
         TOT                        3736.1127    19.1822    71.1956   297.8826

       T/K    H(0)-H(T)+PV         H(T)/Eh          T*S/Eh         G(T)/Eh
   ------------------------------------------------------------------------
    298.15    0.595387E-02    0.119636E+00    0.338273E-01    0.858090E-01
   ------------------------------------------------------------------------

         :::::::::::::::::::::::::::::::::::::::::::::::::::::
         ::                  THERMODYNAMIC                  ::
         :::::::::::::::::::::::::::::::::::::::::::::::::::::
         :: total free energy         -16.623511297857 Eh   ::
         ::.................................................::
         :: total energy              -16.709320261171 Eh   ::
         :: zero point energy           0.113682436841 Eh   ::
         :: G(RRHO) w/o ZPVE           -0.027873473527 Eh   ::
         :: G(RRHO) contrib.            0.085808963314 Eh   ::
         :::::::::::::::::::::::::::::::::::::::::::::::::::::

optimized geometry written to: xtbopt.coord


           -------------------------------------------------
          | TOTAL ENERGY              -16.709320261171 Eh   |
          | TOTAL ENTHALPY            -16.589683949830 Eh   |
          | TOTAL FREE ENERGY         -16.623511297857 Eh   |
          | GRADIENT NORM               0.000033603501 Eh/α |
          | HOMO-LUMO GAP              10.960518040887 eV   |
           -------------------------------------------------

------------------------------------------------------------------------
 * finished run on 2025/04/03 at 21:49:17.535     
------------------------------------------------------------------------
 total:
 * wall-time:     0 d,  0 h,  0 min,  0.446 sec
 *  cpu-time:     0 d,  0 h,  0 min,  0.378 sec
 * ratio c/w:     0.848 speedup
 SCF:
 * wall-time:     0 d,  0 h,  0 min,  0.019 sec
 *  cpu-time:     0 d,  0 h,  0 min,  0.008 sec
 * ratio c/w:     0.390 speedup
 ANC optimizer:
 * wall-time:     0 d,  0 h,  0 min,  0.060 sec
 *  cpu-time:     0 d,  0 h,  0 min,  0.048 sec
 * ratio c/w:     0.794 speedup
 analytical hessian:
 * wall-time:     0 d,  0 h,  0 min,  0.320 sec
 *  cpu-time:     0 d,  0 h,  0 min,  0.313 sec
 * ratio c/w:     0.979 speedup

