
                                 *****************
                                 * O   R   C   A *
                                 *****************

                                            #,                                       
                                            ###                                      
                                            ####                                     
                                            #####                                    
                                            ######                                   
                                           ########,                                 
                                     ,,################,,,,,                         
                               ,,#################################,,                 
                          ,,##########################################,,             
                       ,#########################################, ''#####,          
                    ,#############################################,,   '####,        
                  ,##################################################,,,,####,       
                ,###########''''           ''''###############################       
              ,#####''   ,,,,##########,,,,          '''####'''          '####       
            ,##' ,,,,###########################,,,                        '##       
           ' ,,###''''                  '''############,,,                           
         ,,##''                                '''############,,,,        ,,,,,,###''
      ,#''                                            '''#######################'''  
     '                                                          ''''####''''         
             ,#######,   #######,   ,#######,      ##                                
            ,#'     '#,  ##    ##  ,#'     '#,    #''#        ,####,   ,####,        
            ##       ##  ##   ,#'  ##            #'  '#       #'       #'  '#        
            ##       ##  #######   ##           ,######,      #####,   #    #        
            '#,     ,#'  ##    ##  '#,     ,#' ,#      #,     #,   #   #,  ,#        
             '#######'   ##     ##  '#######'  #'      '#     '####' # '####'        



                #########################################################
                #                        -***-                          #
                #          Department of theory and spectroscopy        #
                #                                                       #
                #                      Frank Neese                      #
                #                                                       #
                #     Directorship, Architecture, Infrastructure        #
                #                    SHARK, DRIVERS                     #
                #        Core code/Algorithms in most modules           #
                #                                                       #
                #        Max Planck Institute fuer Kohlenforschung      #
                #                Kaiser Wilhelm Platz 1                 #
                #                 D-45470 Muelheim/Ruhr                 #
                #                      Germany                          #
                #                                                       #
                #                  All rights reserved                  #
                #                        -***-                          #
                #########################################################


                         Program Version 6.0.0  -   RELEASE  -


 With contributions from (in alphabetic order):
   Daniel Aravena         : Magnetic Suceptibility
   Michael Atanasov       : Ab Initio Ligand Field Theory (pilot matlab implementation)
   Alexander A. Auer      : GIAO ZORA, VPT2 properties, NMR spectrum
   Ute Becker             : All parallelization in ORCA, NUMFREQ, NUMCALC
   Giovanni Bistoni       : ED, misc. LED, open-shell LED, HFLD
   Martin Brehm           : Molecular dynamics
   Dmytro Bykov           : pre 5.0 version of the SCF Hessian
   Marcos Casanova-Páez   : Triplet and SCS-CIS(D). UHF-(DLPNO)-IP/EA/STEOM-CCSD. UHF-CVS-IP/STEOM-CCSD
   Vijay G. Chilkuri      : MRCI spin determinant printing, contributions to CSF-ICE
   Pauline Colinet        : FMM embedding
   Dipayan Datta          : RHF DLPNO-CCSD density
   Achintya Kumar Dutta   : EOM-CC, STEOM-CC
   Nicolas Foglia         : Exact transition moments, OPA infrastructure, MCD improvements
   Dmitry Ganyushin       : Spin-Orbit,Spin-Spin,Magnetic field MRCI
   Miquel Garcia          : C-PCM and meta-GGA Hessian, CCSD/C-PCM, Gaussian charge scheme
   Tiago L. C. Gouveia    : GS-ROHF, GS-ROCIS
   Yang Guo               : DLPNO-NEVPT2, F12-NEVPT2, CIM, IAO-localization
   Andreas Hansen         : Spin unrestricted coupled pair/coupled cluster methods
   Ingolf Harden          : AUTO-CI MPn and infrastructure 
   Benjamin Helmich-Paris : MC-RPA, TRAH-(SCF,CASSCF), AVAS, COSX integrals, SCF dyn. polar.
   Lee Huntington         : MR-EOM, pCC
   Robert Izsak           : Overlap fitted RIJCOSX, COSX-SCS-MP3, EOM
   Riya Kayal             : Wick's Theorem for AUTO-CI, AUTO-CI UHF-CCSDT
   Emily Kempfer          : AUTO-CI, RHF CISDT and CCSDT
   Christian Kollmar      : KDIIS, OOCD, Brueckner-CCSD(T), CCSD density, CASPT2, CASPT2-K, improved NEVPT2
   Axel Koslowski         : Symmetry handling
   Simone Kossmann        : Meta GGA functionals, TD-DFT gradient, OOMP2, (MP2 Hessian; deprecated post 5.0)
   Lucas Lang             : DCDCAS
   Marvin Lechner         : AUTO-CI (C++ implementation), FIC-MRCC
   Spencer Leger          : CASSCF response
   Dagmar Lenk            : GEPOL surface, SMD, ORCA-2-JSON
   Dimitrios Liakos       : Extrapolation schemes; Compound Job, initial MDCI parallelization
   Dimitrios Manganas     : Further ROCIS development; embedding schemes. LFT, Crystal Embedding
   Dimitrios Pantazis     : SARC Basis sets
   Anastasios Papadopoulos: AUTO-CI, single reference methods and gradients
   Taras Petrenko         : pre 6.0 DFT Hessian and TD-DFT gradient, (ASA, deprecated), ECA, 1-Electron XAS/XES, NRVS
   Peter Pinski           : DLPNO-MP2, DLPNO-MP2 Gradient
   Christoph Reimann      : Effective Core Potentials
   Marius Retegan         : Local ZFS, SOC
   Christoph Riplinger    : Optimizer, TS searches, QM/MM, DLPNO-CCSD(T), (RO)-DLPNO pert. Triples
   Michael Roemelt        : Original ROCIS implementation
   Masaaki Saitow         : Open-shell DLPNO-CCSD energy and density
   Barbara Sandhoefer     : DKH picture change effects
   Kantharuban Sivalingam : CASSCF convergence/infrastructure, NEVPT2 and variants, FIC-MRCI
   Bernardo de Souza      : ESD, SOC TD-DFT
   Georgi Stoychev        : AutoAux, RI-MP2 NMR, DLPNO-MP2 response, X2C
   Van Anh Tran           : RI-MP2 g-tensors
   Willem Van den Heuvel  : Paramagnetic NMR
   Zikuan Wang            : NOTCH, Electric field optimization 
   Frank Wennmohs         : Technical directorship and infrastructure
   Hang Xu                : AUTO-CI-Response properties 


 We gratefully acknowledge several colleagues who have allowed us to
 interface, adapt or use parts of their codes:
   Stefan Grimme, W. Hujo, H. Kruse, P. Pracht,  : VdW corrections, initial TS optimization,
                  C. Bannwarth, S. Ehlert,         DFT functionals, gCP, sTDA/sTD-DF
                  L. Wittmann, M. Mueller
   Ed Valeev, F. Pavosevic, A. Kumar             : LibInt (2-el integral package), F12 methods
   Garnet Chan, S. Sharma, J. Yang, R. Olivares  : DMRG
   Ulf Ekstrom                                   : XCFun DFT Library
   Mihaly Kallay                                 : mrcc  (arbitrary order and MRCC methods)
   Frank Weinhold                                : gennbo (NPA and NBO analysis)
   Simon Mueller                                 : openCOSMO-RS
   Christopher J. Cramer and Donald G. Truhlar   : smd solvation model
   Lars Goerigk                                  : TD-DFT with DH, B97 family of functionals
   V. Asgeirsson, H. Jonsson                     : NEB implementation
   FAccTs GmbH                                   : IRC, NEB, NEB-TS, DLPNO-Multilevel, CI-OPT
                                                   MM, QMMM, 2- and 3-layer-ONIOM, Crystal-QMMM,
                                                   LR-CPCM, SF, NACMEs, symmetry and pop. for TD-DFT,
                                                   nearIR, NL-DFT gradient (VV10), updates on ESD,
                                                   ML-optimized integration grids, MBIS, APM,
                                                   GOAT, DOCKER, SOLVATOR, interface openCOSMO-RS
   S Lehtola, MJT Oliveira, MAL Marques          : LibXC Library
   Liviu Ungur et al                             : ANISO software


 Your calculation uses the libint2 library for the computation of 2-el integrals
 For citations please refer to: http://libint.valeyev.net

 Your ORCA version has been built with support for libXC version: 6.2.2
 For citations please refer to: https://libxc.gitlab.io

 This ORCA versions uses:
   CBLAS   interface :  Fast vector & matrix operations
   LAPACKE interface :  Fast linear algebra routines
   SCALAPACK package :  Parallel linear algebra routines
   Shared memory     :  Shared parallel matrices
   BLAS/LAPACK       :  OpenBLAS 0.3.27  USE64BITINT DYNAMIC_ARCH NO_AFFINITY SkylakeX SINGLE_THREADED
        Core in use  :  SkylakeX
   Copyright (c) 2011-2014, The OpenBLAS Project


Your calculation utilizes the geometrical counterpoise correction gCP
Please cite in your paper:
H.Kruse, S. Grimme J.Chem.Phys., 136, (2012), 154101 
   

Your calculation utilizes the atom-pairwise dispersion correction
based on EEQ partial charges (D4)


================================================================================

----- Orbital basis set information -----
Your calculation utilizes the basis: def2-SV(P)
   F. Weigend and R. Ahlrichs, Phys. Chem. Chem. Phys. 7, 3297 (2005).

----- AuxJ basis set information -----
Your calculation utilizes the auxiliary basis: def2/J
   F. Weigend, Phys. Chem. Chem. Phys. 8, 1057 (2006).

================================================================================
                                        WARNINGS
                       Please study these warnings very carefully!
================================================================================


================================================================================
                                       INPUT FILE
================================================================================
NAME = sp.inp
|  1> ! pbe def2-sv(p) def2/J RI DEFGRID1 loosescf d4 GCP(DFT/SV(P)) printgap
|  2> %output
|  3>     printlevel normal
|  4> end
|  5> * xyz 0 1
|  6> C -1.9927563592 -0.5785860257 -0.7500575902
|  7> C -1.1877207708 -0.1093739567 0.473326876
|  8> H -1.8712237464 -0.0721696741 1.3292586275
|  9> C -0.6066093115 1.3036507089 0.2607374954
| 10> H -1.3228885871 1.8849262464 -0.3300100395
| 11> C 0.7394623177 1.2899547245 -0.5018298656
| 12> H 1.179486369 2.2887008548 -0.381536138
| 13> C 1.6919045269 0.261496247 0.1260585733
| 14> H 2.5730694764 0.1623532449 -0.523686056
| 15> C 0.9943067867 -1.1120692834 0.1968060973
| 16> H 1.6049974474 -1.7998844763 0.8046832442
| 17> O -0.2146178974 -1.0610251017 0.8971502217
| 18> O 0.8658588206 -1.5949628823 -1.1091200354
| 19> O 2.0440493949 0.7190359389 1.4060934347
| 20> O 0.5846138186 1.0830140742 -1.8816595134
| 21> O -0.4776932821 1.9893049557 1.4816288668
| 22> O -2.4642462316 -1.8863593669 -0.5076715722
| 23> H -1.3728740555 -0.5541090939 -1.652757701
| 24> H -2.8254773739 0.123208806 -0.8757158161
| 25> H 0.4316772397 -2.4622023899 -1.0934341955
| 26> H 2.7214193986 0.1478809605 1.7964651093
| 27> H 0.6388808268 0.1290149718 -2.0635873677
| 28> H 0.2858213373 1.626670332 1.96218449
| 29> H -3.1008324999 -2.1262870485 -1.1952246819
| 30> *
| 31> 
| 32>                          ****END OF INPUT****
================================================================================

                       ****************************
                       * Single Point Calculation *
                       ****************************

---------------------------------
CARTESIAN COORDINATES (ANGSTROEM)
---------------------------------
  C     -1.992756   -0.578586   -0.750058
  C     -1.187721   -0.109374    0.473327
  H     -1.871224   -0.072170    1.329259
  C     -0.606609    1.303651    0.260737
  H     -1.322889    1.884926   -0.330010
  C      0.739462    1.289955   -0.501830
  H      1.179486    2.288701   -0.381536
  C      1.691905    0.261496    0.126059
  H      2.573069    0.162353   -0.523686
  C      0.994307   -1.112069    0.196806
  H      1.604997   -1.799884    0.804683
  O     -0.214618   -1.061025    0.897150
  O      0.865859   -1.594963   -1.109120
  O      2.044049    0.719036    1.406093
  O      0.584614    1.083014   -1.881660
  O     -0.477693    1.989305    1.481629
  O     -2.464246   -1.886359   -0.507672
  H     -1.372874   -0.554109   -1.652758
  H     -2.825477    0.123209   -0.875716
  H      0.431677   -2.462202   -1.093434
  H      2.721419    0.147881    1.796465
  H      0.638881    0.129015   -2.063587
  H      0.285821    1.626670    1.962184
  H     -3.100832   -2.126287   -1.195225

----------------------------
CARTESIAN COORDINATES (A.U.)
----------------------------
  NO LB      ZA    FRAG     MASS         X           Y           Z
   0 C     6.0000    0    12.011   -3.765764   -1.093369   -1.417403
   1 C     6.0000    0    12.011   -2.244467   -0.206687    0.894458
   2 H     1.0000    0     1.008   -3.536100   -0.136381    2.511935
   3 C     6.0000    0    12.011   -1.146325    2.463543    0.492722
   4 H     1.0000    0     1.008   -2.499897    3.561994   -0.623629
   5 C     6.0000    0    12.011    1.397381    2.437661   -0.948321
   6 H     1.0000    0     1.008    2.228906    4.325018   -0.720999
   7 C     6.0000    0    12.011    3.197236    0.494156    0.238216
   8 H     1.0000    0     1.008    4.862397    0.306803   -0.989623
   9 C     6.0000    0    12.011    1.878968   -2.101506    0.371910
  10 H     1.0000    0     1.008    3.033006   -3.401289    1.520631
  11 O     8.0000    0    15.999   -0.405569   -2.005047    1.695368
  12 O     8.0000    0    15.999    1.636236   -3.014043   -2.095933
  13 O     8.0000    0    15.999    3.862694    1.358781    2.657132
  14 O     8.0000    0    15.999    1.104760    2.046600   -3.555821
  15 O     8.0000    0    15.999   -0.902709    3.759242    2.799873
  16 O     8.0000    0    15.999   -4.656751   -3.564703   -0.959360
  17 H     1.0000    0     1.008   -2.594356   -1.047114   -3.123259
  18 H     1.0000    0     1.008   -5.339378    0.232831   -1.654863
  19 H     1.0000    0     1.008    0.815752   -4.652888   -2.066291
  20 H     1.0000    0     1.008    5.142737    0.279455    3.394827
  21 H     1.0000    0     1.008    1.207310    0.243803   -3.899615
  22 H     1.0000    0     1.008    0.540124    3.073961    3.707991
  23 H     1.0000    0     1.008   -5.859724   -4.018100   -2.258647

--------------------------------
INTERNAL COORDINATES (ANGSTROEM)
--------------------------------
 C      0   0   0     0.000000000000     0.00000000     0.00000000
 C      1   0   0     1.537826978702     0.00000000     0.00000000
 H      2   1   0     1.095983412066   107.76848253     0.00000000
 C      2   1   3     1.542570412807   111.53449179   241.44043708
 H      4   2   1     1.095408554440   108.30493225    34.85378290
 C      4   2   1     1.547128110723   112.80395115   275.46173546
 H      6   4   2     1.097991611722   106.65577714   193.70758391
 C      6   4   2     1.535941696000   110.11786873   311.13400976
 H      8   6   4     1.099294813231   108.41064065   171.39618673
 C      8   6   4     1.542183544714   109.55044329    53.73679766
 H     10   8   6     1.102518683911   109.29212978   189.95371322
 O     10   8   6     1.398065196224   112.43342078   303.72282067
 O     10   8   6     1.398258978846   107.83648235    69.78169385
 O      8   6   4     1.404221429876   108.05776234   292.42924167
 O      6   4   2     1.403827748468   112.94214084    76.91407585
 O      4   2   1     1.406170981620   111.19450743   150.49065721
 O      1   2   3     1.411143080432   108.72502084   296.96959599
 H      1   2   3     1.095317616342   110.64331753   175.35824809
 H      1   2   3     1.096234584320   107.06831857    57.02249945
 H     13  10   8     0.969981471116   109.55971662   179.79218720
 H     14   8   6     0.968213910039   110.53412269   186.32384881
 H     15   6   4     0.972705988328   108.79955292   268.43610613
 H     16   4   2     0.972312784721   108.61769700    74.95495466
 H     17   1   2     0.967231434582   109.12849555   169.75877983

---------------------------
INTERNAL COORDINATES (A.U.)
---------------------------
 C      0   0   0     0.000000000000     0.00000000     0.00000000
 C      1   0   0     2.906071831103     0.00000000     0.00000000
 H      2   1   0     2.071108496125   107.76848253     0.00000000
 C      2   1   3     2.915035622495   111.53449179   241.44043708
 H      4   2   1     2.070022172646   108.30493225    34.85378290
 C      4   2   1     2.923648423357   112.80395115   275.46173546
 H      6   4   2     2.074903443497   106.65577714   193.70758391
 C      6   4   2     2.902509163111   110.11786873   311.13400976
 H      8   6   4     2.077366137447   108.41064065   171.39618673
 C      8   6   4     2.914304547750   109.55044329    53.73679766
 H     10   8   6     2.083458370124   109.29212978   189.95371322
 O     10   8   6     2.641960338231   112.43342078   303.72282067
 O     10   8   6     2.642326534315   107.83648235    69.78169385
 O      8   6   4     2.653593933848   108.05776234   292.42924167
 O      6   4   2     2.652849983803   112.94214084    76.91407585
 O      4   2   1     2.657278052729   111.19450743   150.49065721
 O      1   2   3     2.666673957794   108.72502084   296.96959599
 H      1   2   3     2.069850324546   110.64331753   175.35824809
 H      1   2   3     2.071583142899   107.06831857    57.02249945
 H     13  10   8     1.832999335387   109.55971662   179.79218720
 H     14   8   6     1.829659129027   110.53412269   186.32384881
 H     15   6   4     1.838147926765   108.79955292   268.43610613
 H     16   4   2     1.837404879634   108.61769700    74.95495466
 H     17   1   2     1.827802519480   109.12849555   169.75877983

---------------------
BASIS SET INFORMATION
---------------------
There are 3 groups of distinct atoms

 Group   1 Type C   : 7s4p1d contracted to 3s2p1d pattern {511/31/1}
 Group   2 Type H   : 4s contracted to 2s pattern {31}
 Group   3 Type O   : 7s4p1d contracted to 3s2p1d pattern {511/31/1}

Atom   0C    basis set group =>   1
Atom   1C    basis set group =>   1
Atom   2H    basis set group =>   2
Atom   3C    basis set group =>   1
Atom   4H    basis set group =>   2
Atom   5C    basis set group =>   1
Atom   6H    basis set group =>   2
Atom   7C    basis set group =>   1
Atom   8H    basis set group =>   2
Atom   9C    basis set group =>   1
Atom  10H    basis set group =>   2
Atom  11O    basis set group =>   3
Atom  12O    basis set group =>   3
Atom  13O    basis set group =>   3
Atom  14O    basis set group =>   3
Atom  15O    basis set group =>   3
Atom  16O    basis set group =>   3
Atom  17H    basis set group =>   2
Atom  18H    basis set group =>   2
Atom  19H    basis set group =>   2
Atom  20H    basis set group =>   2
Atom  21H    basis set group =>   2
Atom  22H    basis set group =>   2
Atom  23H    basis set group =>   2
---------------------------------
AUXILIARY/J BASIS SET INFORMATION
---------------------------------
There are 3 groups of distinct atoms

 Group   1 Type C   : 12s5p4d2f1g contracted to 6s4p3d1f1g pattern {711111/2111/211/2/1}
 Group   2 Type H   : 5s2p1d contracted to 3s1p1d pattern {311/2/1}
 Group   3 Type O   : 12s5p4d2f1g contracted to 6s4p3d1f1g pattern {711111/2111/211/2/1}

Atom   0C    basis set group =>   1
Atom   1C    basis set group =>   1
Atom   2H    basis set group =>   2
Atom   3C    basis set group =>   1
Atom   4H    basis set group =>   2
Atom   5C    basis set group =>   1
Atom   6H    basis set group =>   2
Atom   7C    basis set group =>   1
Atom   8H    basis set group =>   2
Atom   9C    basis set group =>   1
Atom  10H    basis set group =>   2
Atom  11O    basis set group =>   3
Atom  12O    basis set group =>   3
Atom  13O    basis set group =>   3
Atom  14O    basis set group =>   3
Atom  15O    basis set group =>   3
Atom  16O    basis set group =>   3
Atom  17H    basis set group =>   2
Atom  18H    basis set group =>   2
Atom  19H    basis set group =>   2
Atom  20H    basis set group =>   2
Atom  21H    basis set group =>   2
Atom  22H    basis set group =>   2
Atom  23H    basis set group =>   2
------------------------------------------------------------------------------
                             ORCA STARTUP CALCULATIONS
                           -- RI-GTO INTEGRALS CHOSEN --
------------------------------------------------------------------------------
------------------------------------------------------------------------------
                   ___                                                        
                  /   \      - P O W E R E D   B Y -                         
                 /     \                                                     
                 |  |  |   _    _      __       _____    __    __             
                 |  |  |  | |  | |    /  \     |  _  \  |  |  /  |          
                  \  \/   | |  | |   /    \    | | | |  |  | /  /          
                 / \  \   | |__| |  /  /\  \   | |_| |  |  |/  /          
                |  |  |   |  __  | /  /__\  \  |    /   |      \           
                |  |  |   | |  | | |   __   |  |    \   |  |\   \          
                \     /   | |  | | |  |  |  |  | |\  \  |  | \   \       
                 \___/    |_|  |_| |__|  |__|  |_| \__\ |__|  \__/        
                                                                              
                      - O R C A' S   B I G   F R I E N D -                    
                                      &                                       
                       - I N T E G R A L  F E E D E R -                       
                                                                              
 v1 FN, 2020, v2 2021, v3 2022-2024                                           
------------------------------------------------------------------------------


----------------------
SHARK INTEGRAL PACKAGE
----------------------

Number of atoms                             ...     24
Number of basis functions                   ...    192
Number of shells                            ...     96
Maximum angular momentum                    ...      2
Integral batch strategy                     ... SHARK/LIBINT Hybrid
RI-J (if used) integral strategy            ... SPLIT-RIJ (Revised 2003 algorithm where possible)
Printlevel                                  ...      1
Contraction scheme used                     ... SEGMENTED contraction
Prescreening option                         ... SCHWARTZ
   Thresh                                   ... 1.000e-09
   Tcut                                     ... 1.000e-10
   Tpresel                                  ... 1.000e-10 
Coulomb Range Separation                    ... NOT USED
Exchange Range Separation                   ... NOT USED
Multipole approximations                    ... NOT USED
Finite Nucleus Model                        ... NOT USED
CABS basis                                  ... NOT available
Auxiliary Coulomb fitting basis             ... AVAILABLE
   # of basis functions in Aux-J            ...    720
   # of shells in Aux-J                     ...    240
   Maximum angular momentum in Aux-J        ...      4
Auxiliary J/K fitting basis                 ... NOT available
Auxiliary Correlation fitting basis         ... NOT available
Auxiliary 'external' fitting basis          ... NOT available

Checking pre-screening integrals            ... done (  0.0 sec) Dimension = 96
Check shell pair data                       ... done (  0.0 sec)
Shell pair information
Shell pair cut-off parameter TPreSel        ...   1.0e-10
Total number of shell pairs                 ...      4656
Shell pairs after pre-screening             ...      4304
Total number of primitive shell pairs       ...     18720
Primitive shell pairs kept                  ...     11639
          la=0 lb=0:   1668 shell pairs
          la=1 lb=0:   1361 shell pairs
          la=1 lb=1:    293 shell pairs
          la=2 lb=0:    637 shell pairs
          la=2 lb=1:    274 shell pairs
          la=2 lb=2:     71 shell pairs

Calculating one electron integrals          ... done (  0.0 sec)
Calculating RI/J V-Matrix + Cholesky decomp.... done (  0.1 sec)
Calculating Nuclear repulsion               ... done (  0.0 sec) ENN=    861.854736734900 Eh

Diagonalization of the overlap matrix:
Smallest eigenvalue                        ... 7.803e-04
Time for diagonalization                   ...    0.003 sec
Threshold for overlap eigenvalues          ... 1.000e-07
Number of eigenvalues below threshold      ... 0
Time for construction of square roots      ...    0.013 sec
Total time needed                          ...    0.052 sec

-------------------
DFT GRID GENERATION
-------------------

General Integration Accuracy     IntAcc      ... 4.159
Radial Grid Type                 RadialGrid  ... OptM3 with GC (2021)
Angular Grid (max. ang.)         AngularGrid ... 3 (Lebedev-194)
Angular grid pruning method      GridPruning ... 4 (adaptive)
Weight generation scheme         WeightScheme... mBecke (2022)
Basis function cutoff            BFCut       ... 1.0000e-10
Integration weight cutoff        WCut        ... 1.0000e-14
Partially contracted basis set               ... off
Rotationally invariant grid construction     ... off
Angular grids for H and He will be reduced by one unit

Total number of grid points                  ...    55601
Total number of batches                      ...      882
Average number of points per batch           ...       63
Average number of grid points per atom       ...     2317
Initializing property integral containers    ... done (  0.0 sec)

SHARK setup successfully completed in   0.9 seconds

Maximum memory used throughout the entire STARTUP-calculation: 28.3 MB
-------------------------------------------------------------------------------
                                 ORCA GUESS
                   Start orbitals & Density for SCF / CASSCF
-------------------------------------------------------------------------------

------------
SCF SETTINGS
------------
Hamiltonian:
 Density Functional     Method          .... DFT(GTOs)
 Exchange Functional    Exchange        .... PBE
   PBE kappa parameter   XKappa         ....  0.804000
   PBE mue parameter    XMuePBE         ....  0.219520
 Correlation Functional Correlation     .... PBE
   PBE beta parameter  CBetaPBE         ....  0.066725
 LDA part of GGA corr.  LDAOpt          .... PW91-LDA
 Gradients option       PostSCFGGA      .... off
   NL short-range parameter             ....  6.400000
 RI-approximation to the Coulomb term is turned on
   Number of AuxJ basis functions       .... 720


General Settings:
 Integral files         IntName         .... sp
 Hartree-Fock type      HFTyp           .... RHF
 Total Charge           Charge          ....    0
 Multiplicity           Mult            ....    1
 Number of Electrons    NEL             ....   96
 Basis Dimension        Dim             ....  192
 Nuclear Repulsion      ENuc            ....    861.8547367349 Eh

Convergence Acceleration:
 AO-DIIS                CNVDIIS         .... on
   Start iteration      DIISMaxIt       ....    12
   Startup error        DIISStart       ....  0.200000
   # of expansion vecs  DIISMaxEq       ....     5
   Bias factor          DIISBfac        ....   1.050
   Max. coefficient     DIISMaxC        ....  10.000
 MO-DIIS                CNVKDIIS        .... off
 Trust-Rad. Augm. Hess. CNVTRAH         .... auto
   Auto Start mean grad. ratio tolernc. ....  1.125000
   Auto Start start iteration           ....    50
   Auto Start num. interpolation iter.  ....    10
   Max. Number of Micro iterations      ....    24
   Max. Number of Macro iterations      .... Maxiter - #DIIS iter
   Number of Davidson start vectors     ....     2
   Converg. threshold    (grad. norm)   ....   1.000e-04
   Grad. Scal. Fac. for Micro threshold ....   0.100
   Minimum threshold for Micro iter.    ....   1.000e-02
   NR start threshold (gradient norm)   ....   1.000e-04
   Initial trust radius                 ....   0.400
   Minimum AH scaling param. (alpha)    ....   1.000
   Maximum AH scaling param. (alpha)    .... 1000.000
   Quad. conv. algorithm                .... NR
   White noise on init. David. guess    .... on
   Maximum white noise                  ....   0.010
   Pseudo random numbers                .... off
   Inactive MOs                         .... canonical
   Orbital update algorithm             .... Taylor
   Preconditioner                       .... Diag
   Full preconditioner red. dimension   ....   250
 SOSCF                  CNVSOSCF        .... on
   Start iteration      SOSCFMaxIt      ....   150
   Startup grad/error   SOSCFStart      ....  0.003300
   Hessian update       SOSCFHessUp     .... L-BFGS
 Level Shifting         CNVShift        .... on
   Level shift para.    LevelShift      ....    0.2500
   Turn off err/grad.   ShiftErr        ....    0.0010
 Zerner damping         CNVZerner       .... off
 Static damping         CNVDamp         .... on
   Fraction old density DampFac         ....    0.7000
   Max. Damping (<1)    DampMax         ....    0.9800
   Min. Damping (>=0)   DampMin         ....    0.0000
   Turn off err/grad.   DampErr         ....    0.1000

SCF Procedure:
 Maximum # iterations   MaxIter         ....   125
 SCF integral mode      SCFMode         .... Direct
   Integral package                     .... SHARK and LIBINT hybrid scheme
 Reset frequency        DirectResetFreq ....    20
 Integral Threshold     Thresh          ....  1.000e-09 Eh
 Primitive CutOff       TCut            ....  1.000e-10 Eh

Convergence Tolerance:
 Convergence Check Mode ConvCheckMode   .... Total+1el-Energy
 Convergence forced     ConvForced      .... 0
 Energy Change          TolE            ....  1.000e-05 Eh
 1-El. energy change                    ....  1.000e-02 Eh
 Orbital Gradient       TolG            ....  1.000e-04
 Orbital Rotation angle TolX            ....  1.000e-04
 DIIS Error             TolErr          ....  5.000e-04

------------------------------
INITIAL GUESS: MODEL POTENTIAL
------------------------------
Loading Hartree-Fock densities                     ... done
Calculating cut-offs                               ... done
Initializing the effective Hamiltonian             ... done
Setting up the integral package (SHARK)            ... done
Starting the Coulomb interaction                   ... done (   0.2 sec)
Making the grid                                    ... done (   0.3 sec)
Mapping shells                                     ... done
Starting the XC term evaluation                    ... done (   0.3 sec)
  promolecular density results
     # of electrons  =     95.999979057
     EX              =    -83.237007352
     EC              =     -3.274162155
     EX+EC           =    -86.511169507
Transforming the Hamiltonian                       ... done (   0.0 sec)
Diagonalizing the Hamiltonian                      ... done (   0.0 sec)
Back transforming the eigenvectors                 ... done (   0.0 sec)
Now organizing SCF variables                       ... done
                      ------------------
                      INITIAL GUESS DONE (   0.8 sec)
                      ------------------
             **** ENERGY FILE WAS UPDATED (sp.en.tmp) ****
Finished Guess after   1.0 sec
Maximum memory used throughout the entire GUESS-calculation: 22.1 MB

-------------------------------------------------------------------------------------------
                                      ORCA LEAN-SCF
                              memory conserving SCF solver
-------------------------------------------------------------------------------------------

----------------------------------------D-I-I-S--------------------------------------------
Iteration    Energy (Eh)           Delta-E    RMSDP     MaxDP     DIISErr   Damp  Time(sec)
-------------------------------------------------------------------------------------------
               ***  Starting incremental Fock matrix formation  ***
    1    -685.5299910790466811     0.00e+00  4.58e-03  1.33e-01  2.26e-01  0.700   1.3
    2    -685.6777516401688217    -1.48e-01  2.94e-03  9.06e-02  8.33e-02  0.700   1.2
                               ***Turning on AO-DIIS***
    3    -685.7247084990307258    -4.70e-02  1.06e-03  2.38e-02  1.82e-02  0.700   1.2
    4    -685.7558964719761434    -3.12e-02  1.42e-03  2.07e-02  1.01e-02  0.000   1.1
    5    -685.8278965052558078    -7.20e-02  4.39e-04  1.35e-02  4.16e-03  0.000   1.1
                              *** Initializing SOSCF ***
---------------------------------------S-O-S-C-F--------------------------------------
Iteration    Energy (Eh)           Delta-E    RMSDP     MaxDP     MaxGrad    Time(sec)
--------------------------------------------------------------------------------------
    6    -685.8282088940924268    -3.12e-04  1.36e-04  3.24e-03  1.63e-03     1.1
               *** Restarting incremental Fock matrix formation ***
    7    -685.8282387423222417    -2.98e-05  9.59e-05  2.25e-03  1.92e-04     1.2
    8    -685.8282361181608167     2.62e-06  3.95e-05  9.55e-04  2.79e-04     1.0
                 **** Energy Check signals convergence ****

               *****************************************************
               *                     SUCCESS                       *
               *           SCF CONVERGED AFTER   8 CYCLES          *
               *****************************************************

             **** ENERGY FILE WAS UPDATED (sp.en.tmp) ****

----------------
TOTAL SCF ENERGY
----------------

Total Energy       :       -685.82823611816082 Eh          -18662.33508 eV

Components:
Nuclear Repulsion  :        861.85473673489980 Eh           23452.25968 eV
Electronic Energy  :      -1547.68297285306062 Eh          -42114.59476 eV
One Electron Energy:      -2652.95928981365068 Eh          -72190.69238 eV
Two Electron Energy:       1105.27631696059007 Eh           30076.09762 eV

Virial components:
Potential Energy   :      -1366.86799759767064 Eh          -37194.36914 eV
Kinetic Energy     :        681.03976147950993 Eh           18532.03406 eV
Virial Ratio       :          2.00703112345195

DFT components:
N(Alpha)           :       47.999905455073 electrons
N(Beta)            :       47.999905455073 electrons
N(Total)           :       95.999810910146 electrons
E(X)               :      -84.597569983666 Eh       
E(C)               :       -3.284957184270 Eh       
E(XC)              :      -87.882527167936 Eh       

---------------
SCF CONVERGENCE
---------------

  Last Energy change         ...   -2.6242e-06  Tolerance :   1.0000e-05
  Last MAX-Density change    ...    9.5466e-04  Tolerance :   1.0000e-03
  Last RMS-Density change    ...    3.9505e-05  Tolerance :   1.0000e-04
  Last DIIS Error            ...    1.6325e-03  Tolerance :   5.0000e-04
  Last Orbital Gradient      ...    2.7938e-04  Tolerance :   1.0000e-04
  Last Orbital Rotation      ...    1.9552e-04  Tolerance :   1.0000e-04


----------------
ORBITAL ENERGIES
----------------

  NO   OCC          E(Eh)            E(eV) 
   0   2.0000     -18.787585      -511.2362 
   1   2.0000     -18.780265      -511.0370 
   2   2.0000     -18.765298      -510.6297 
   3   2.0000     -18.749255      -510.1932 
   4   2.0000     -18.744025      -510.0508 
   5   2.0000     -18.729377      -509.6522 
   6   2.0000      -9.996948      -272.0308 
   7   2.0000      -9.954172      -270.8668 
   8   2.0000      -9.938892      -270.4510 
   9   2.0000      -9.936300      -270.3805 
  10   2.0000      -9.931181      -270.2412 
  11   2.0000      -9.930583      -270.2249 
  12   2.0000      -0.992047       -26.9950 
  13   2.0000      -0.954243       -25.9663 
  14   2.0000      -0.929890       -25.3036 
  15   2.0000      -0.923708       -25.1354 
  16   2.0000      -0.918000       -24.9801 
  17   2.0000      -0.904547       -24.6140 
  18   2.0000      -0.698838       -19.0164 
  19   2.0000      -0.693851       -18.8807 
  20   2.0000      -0.620337       -16.8802 
  21   2.0000      -0.591732       -16.1019 
  22   2.0000      -0.569608       -15.4998 
  23   2.0000      -0.530829       -14.4446 
  24   2.0000      -0.501806       -13.6548 
  25   2.0000      -0.483605       -13.1596 
  26   2.0000      -0.476518       -12.9667 
  27   2.0000      -0.461677       -12.5629 
  28   2.0000      -0.438115       -11.9217 
  29   2.0000      -0.430589       -11.7169 
  30   2.0000      -0.421413       -11.4672 
  31   2.0000      -0.400886       -10.9087 
  32   2.0000      -0.386873       -10.5273 
  33   2.0000      -0.372273       -10.1301 
  34   2.0000      -0.371229       -10.1017 
  35   2.0000      -0.346300        -9.4233 
  36   2.0000      -0.339778        -9.2458 
  37   2.0000      -0.323440        -8.8013 
  38   2.0000      -0.304161        -8.2767 
  39   2.0000      -0.288606        -7.8534 
  40   2.0000      -0.285180        -7.7601 
  41   2.0000      -0.264368        -7.1938 
  42   2.0000      -0.253911        -6.9093 
  43   2.0000      -0.242531        -6.5996 
  44   2.0000      -0.236755        -6.4424 
  45   2.0000      -0.226393        -6.1605 
  46   2.0000      -0.212934        -5.7942 
  47   2.0000      -0.192738        -5.2447 
  48   0.0000       0.003494         0.0951 
  49   0.0000       0.011117         0.3025 
  50   0.0000       0.029219         0.7951 
  51   0.0000       0.056952         1.5497 
  52   0.0000       0.070914         1.9297 
  53   0.0000       0.076546         2.0829 
  54   0.0000       0.084443         2.2978 
  55   0.0000       0.095099         2.5878 
  56   0.0000       0.102188         2.7807 
  57   0.0000       0.109215         2.9719 
  58   0.0000       0.118575         3.2266 
*Only the first 10 virtual orbitals were printed.

                    ********************************
                    * MULLIKEN POPULATION ANALYSIS *
                    ********************************

-----------------------
MULLIKEN ATOMIC CHARGES
-----------------------
   0 C :   -0.000509
   1 C :    0.060256
   2 H :    0.078352
   3 C :    0.073980
   4 H :    0.072823
   5 C :    0.046905
   6 H :    0.084456
   7 C :   -0.006018
   8 H :    0.084489
   9 C :    0.194879
  10 H :    0.053568
  11 O :   -0.304277
  12 O :   -0.415061
  13 O :   -0.416659
  14 O :   -0.422389
  15 O :   -0.434122
  16 O :   -0.433370
  17 H :    0.055379
  18 H :    0.077754
  19 H :    0.319014
  20 H :    0.311298
  21 H :    0.316315
  22 H :    0.302931
  23 H :    0.300008
Sum of atomic charges:    0.0000000

--------------------------------
MULLIKEN REDUCED ORBITAL CHARGES
--------------------------------
  0 C s       :     3.031339  s :     3.031339
      pz      :     1.091935  p :     2.906767
      px      :     1.016416
      py      :     0.798416
      dz2     :     0.011457  d :     0.062402
      dxz     :     0.010078
      dyz     :     0.010124
      dx2y2   :     0.012756
      dxy     :     0.017986

  1 C s       :     3.050962  s :     3.050962
      pz      :     1.042929  p :     2.824113
      px      :     0.898060
      py      :     0.883124
      dz2     :     0.010043  d :     0.064670
      dxz     :     0.016972
      dyz     :     0.008597
      dx2y2   :     0.013693
      dxy     :     0.015365

  2 H s       :     0.921648  s :     0.921648

  3 C s       :     3.043979  s :     3.043979
      pz      :     0.820247  p :     2.813937
      px      :     1.038024
      py      :     0.955666
      dz2     :     0.015372  d :     0.068104
      dxz     :     0.015677
      dyz     :     0.016942
      dx2y2   :     0.009226
      dxy     :     0.010886

  4 H s       :     0.927177  s :     0.927177

  5 C s       :     3.065365  s :     3.065365
      pz      :     0.751526  p :     2.819666
      px      :     1.021160
      py      :     1.046981
      dz2     :     0.020424  d :     0.068064
      dxz     :     0.018729
      dyz     :     0.011724
      dx2y2   :     0.007898
      dxy     :     0.009290

  6 H s       :     0.915544  s :     0.915544

  7 C s       :     3.076565  s :     3.076565
      pz      :     0.795837  p :     2.862685
      px      :     1.032840
      py      :     1.034008
      dz2     :     0.017324  d :     0.066769
      dxz     :     0.016865
      dyz     :     0.013115
      dx2y2   :     0.009792
      dxy     :     0.009672

  8 H s       :     0.915511  s :     0.915511

  9 C s       :     2.985706  s :     2.985706
      pz      :     0.793436  p :     2.718560
      px      :     0.875524
      py      :     1.049600
      dz2     :     0.024391  d :     0.100855
      dxz     :     0.027448
      dyz     :     0.018479
      dx2y2   :     0.013708
      dxy     :     0.016829

 10 H s       :     0.946432  s :     0.946432

 11 O s       :     3.749693  s :     3.749693
      pz      :     1.656426  p :     4.539167
      px      :     1.269781
      py      :     1.612960
      dz2     :     0.002065  d :     0.015417
      dxz     :     0.004557
      dyz     :     0.002448
      dx2y2   :     0.002911
      dxy     :     0.003435

 12 O s       :     3.772817  s :     3.772817
      pz      :     1.445841  p :     4.627705
      px      :     1.770758
      py      :     1.411106
      dz2     :     0.005775  d :     0.014539
      dxz     :     0.001778
      dyz     :     0.001884
      dx2y2   :     0.001908
      dxy     :     0.003195

 13 O s       :     3.784152  s :     3.784152
      pz      :     1.364551  p :     4.617515
      px      :     1.602596
      py      :     1.650368
      dz2     :     0.003173  d :     0.014991
      dxz     :     0.002170
      dyz     :     0.004000
      dx2y2   :     0.001031
      dxy     :     0.004618

 14 O s       :     3.778666  s :     3.778666
      pz      :     1.353986  p :     4.628298
      px      :     1.865970
      py      :     1.408342
      dz2     :     0.005822  d :     0.015425
      dxz     :     0.002036
      dyz     :     0.001884
      dx2y2   :     0.004890
      dxy     :     0.000792

 15 O s       :     3.784618  s :     3.784618
      pz      :     1.351158  p :     4.634162
      px      :     1.582965
      py      :     1.700039
      dz2     :     0.002239  d :     0.015342
      dxz     :     0.003339
      dyz     :     0.004016
      dx2y2   :     0.002388
      dxy     :     0.003359

 16 O s       :     3.789600  s :     3.789600
      pz      :     1.603274  p :     4.628333
      px      :     1.610733
      py      :     1.414325
      dz2     :     0.002144  d :     0.015438
      dxz     :     0.005329
      dyz     :     0.002969
      dx2y2   :     0.003320
      dxy     :     0.001674

 17 H s       :     0.944621  s :     0.944621

 18 H s       :     0.922246  s :     0.922246

 19 H s       :     0.680986  s :     0.680986

 20 H s       :     0.688702  s :     0.688702

 21 H s       :     0.683685  s :     0.683685

 22 H s       :     0.697069  s :     0.697069

 23 H s       :     0.699992  s :     0.699992


------------------------
MULLIKEN OVERLAP CHARGES
------------------------
B(  0-C ,  1-C ) :   0.3957 B(  0-C , 11-O ) :  -0.1198 B(  0-C , 16-O ) :   0.6456 
B(  0-C , 17-H ) :   0.6566 B(  0-C , 18-H ) :   0.6838 B(  0-C , 23-H ) :  -0.0537 
B(  1-C ,  2-H ) :   0.6150 B(  1-C ,  3-C ) :   0.3151 B(  1-C ,  4-H ) :  -0.0829 
B(  1-C ,  7-C ) :  -0.1226 B(  1-C ,  9-C ) :  -0.0962 B(  1-C , 11-O ) :   0.6257 
B(  1-C , 15-O ) :  -0.0911 B(  1-C , 16-O ) :  -0.1282 B(  1-C , 17-H ) :  -0.0609 
B(  2-H , 11-O ) :  -0.0647 B(  3-C ,  4-H ) :   0.6571 B(  3-C ,  5-C ) :   0.3207 
B(  3-C ,  6-H ) :  -0.1264 B(  3-C ,  7-C ) :   0.0676 B(  3-C ,  9-C ) :  -0.1258 
B(  3-C , 14-O ) :  -0.1260 B(  3-C , 15-O ) :   0.5896 B(  3-C , 22-H ) :  -0.1039 
B(  4-H ,  5-C ) :  -0.0526 B(  4-H , 15-O ) :  -0.0545 B(  5-C ,  6-H ) :   0.7155 
B(  5-C ,  7-C ) :   0.3618 B(  5-C ,  8-H ) :  -0.1020 B(  5-C , 11-O ) :  -0.0639 
B(  5-C , 13-O ) :  -0.1052 B(  5-C , 14-O ) :   0.6090 B(  5-C , 21-H ) :  -0.0783 
B(  6-H ,  7-C ) :  -0.0866 B(  7-C ,  8-H ) :   0.6827 B(  7-C ,  9-C ) :   0.4603 
B(  7-C , 10-H ) :  -0.1050 B(  7-C , 11-O ) :  -0.0572 B(  7-C , 12-O ) :  -0.1267 
B(  7-C , 13-O ) :   0.5129 B(  7-C , 20-H ) :  -0.0652 B(  8-H ,  9-C ) :  -0.0887 
B(  9-C , 10-H ) :   0.7129 B(  9-C , 11-O ) :   0.7041 B(  9-C , 12-O ) :   0.5801 
B(  9-C , 13-O ) :  -0.0612 B( 10-H , 11-O ) :  -0.0849 B( 10-H , 12-O ) :  -0.0506 
B( 11-O , 12-O ) :  -0.1304 B( 12-O , 19-H ) :   0.4940 B( 12-O , 21-H ) :   0.0958 
B( 13-O , 20-H ) :   0.5150 B( 13-O , 22-H ) :   0.0896 B( 14-O , 17-H ) :   0.0507 
B( 14-O , 21-H ) :   0.5317 B( 15-O , 22-H ) :   0.5519 B( 16-O , 17-H ) :  -0.0612 
B( 16-O , 18-H ) :  -0.0579 B( 16-O , 23-H ) :   0.5114 B( 17-H , 18-H ) :  -0.0966 



                     *******************************
                     * LOEWDIN POPULATION ANALYSIS *
                     *******************************

----------------------
LOEWDIN ATOMIC CHARGES
----------------------
   0 C :   -0.147351
   1 C :   -0.061984
   2 H :    0.123711
   3 C :   -0.069340
   4 H :    0.118936
   5 C :   -0.065679
   6 H :    0.118704
   7 C :   -0.089074
   8 H :    0.110279
   9 C :   -0.010548
  10 H :    0.092374
  11 O :   -0.135162
  12 O :   -0.308710
  13 O :   -0.301886
  14 O :   -0.318411
  15 O :   -0.323752
  16 O :   -0.346388
  17 H :    0.089426
  18 H :    0.104183
  19 H :    0.296194
  20 H :    0.293418
  21 H :    0.271620
  22 H :    0.273343
  23 H :    0.286095

-------------------------------
LOEWDIN REDUCED ORBITAL CHARGES
-------------------------------
  0 C s       :     2.926586  s :     2.926586
      pz      :     1.106469  p :     3.078563
      px      :     1.078408
      py      :     0.893686
      dz2     :     0.025790  d :     0.142202
      dxz     :     0.026632
      dyz     :     0.021639
      dx2y2   :     0.028037
      dxy     :     0.040102

  1 C s       :     2.901607  s :     2.901607
      pz      :     1.082457  p :     3.009761
      px      :     0.954414
      py      :     0.972891
      dz2     :     0.023624  d :     0.150616
      dxz     :     0.042177
      dyz     :     0.018194
      dx2y2   :     0.030454
      dxy     :     0.036167

  2 H s       :     0.876289  s :     0.876289

  3 C s       :     2.892039  s :     2.892039
      pz      :     0.923735  p :     3.019950
      px      :     1.073529
      py      :     1.022685
      dz2     :     0.034074  d :     0.157352
      dxz     :     0.036526
      dyz     :     0.037371
      dx2y2   :     0.024400
      dxy     :     0.024980

  4 H s       :     0.881064  s :     0.881064

  5 C s       :     2.890233  s :     2.890233
      pz      :     0.873592  p :     3.016381
      px      :     1.063985
      py      :     1.078803
      dz2     :     0.047023  d :     0.159065
      dxz     :     0.045696
      dyz     :     0.023918
      dx2y2   :     0.019352
      dxy     :     0.023076

  6 H s       :     0.881296  s :     0.881296

  7 C s       :     2.897897  s :     2.897897
      pz      :     0.899331  p :     3.033768
      px      :     1.069032
      py      :     1.065405
      dz2     :     0.041613  d :     0.157409
      dxz     :     0.038928
      dyz     :     0.028924
      dx2y2   :     0.021253
      dxy     :     0.026691

  8 H s       :     0.889721  s :     0.889721

  9 C s       :     2.885310  s :     2.885310
      pz      :     0.894779  p :     2.897677
      px      :     0.937769
      py      :     1.065129
      dz2     :     0.057722  d :     0.227562
      dxz     :     0.061593
      dyz     :     0.039352
      dx2y2   :     0.030060
      dxy     :     0.038834

 10 H s       :     0.907626  s :     0.907626

 11 O s       :     3.467783  s :     3.467783
      pz      :     1.675116  p :     4.637264
      px      :     1.329861
      py      :     1.632287
      dz2     :     0.003217  d :     0.030115
      dxz     :     0.009370
      dyz     :     0.003475
      dx2y2   :     0.006596
      dxy     :     0.007457

 12 O s       :     3.527952  s :     3.527952
      pz      :     1.516622  p :     4.754540
      px      :     1.782164
      py      :     1.455754
      dz2     :     0.010792  d :     0.026218
      dxz     :     0.002583
      dyz     :     0.004201
      dx2y2   :     0.003219
      dxy     :     0.005423

 13 O s       :     3.525661  s :     3.525661
      pz      :     1.435350  p :     4.749509
      px      :     1.628945
      py      :     1.685214
      dz2     :     0.006446  d :     0.026715
      dxz     :     0.004524
      dyz     :     0.007191
      dx2y2   :     0.001338
      dxy     :     0.007217

 14 O s       :     3.526456  s :     3.526456
      pz      :     1.422923  p :     4.765178
      px      :     1.870120
      py      :     1.472135
      dz2     :     0.011368  d :     0.026777
      dxz     :     0.003247
      dyz     :     0.003464
      dx2y2   :     0.007729
      dxy     :     0.000968

 15 O s       :     3.529890  s :     3.529890
      pz      :     1.415750  p :     4.767138
      px      :     1.621452
      py      :     1.729936
      dz2     :     0.004738  d :     0.026723
      dxz     :     0.006103
      dyz     :     0.007574
      dx2y2   :     0.003597
      dxy     :     0.004711

 16 O s       :     3.545522  s :     3.545522
      pz      :     1.653654  p :     4.774045
      px      :     1.642998
      py      :     1.477394
      dz2     :     0.003499  d :     0.026821
      dxz     :     0.008617
      dyz     :     0.004915
      dx2y2   :     0.006237
      dxy     :     0.003553

 17 H s       :     0.910574  s :     0.910574

 18 H s       :     0.895817  s :     0.895817

 19 H s       :     0.703806  s :     0.703806

 20 H s       :     0.706582  s :     0.706582

 21 H s       :     0.728380  s :     0.728380

 22 H s       :     0.726657  s :     0.726657

 23 H s       :     0.713905  s :     0.713905


---------------------------------
LOEWDIN BOND ORDERS (THRESH 0.050000)
---------------------------------
B(  0-C ,  1-C ) :   1.0615 B(  0-C ,  3-C ) :   0.0614 B(  0-C , 11-O ) :   0.0609 
B(  0-C , 16-O ) :   1.2282 B(  0-C , 17-H ) :   0.9004 B(  0-C , 18-H ) :   0.9018 
B(  1-C ,  2-H ) :   0.8724 B(  1-C ,  3-C ) :   1.0215 B(  1-C ,  5-C ) :   0.0521 
B(  1-C ,  9-C ) :   0.0609 B(  1-C , 11-O ) :   1.1269 B(  1-C , 15-O ) :   0.0811 
B(  1-C , 16-O ) :   0.0629 B(  3-C ,  4-H ) :   0.8694 B(  3-C ,  5-C ) :   1.0083 
B(  3-C ,  7-C ) :   0.0532 B(  3-C , 11-O ) :   0.0534 B(  3-C , 14-O ) :   0.0789 
B(  3-C , 15-O ) :   1.2290 B(  5-C ,  6-H ) :   0.8699 B(  5-C ,  7-C ) :   1.0231 
B(  5-C ,  9-C ) :   0.0534 B(  5-C , 13-O ) :   0.0591 B(  5-C , 14-O ) :   1.2321 
B(  5-C , 15-O ) :   0.0798 B(  7-C ,  8-H ) :   0.8697 B(  7-C ,  9-C ) :   1.0138 
B(  7-C , 11-O ) :   0.0618 B(  7-C , 12-O ) :   0.0610 B(  7-C , 13-O ) :   1.2076 
B(  7-C , 14-O ) :   0.0732 B(  9-C , 10-H ) :   0.8820 B(  9-C , 11-O ) :   1.2291 
B(  9-C , 12-O ) :   1.2320 B(  9-C , 13-O ) :   0.0809 B( 11-O , 12-O ) :   0.0938 
B( 12-O , 19-H ) :   0.8631 B( 12-O , 21-H ) :   0.0763 B( 13-O , 20-H ) :   0.8746 
B( 13-O , 22-H ) :   0.0721 B( 14-O , 21-H ) :   0.8504 B( 15-O , 22-H ) :   0.8602 
B( 16-O , 23-H ) :   0.8889 

------------------------------------------
LOEWDIN REDUCED ORBITAL POPULATIONS PER MO
-------------------------------------------
THRESHOLD FOR PRINTING IS 0.1%%
                      0         1         2         3         4         5   
                 -18.78758 -18.78026 -18.76530 -18.74925 -18.74402 -18.72938
                   2.00000   2.00000   2.00000   2.00000   2.00000   2.00000
                  --------  --------  --------  --------  --------  --------
11 O  s               0.0       0.0      99.9       0.0       0.0       0.0
12 O  s              99.9       0.0       0.0       0.0       0.0       0.0
13 O  s               0.0      99.9       0.0       0.0       0.0       0.0
14 O  s               0.0       0.0       0.0       0.0      99.9       0.0
15 O  s               0.0       0.0       0.0       0.0       0.0      99.9
16 O  s               0.0       0.0       0.0      99.9       0.0       0.0

                      6         7         8         9        10        11   
                  -9.99695  -9.95417  -9.93889  -9.93630  -9.93118  -9.93058
                   2.00000   2.00000   2.00000   2.00000   2.00000   2.00000
                  --------  --------  --------  --------  --------  --------
 0 C  s               0.0       0.0       0.0       0.0       0.2      99.5
 1 C  s               0.0       0.0       0.0      99.6       0.0       0.0
 3 C  s               0.0       0.0       0.0       0.0      99.4       0.2
 5 C  s               0.0       0.0      99.6       0.0       0.0       0.0
 7 C  s               0.0      99.6       0.0       0.0       0.0       0.0
 9 C  s              99.6       0.0       0.0       0.0       0.0       0.0
12 O  pz              0.1       0.0       0.0       0.0       0.0       0.0
14 O  pz              0.0       0.0       0.1       0.0       0.0       0.0

                     12        13        14        15        16        17   
                  -0.99205  -0.95424  -0.92989  -0.92371  -0.91800  -0.90455
                   2.00000   2.00000   2.00000   2.00000   2.00000   2.00000
                  --------  --------  --------  --------  --------  --------
 0 C  s               0.4       0.0       6.0       0.0       4.2       0.1
 0 C  pz              0.2       0.0       0.5       0.0       0.0       0.0
 0 C  px              0.2       0.0       0.2       0.0       1.2       0.1
 0 C  py              0.0       0.0       2.7       0.1       4.7       0.1
 0 C  dz2             0.0       0.0       0.1       0.0       0.1       0.0
 0 C  dx2y2           0.0       0.0       0.1       0.0       0.2       0.0
 0 C  dxy             0.0       0.0       0.1       0.0       0.2       0.0
 1 C  s               2.9       0.0       5.0       0.0       1.2       0.1
 1 C  pz              0.1       0.0       0.0       0.0       0.9       0.0
 1 C  px              1.7       0.0       0.5       0.0       2.4       0.2
 1 C  py              1.0       0.2       1.1       0.5       0.1       2.1
 1 C  dxy             0.1       0.0       0.1       0.0       0.1       0.1
 2 H  s               0.4       0.0       0.8       0.0       0.2       0.0
 3 C  s               0.6       0.4       1.3       2.4       1.3       6.1
 3 C  pz              0.0       0.0       0.4       0.1       1.0       6.2
 3 C  px              0.1       0.2       0.0       0.7       0.0       0.1
 3 C  py              0.3       0.0       0.2       0.1       0.0       2.1
 3 C  dz2             0.0       0.0       0.0       0.0       0.0       0.3
 3 C  dyz             0.0       0.0       0.0       0.0       0.0       0.3
 4 H  s               0.1       0.0       0.2       0.4       0.1       0.7
 5 C  s               0.9       1.2       0.0       9.9       0.0       0.1
 5 C  pz              0.0       0.2       0.1       6.7       0.5       2.4
 5 C  px              0.0       0.2       0.2       0.4       0.1       0.4
 5 C  py              0.4       0.2       0.0       0.3       0.0       0.2
 5 C  dz2             0.0       0.0       0.0       0.6       0.0       0.1
 5 C  dyz             0.0       0.0       0.0       0.1       0.0       0.0
 6 H  s               0.1       0.3       0.0       1.2       0.0       0.0
 7 C  s               3.3       7.8       0.2       0.0       0.1       0.1
 7 C  pz              0.2       6.6       0.0       2.0       0.0       0.0
 7 C  px              0.5       0.6       0.1       0.7       0.1       0.0
 7 C  py              0.6       1.5       0.0       0.4       0.0       0.0
 7 C  dz2             0.0       0.5       0.0       0.0       0.0       0.0
 7 C  dxz             0.0       0.2       0.0       0.0       0.0       0.0
 7 C  dyz             0.0       0.1       0.0       0.0       0.0       0.0
 8 H  s               0.5       0.8       0.1       0.0       0.0       0.0
 9 C  s              15.7       0.4       0.1       0.3       0.1       0.1
 9 C  pz              1.1       1.2       5.0       0.0       3.0       1.7
 9 C  px              2.4       0.7       1.8       0.1       1.6       0.7
 9 C  py              0.1       1.7       0.5       0.1       0.2       0.3
 9 C  dz2             0.1       0.1       0.2       0.0       0.1       0.1
 9 C  dxz             0.1       0.0       0.2       0.0       0.2       0.1
 9 C  dyz             0.2       0.0       0.1       0.0       0.0       0.0
 9 C  dx2y2           0.1       0.0       0.1       0.0       0.1       0.1
10 H  s               1.9       0.0       0.0       0.1       0.0       0.0
11 O  s              19.3       0.5      14.2       0.7      13.3       6.8
11 O  pz              1.2       0.1       0.2       0.0       0.2       0.1
11 O  px              0.5       0.0       0.1       0.0       0.0       0.0
11 O  py              0.2       0.0       0.5       0.0       0.3       0.1
12 O  s              27.4       6.8      15.9       0.3       6.4       4.1
12 O  pz              2.0       0.2       0.3       0.0       0.1       0.0
12 O  px              0.1       0.0       0.0       0.0       0.0       0.0
12 O  py              0.1       0.1       0.2       0.0       0.1       0.1
13 O  s               3.6      50.2       1.3       2.8       1.1       0.1
13 O  pz              0.1       0.7       0.0       0.0       0.0       0.0
13 O  px              0.0       0.3       0.0       0.1       0.0       0.0
13 O  py              0.2       1.7       0.0       0.1       0.0       0.0
14 O  s               0.8       0.7       0.1      49.2       1.2       5.2
14 O  pz              0.1       0.1       0.0       1.9       0.0       0.1
14 O  py              0.0       0.0       0.0       1.1       0.0       0.1
15 O  s               0.3       0.9       2.5       4.3       5.2      44.0
15 O  pz              0.0       0.0       0.1       0.1       0.1       0.4
15 O  px              0.0       0.0       0.0       0.1       0.1       0.7
15 O  py              0.0       0.0       0.1       0.2       0.2       1.4
16 O  s               0.3       0.0      24.4       0.2      33.7       0.8
16 O  pz              0.0       0.0       0.7       0.0       1.2       0.0
16 O  px              0.0       0.0       0.0       0.0       0.2       0.0
16 O  py              0.0       0.0       0.7       0.0       0.7       0.0
17 H  s               0.2       0.0       0.6       0.0       0.6       0.0
18 H  s               0.0       0.0       0.7       0.0       0.5       0.0
19 H  s               5.3       1.3       2.9       0.1       1.3       0.9
20 H  s               0.7       9.9       0.3       0.6       0.3       0.0
21 H  s               0.7       0.1       0.2       9.7       0.4       0.8
22 H  s               0.2       0.7       0.5       0.8       1.0       8.6
23 H  s               0.0       0.0       5.0       0.0       7.1       0.2

                     18        19        20        21        22        23   
                  -0.69884  -0.69385  -0.62034  -0.59173  -0.56961  -0.53083
                   2.00000   2.00000   2.00000   2.00000   2.00000   2.00000
                  --------  --------  --------  --------  --------  --------
 0 C  s               7.2       1.5      12.1       0.0      10.3       0.1
 0 C  pz              1.4       0.2       0.0       0.2       1.4       0.5
 0 C  px              1.3       0.1       0.1       0.0       0.1       0.0
 0 C  py              1.7       0.6       1.1       0.3       0.1       0.4
 1 C  s              17.3       2.8       0.9       0.4       4.2       0.2
 1 C  pz              0.5       1.0       2.3       1.2       4.8       0.2
 1 C  px              0.6       0.1       3.6       0.1       1.0       0.0
 1 C  py              0.1       2.1       0.2       6.4       1.3       2.7
 1 C  dz2             0.0       0.0       0.1       0.0       0.0       0.0
 1 C  dxy             0.0       0.1       0.0       0.1       0.0       0.0
 2 H  s               3.6       0.4       0.3       0.3       2.2       0.1
 3 C  s               3.2       7.1       2.6      10.8       1.1       1.6
 3 C  pz              0.2       2.0       0.9       1.6       1.1       0.2
 3 C  px              1.6       0.6       2.3       0.9       2.5       1.7
 3 C  py              2.4       1.1       0.3       0.3       1.7       0.0
 3 C  dz2             0.0       0.1       0.0       0.0       0.0       0.0
 4 H  s               0.9       1.5       0.5       5.2       0.1       1.0
 5 C  s               0.2      11.3       7.6       0.0       4.5       3.6
 5 C  pz              0.1       4.4       0.6       0.1       0.0       1.4
 5 C  px              1.7       0.0       0.4       8.3       0.2       0.1
 5 C  py              0.3       0.8       1.4       0.8       2.1       0.8
 5 C  dz2             0.0       0.2       0.0       0.0       0.0       0.0
 6 H  s               0.0       2.1       2.7       0.0       2.8       1.9
 7 C  s               5.1      12.9       0.8       5.8       0.6       1.3
 7 C  pz              0.3       1.6       0.0       0.6       0.2       4.6
 7 C  px              0.5       1.8       0.3       0.3       0.3       0.2
 7 C  py              1.4       0.1       6.8       2.7       3.2       0.3
 7 C  dxy             0.0       0.0       0.1       0.0       0.0       0.0
 8 H  s               1.0       2.5       0.5       2.2       0.6       0.0
 9 C  s               9.2       1.3       5.9       4.8       0.0       0.2
 9 C  pz              1.0       0.5       0.1       1.0       2.6       7.6
 9 C  px              0.5       2.0       2.3       0.1       2.8       0.2
 9 C  py              0.6       3.4       0.2       2.0       1.6       0.1
 9 C  dz2             0.0       0.0       0.0       0.0       0.0       0.2
 9 C  dx2y2           0.0       0.1       0.0       0.0       0.0       0.0
10 H  s               2.3       0.1       2.0       2.9       0.1       0.1
11 O  s               0.1       3.1       1.6       0.5       0.4       0.0
11 O  pz              0.0       0.1       0.2       0.2       0.2       0.2
11 O  px              9.4       0.0       0.6       8.5       5.0       4.4
11 O  py              1.5       0.4       0.1       1.3       3.6       0.3
12 O  s               1.8       0.3       0.9       0.6       0.1       0.0
12 O  pz              1.5       0.2       2.1       2.5       0.1       5.0
12 O  px              0.4       0.3       1.0       0.2       1.4       2.4
12 O  py              1.5       0.8       4.6       0.7       3.3       9.9
13 O  s               1.6       2.8       0.2       0.3       0.1       0.1
13 O  pz              1.1       3.6       0.0       6.1       0.0      11.1
13 O  px              0.7       1.6       0.0       2.5       0.1       5.7
13 O  py              0.0       0.1       0.3       0.7       0.4       0.1
14 O  s               0.0       5.2       0.6       0.0       0.2       0.6
14 O  pz              0.0       1.8       2.3       0.0       2.5       6.2
14 O  px              0.0       0.0       0.0       0.4       0.0       0.1
14 O  py              0.0       0.8       1.9       0.2       2.8       4.4
14 O  dz2             0.0       0.0       0.1       0.0       0.1       0.1
15 O  s               1.1       3.2       1.2       1.1       0.2       0.2
15 O  pz              0.4       1.2       1.2       5.1       0.6       2.0
15 O  px              0.3       0.3       0.0       1.8       1.0       1.1
15 O  py              0.1       0.1       0.0       0.1       0.3       0.1
16 O  s               1.7       0.2       1.7       0.0       1.3       0.0
16 O  pz              0.3       0.0       0.4       0.1       0.2       0.2
16 O  px              0.8       0.1       1.7       0.3       2.8       0.1
16 O  py              1.2       0.2       3.8       0.2       5.6       0.1
17 H  s               1.6       0.2       3.2       0.0       3.7       0.3
18 H  s               1.6       0.4       3.5       0.0       3.5       0.2
19 H  s               1.4       0.5       2.5       0.8       1.2       4.7
20 H  s               0.9       2.4       0.0       2.8       0.0       4.7
21 H  s               0.0       1.8       1.5       0.1       1.7       2.8
22 H  s               0.4       1.2       0.5       2.3       0.5       0.9
23 H  s               1.2       0.1       2.1       0.2       2.7       0.1

                     24        25        26        27        28        29   
                  -0.50181  -0.48360  -0.47652  -0.46168  -0.43811  -0.43059
                   2.00000   2.00000   2.00000   2.00000   2.00000   2.00000
                  --------  --------  --------  --------  --------  --------
 0 C  s               0.2       0.2       0.3       0.8       0.4       0.6
 0 C  pz              3.2       0.5       3.0       4.5       7.9       1.8
 0 C  px              0.5       0.1       0.0       0.4       0.4       5.9
 0 C  py              0.0       3.3       1.3      11.8       0.1       0.9
 0 C  dyz             0.0       0.1       0.0       0.1       0.0       0.0
 0 C  dx2y2           0.0       0.0       0.0       0.2       0.0       0.0
 0 C  dxy             0.0       0.0       0.0       0.1       0.0       0.1
 1 C  s               1.3       3.4       0.1       0.0       0.8       0.1
 1 C  pz              3.3       0.0       0.6       0.1       0.1       5.8
 1 C  px              4.2       0.3       1.0       0.3       5.6       0.2
 1 C  py              0.1       2.7       0.6       0.2       3.0       0.3
 1 C  dxy             0.0       0.1       0.0       0.1       0.1       0.0
 2 H  s               3.7       1.6       0.6       0.0       2.3       1.1
 3 C  s               0.1       0.9       0.0       0.2       0.0       0.0
 3 C  pz              0.4       0.8       0.0       0.0       1.7       0.8
 3 C  px              2.4       0.2       0.0       3.2       1.0       5.8
 3 C  py              0.9      12.1       1.0       0.6       1.4       0.3
 3 C  dyz             0.0       0.1       0.0       0.0       0.0       0.0
 4 H  s               0.1       1.6       0.1       0.5       0.4       1.1
 5 C  s               0.1       0.1       0.0       0.1       0.4       1.3
 5 C  pz              4.5       0.2       0.4       1.0       1.1       8.0
 5 C  px              1.2       0.5       0.0       2.5       8.1       0.4
 5 C  py              2.9       0.1       3.2       1.2       1.9       0.8
 5 C  dz2             0.1       0.1       0.0       0.0       0.1       0.1
 6 H  s               0.7       0.0       0.6       0.5       0.2       2.4
 7 C  s               0.8       0.9       1.5       0.0       0.1       0.4
 7 C  pz              0.1       3.2       7.6       0.5       6.8       0.4
 7 C  px              6.5       3.5       0.2       4.6       0.3       2.2
 7 C  py              1.0       0.0       3.7       2.7       7.1       0.2
 7 C  dz2             0.0       0.0       0.1       0.0       0.0       0.1
 7 C  dyz             0.1       0.0       0.4       0.1       0.1       0.0
 7 C  dx2y2           0.0       0.0       0.1       0.0       0.0       0.1
 7 C  dxy             0.0       0.0       0.0       0.0       0.1       0.1
 8 H  s               2.8       3.8       3.8       1.3       0.5       0.6
 9 C  s               0.7       1.1       0.4       0.3       0.0       0.1
 9 C  pz              4.5       1.7       2.1       1.9       0.1       0.8
 9 C  px              6.9       0.4       0.1       1.6       7.6       5.3
 9 C  py              3.9       0.5       6.0       1.6       1.1       1.8
 9 C  dz2             0.1       0.0       0.2       0.1       0.0       0.0
10 H  s               6.6       2.2       0.2       0.8       0.3       3.8
11 O  s               0.2       1.8       0.0       1.0       0.2       0.7
11 O  pz              2.3       0.0       0.1       0.0       1.1       8.1
11 O  px              0.4       1.2       0.7       0.0       7.3       1.3
11 O  py              0.7       0.5       0.9       0.9       3.9       0.0
12 O  s               0.3       0.2       0.0       0.0       0.3       0.1
12 O  pz              0.1       0.3       8.9       1.8       0.5       0.3
12 O  px              0.3       0.0       1.4       0.2       1.6       3.4
12 O  py              8.8       1.7       4.6       2.4       0.0       0.1
12 O  dz2             0.0       0.0       0.1       0.0       0.0       0.0
13 O  s               0.8       0.2       1.6       0.1       0.1       0.0
13 O  pz              0.7       0.1       7.7       2.5       2.6       3.9
13 O  px              0.8       3.8       9.4       0.1       2.1       0.0
13 O  py              1.0       0.2       4.3       1.3       2.2       0.2
14 O  s               0.4       0.1       0.7       0.0       0.5       0.1
14 O  pz              2.0       0.8       1.1       0.1       0.4       4.9
14 O  px              0.3       0.1       0.1       0.2       2.3       0.1
14 O  py              6.7       1.2       0.1       0.9       4.3       6.1
15 O  s               0.2       0.1       0.2       0.3       0.0       0.8
15 O  pz              0.3      14.9       1.0       0.0       0.0       1.8
15 O  px              1.3       6.5       0.1       0.7       0.3       0.6
15 O  py              0.0       0.4       0.0       0.2       0.3       0.3
16 O  s               0.1       0.0       0.3       1.3       0.4       0.8
16 O  pz              0.7       0.6       1.8       6.7       2.1       0.9
16 O  px              0.0       3.7       1.3      11.9       0.0       1.6
16 O  py              0.1       3.6       0.8       6.6       0.0       0.6
17 H  s               2.1       0.2       1.5       1.9       3.7       0.2
18 H  s               0.0       0.1       0.7       5.3       0.0       4.1
19 H  s               1.6       0.2       3.2       1.2       0.0       0.0
20 H  s               0.0       0.5       5.9       0.5       0.8       0.5
21 H  s               2.9       0.8       0.1       0.2       0.9       3.2
22 H  s               0.5       6.4       0.2       0.1       0.0       0.1
23 H  s               0.1       2.2       1.0       7.1       0.1       0.2

                     30        31        32        33        34        35   
                  -0.42141  -0.40089  -0.38687  -0.37227  -0.37123  -0.34630
                   2.00000   2.00000   2.00000   2.00000   2.00000   2.00000
                  --------  --------  --------  --------  --------  --------
 0 C  s               0.1       0.2       0.0       0.0       0.0       0.0
 0 C  pz              0.0       7.0       4.4       1.7       0.1       0.1
 0 C  px             10.9       7.0       6.6       8.6       0.7       0.7
 0 C  py              0.2       2.0       3.0       1.5       0.0       0.2
 0 C  dz2             0.0       0.0       0.2       0.1       0.0       0.1
 0 C  dx2y2           0.0       0.0       0.1       0.1       0.0       0.0
 1 C  s               0.2       0.4       0.6       0.2       0.3       0.1
 1 C  pz              4.5       0.1       3.3       0.3       0.0       0.3
 1 C  px              0.8       3.0       5.0       0.6       0.7       3.2
 1 C  py              0.7       0.3       7.7       2.2       2.0       0.2
 1 C  dz2             0.0       0.0       0.1       0.1       0.0       0.1
 1 C  dyz             0.0       0.1       0.1       0.0       0.0       0.0
 1 C  dxy             0.0       0.0       0.1       0.0       0.0       0.1
 2 H  s               1.4       0.0       0.2       0.8       0.0       2.0
 3 C  s               0.6       0.4       1.7       0.0       0.0       0.1
 3 C  pz              4.6      13.9       0.1       0.1       1.3       1.6
 3 C  px              0.9       0.2       0.3       4.3       1.9       8.5
 3 C  py              0.2       2.7       6.4       0.1       2.4       0.9
 3 C  dxz             0.0       0.0       0.0       0.0       0.0       0.2
 3 C  dyz             0.0       0.1       0.2       0.1       0.1       0.2
 3 C  dx2y2           0.0       0.1       0.0       0.0       0.0       0.0
 3 C  dxy             0.0       0.0       0.0       0.0       0.3       0.1
 4 H  s               0.3       6.5       0.1       0.8       2.2       7.3
 5 C  s               0.1       0.0       0.3       0.0       0.2       0.6
 5 C  pz              3.2       0.2       0.7       0.3       1.1       0.1
 5 C  px              0.5       4.0       0.9       2.5       0.1       4.9
 5 C  py              0.3       0.3       2.8       3.2      18.1       1.8
 5 C  dz2             0.3       0.1       0.0       0.0       0.0       0.1
 5 C  dx2y2           0.1       0.1       0.2       0.0       0.0       0.0
 5 C  dxy             0.0       0.0       0.0       0.0       0.2       0.0
 6 H  s               0.3       0.0       3.3       2.8       8.0       1.8
 7 C  s               0.1       0.1       0.0       0.3       0.1       0.2
 7 C  pz              1.4       0.0       1.1       0.0       0.9       1.9
 7 C  px              7.6       0.9       4.8       0.0       5.3       1.1
 7 C  py              0.8       0.8       1.6       0.1       0.8       0.4
 7 C  dxz             0.0       0.0       0.0       0.0       0.0       0.2
 7 C  dx2y2           0.0       0.0       0.1       0.1       0.0       0.1
 7 C  dxy             0.1       0.0       0.0       0.0       0.0       0.0
 8 H  s               4.0       0.7       2.9       0.1       1.0       0.1
 9 C  s               0.0       0.3       0.5       0.1       0.1       0.4
 9 C  pz              0.1       0.0       0.3       2.0       0.0       0.2
 9 C  px              1.2       0.1       0.1       0.3       1.5       0.7
 9 C  py              9.8       1.5       3.4       0.2       1.2       1.1
 9 C  dz2             0.0       0.0       0.1       0.2       0.0       0.1
 9 C  dxz             0.0       0.1       0.1       0.1       0.0       0.0
 9 C  dyz             0.0       0.0       0.0       0.1       0.1       0.0
 9 C  dx2y2           0.0       0.0       0.0       0.0       0.1       0.0
10 H  s               3.7       1.3       0.0       0.3       1.3       0.0
11 O  s               0.0       1.7       0.9       0.4       0.7       0.2
11 O  pz              0.6       1.2       3.6       5.4       2.4       1.2
11 O  px              2.3       0.1       0.3       3.2       3.6       0.4
11 O  py              2.3       1.5       0.0       0.3       3.4       7.3
12 O  s               1.2       1.5       0.0       4.1       0.2       0.9
12 O  pz              2.0       5.0       1.1      17.8       0.1       2.0
12 O  px              0.0       0.7       1.7       2.6       0.5       0.1
12 O  py              1.4       2.0       0.0       8.4       0.7       4.7
13 O  s               0.2       0.1       0.1       0.3       1.8       1.7
13 O  pz              0.4       0.2       0.7       0.6       2.2       8.4
13 O  px              2.7       0.0       0.4       0.7       3.1       2.9
13 O  py              0.3       0.1       2.4       1.4       3.5       8.8
14 O  s               0.1       0.2       0.0       0.3       1.8       0.8
14 O  pz              3.5       0.2       1.4       0.0      12.0       7.4
14 O  px              0.5       1.3       0.1       0.7       0.0       1.9
14 O  py              4.3       0.6       0.1       0.1       4.0       1.3
15 O  s               0.1       0.0       0.8       0.0       0.8       0.0
15 O  pz              2.0       5.0       2.5       1.5       0.0       1.5
15 O  px              4.1       4.0       0.7       0.1       2.3       0.1
15 O  py              0.2       2.6       4.0       0.0       2.5       1.6
16 O  s               0.2       0.1       0.1       0.2       0.0       0.0
16 O  pz              0.0       3.3       0.3       0.3       0.0       0.1
16 O  px              0.6       1.7       1.1       3.9       0.0       0.0
16 O  py              3.2       0.3       9.8       1.0       0.8       1.2
17 H  s               1.1       5.9       0.0       3.7       0.3       0.5
18 H  s               3.7       2.4       0.4       4.7       0.1       0.1
19 H  s               0.1       0.3       0.3       1.6       0.1       0.9
20 H  s               0.1       0.0       0.2       0.1       0.3       0.3
21 H  s               1.6       0.5       0.4       0.9       0.1       0.0
22 H  s               1.3       2.3       1.1       0.5       0.2       1.1
23 H  s               0.1       0.0       1.5       0.1       0.1       0.1

                     36        37        38        39        40        41   
                  -0.33978  -0.32344  -0.30416  -0.28861  -0.28518  -0.26437
                   2.00000   2.00000   2.00000   2.00000   2.00000   2.00000
                  --------  --------  --------  --------  --------  --------
 0 C  s               0.2       0.1       0.2       0.0       0.2       0.2
 0 C  pz              4.8       0.0       0.6       1.0       1.3       0.0
 0 C  px              0.1       0.8       0.1       0.0       1.0       0.8
 0 C  py              2.5       0.3       2.6       0.9       1.1       0.0
 0 C  dxz             0.1       0.0       0.1       0.1       0.1       0.0
 0 C  dyz             0.0       0.0       0.1       0.1       0.2       0.0
 0 C  dxy             0.0       0.0       0.1       0.1       0.2       0.0
 1 C  s               0.1       0.1       1.2       0.0       0.2       0.1
 1 C  pz             13.2       0.8       0.3       1.6       1.7       0.2
 1 C  px              3.9       3.6       0.3       0.0       1.7       1.5
 1 C  py              0.1       0.5       1.1       0.1       0.0       0.1
 1 C  dxz             0.4       0.0       0.2       0.0       0.0       0.0
 1 C  dx2y2           0.0       0.0       0.1       0.2       0.0       0.2
 2 H  s              11.1       1.7       1.9       1.1       0.0       1.1
 3 C  s               0.1       0.1       0.2       0.7       0.0       0.1
 3 C  pz              2.8       0.7       0.1       0.2       0.1       0.0
 3 C  px              0.7       2.9       0.9       1.0       0.2       0.1
 3 C  py              1.4       1.0       0.6       0.2       0.3       2.0
 3 C  dxz             0.0       0.0       0.1       0.3       0.0       0.1
 3 C  dyz             0.3       0.0       0.0       0.0       0.1       0.0
 3 C  dx2y2           0.1       0.0       0.0       0.0       0.0       0.0
 4 H  s               2.5       0.3       0.4       1.3       0.2       0.2
 5 C  s               0.3       1.0       0.0       0.1       0.0       0.1
 5 C  pz              0.5       0.0       0.3       0.9       2.4       0.8
[...]
 3 C  dx2y2           0.0       0.0       0.2       0.3       0.0       0.2
 3 C  dxy             0.0       0.1       0.0       0.0       0.2       0.1
 5 C  s               0.2       0.1       1.2       0.0       1.0       0.1
 5 C  pz              0.2       0.1       1.1       0.1       2.3       0.1
 5 C  px              0.0       0.0       0.0       0.0       0.1       0.0
 5 C  dz2             1.1       0.1       4.7       0.0       5.5       0.1
 5 C  dxz             0.4       0.1       0.1       0.6       0.1       0.2
 5 C  dyz             0.0       0.0       0.1       0.0       0.9       0.0
 6 H  s               0.0       0.0       0.0       0.0       0.1       0.0
 7 C  s               1.0       0.1       0.4       0.3       0.6       0.0
 7 C  pz              0.8       0.0       0.5       0.4       1.5       0.0
 7 C  px              0.1       0.0       0.1       0.0       0.2       0.0
 7 C  py              0.1       0.0       0.1       0.1       0.1       0.1
 7 C  dz2             1.5       0.0       1.7       1.3       2.3       0.0
 7 C  dxz             1.4       0.1       0.5       0.1       0.2       0.0
 7 C  dyz             1.8       0.4       0.0       0.2       2.2       0.2
 7 C  dx2y2           0.1       0.0       0.0       0.0       0.1       0.0
 7 C  dxy             0.3       0.0       0.0       0.0       0.1       0.0
 9 C  s               0.7       0.0       0.5       1.1       0.1       1.9
 9 C  pz              1.2       0.5       0.8       0.5       0.2       0.5
 9 C  px              0.0       0.1       0.0       0.2       0.0       2.2
 9 C  py              0.2       0.0       0.1       0.2       0.1       0.1
 9 C  dz2             2.0       0.2       2.6       2.1       1.2       0.2
 9 C  dxz             0.4       1.0       0.1       0.0       0.1       3.3
 9 C  dyz             3.3       0.9       0.6       0.7       0.0       0.1
 9 C  dx2y2           0.2       0.2       0.0       0.0       0.0       2.9
 9 C  dxy             0.0       0.0       0.0       0.0       0.0       0.2
10 H  s               0.0       0.0       0.0       0.1       0.0       0.1
11 O  s               0.1       0.7       0.1       0.1       0.1       0.0
11 O  pz              0.0       0.1       0.0       0.0       0.0       0.1
11 O  px              0.0       0.0       0.0       0.1       0.2       5.6
11 O  py              0.0       0.0       0.0       0.0       0.0       1.0
11 O  dz2             0.0       1.4       0.0       0.0       0.8       1.1
11 O  dxz             0.4       1.0       0.5       0.2       0.9      35.6
11 O  dyz             0.0       0.2       0.1       0.0       0.1       3.2
11 O  dx2y2           0.1       1.5       0.0       1.1       0.3      12.7
11 O  dxy             2.5       4.1       0.1       0.7       2.9      12.3
12 O  s               1.1       0.4       1.1       1.5       0.4       0.0
12 O  pz              1.3       0.3       0.6       0.6       0.3       0.0
12 O  py              0.4       0.1       0.6       0.4       0.1       0.0
12 O  dz2            20.8       4.5       9.5       6.3       1.1       0.0
12 O  dxz             0.3       0.1       0.4       0.2       0.4       0.2
12 O  dyz             5.4       1.0       5.5       5.5       2.2       0.0
12 O  dx2y2           0.0       0.0       0.1       0.1       0.2       0.1
12 O  dxy             0.2       0.0       0.0       0.0       0.2       0.0
13 O  s               1.1       0.0       0.8       0.8       2.4       0.0
13 O  pz              1.3       0.1       0.6       0.3       1.4       0.0
13 O  px              0.2       0.0       0.1       0.2       0.3       0.0
13 O  dz2            15.0       1.3       2.9       2.3      10.3       0.5
13 O  dxz             1.3       0.0       1.2       1.4       5.1       0.1
13 O  dyz             5.3       0.1       4.7       2.5       3.8       0.0
13 O  dx2y2           0.0       0.0       0.2       0.1       0.0       0.0
13 O  dxy             0.6       0.0       0.6       0.4       0.6       0.0
14 O  s               0.1       0.0       1.3       0.1       3.1       0.1
14 O  pz              0.3       0.1       1.4       0.0       2.2       0.1
14 O  py              0.1       0.1       0.4       0.0       0.3       0.0
14 O  dz2             4.5       1.5      23.4       0.8      29.5       0.8
14 O  dxz             0.0       0.0       1.1       0.7       1.2       0.0
14 O  dyz             1.0       0.1       1.3       0.0       0.5       0.1
14 O  dx2y2           0.0       0.1       0.4       0.0       0.0       0.0
14 O  dxy             0.0       0.0       0.2       0.0       0.0       0.0
15 O  s               0.0       0.3       0.7       3.5       0.5       0.3
15 O  pz              0.0       0.1       0.9       2.4       0.3       0.1
15 O  px              0.0       0.0       0.2       0.2       0.0       0.0
15 O  py              0.0       0.1       0.2       0.4       0.0       0.1
15 O  dz2             0.1       0.4       5.0      15.1       2.5       0.5
15 O  dxz             0.0       0.1       0.7       0.0       0.2       0.1
15 O  dyz             0.0       1.8       8.6      24.2       2.0       1.1
15 O  dx2y2           0.0       0.4       1.1       2.6       0.0       0.2
15 O  dxy             0.0       0.1       0.7       0.4       0.2       0.0
16 O  s               0.8       2.8       0.1       0.0       0.0       0.1
16 O  px              0.2       0.8       0.0       0.0       0.0       0.0
16 O  py              0.7       2.5       0.1       0.0       0.0       0.0
16 O  dz2             2.7      10.2       0.3       0.2       0.0       0.0
16 O  dxz             0.3       1.9       0.0       0.2       0.0       0.1
16 O  dyz             0.8       4.8       0.1       0.2       0.1       0.1
16 O  dx2y2           5.4      20.5       0.4       0.4       0.1       0.0
16 O  dxy             3.5      11.8       0.3       0.0       0.0       0.1
19 H  s               0.4       0.0       0.2       0.1       0.0       0.0
20 H  s               0.2       0.0       0.1       0.1       0.1       0.0
21 H  s               0.1       0.0       0.4       0.0       0.3       0.0
22 H  s               0.0       0.0       0.2       0.5       0.0       0.0
23 H  s               0.1       0.6       0.0       0.0       0.0       0.0



                      *****************************
                      * MAYER POPULATION ANALYSIS *
                      *****************************

  NA   - Mulliken gross atomic population
  ZA   - Total nuclear charge
  QA   - Mulliken gross atomic charge
  VA   - Mayer's total valence
  BVA  - Mayer's bonded valence
  FA   - Mayer's free valence

  ATOM       NA         ZA         QA         VA         BVA        FA
  0 C      6.0005     6.0000    -0.0005     4.0123     4.0123    -0.0000
  1 C      5.9397     6.0000     0.0603     3.9933     3.9933    -0.0000
  2 H      0.9216     1.0000     0.0784     0.9861     0.9861    -0.0000
  3 C      5.9260     6.0000     0.0740     3.9536     3.9536    -0.0000
  4 H      0.9272     1.0000     0.0728     0.9717     0.9717    -0.0000
  5 C      5.9531     6.0000     0.0469     4.0574     4.0574     0.0000
  6 H      0.9155     1.0000     0.0845     0.9740     0.9740     0.0000
  7 C      6.0060     6.0000    -0.0060     3.9967     3.9967     0.0000
  8 H      0.9155     1.0000     0.0845     0.9651     0.9651    -0.0000
  9 C      5.8051     6.0000     0.1949     4.1513     4.1513    -0.0000
 10 H      0.9464     1.0000     0.0536     0.9704     0.9704    -0.0000
 11 O      8.3043     8.0000    -0.3043     2.1927     2.1927    -0.0000
 12 O      8.4151     8.0000    -0.4151     2.0583     2.0583     0.0000
 13 O      8.4167     8.0000    -0.4167     2.0236     2.0236    -0.0000
 14 O      8.4224     8.0000    -0.4224     2.0315     2.0315     0.0000
 15 O      8.4341     8.0000    -0.4341     2.0063     2.0063     0.0000
 16 O      8.4334     8.0000    -0.4334     1.9876     1.9876     0.0000
 17 H      0.9446     1.0000     0.0554     1.0096     1.0096     0.0000
 18 H      0.9222     1.0000     0.0778     0.9487     0.9487     0.0000
 19 H      0.6810     1.0000     0.3190     0.8933     0.8933     0.0000
 20 H      0.6887     1.0000     0.3113     0.8794     0.8794    -0.0000
 21 H      0.6837     1.0000     0.3163     0.9207     0.9207    -0.0000
 22 H      0.6971     1.0000     0.3029     0.9251     0.9251    -0.0000
 23 H      0.7000     1.0000     0.3000     0.8791     0.8791     0.0000

  Mayer bond orders larger than 0.100000
B(  0-C ,  1-C ) :   1.0541 B(  0-C , 16-O ) :   1.0850 B(  0-C , 17-H ) :   0.8946 
B(  0-C , 18-H ) :   0.9117 B(  1-C ,  2-H ) :   0.8915 B(  1-C ,  3-C ) :   0.9810 
B(  1-C , 11-O ) :   0.9860 B(  3-C ,  4-H ) :   0.8917 B(  3-C ,  5-C ) :   0.9621 
B(  3-C , 15-O ) :   1.0519 B(  5-C ,  6-H ) :   0.8998 B(  5-C ,  7-C ) :   1.0118 
B(  5-C , 14-O ) :   1.0844 B(  7-C ,  8-H ) :   0.8966 B(  7-C ,  9-C ) :   0.9671 
B(  7-C , 13-O ) :   1.0285 B(  9-C , 10-H ) :   0.9048 B(  9-C , 11-O ) :   1.1031 
B(  9-C , 12-O ) :   1.0763 B( 12-O , 19-H ) :   0.8236 B( 13-O , 20-H ) :   0.8388 
B( 14-O , 21-H ) :   0.7974 B( 15-O , 22-H ) :   0.8195 B( 16-O , 23-H ) :   0.8523 


-------
TIMINGS
-------

Total SCF time: 0 days 0 hours 0 min 9 sec 

Total time                  ....       9.580 sec
Sum of individual times     ....       9.188 sec  ( 95.9%)

SCF preparation             ....       0.169 sec  (  1.8%)
Fock matrix formation       ....       8.247 sec  ( 86.1%)
  Startup                   ....       0.051 sec  (  0.6% of F)
  Split-RI-J                ....       3.723 sec  ( 45.1% of F)
  XC integration            ....       4.073 sec  ( 49.4% of F)
    Basis function eval.    ....       1.376 sec  ( 33.8% of XC)
    Density eval.           ....       0.774 sec  ( 19.0% of XC)
    XC-Functional eval.     ....       0.277 sec  (  6.8% of XC)
    XC-Potential eval.      ....       1.037 sec  ( 25.5% of XC)
Diagonalization             ....       0.000 sec  (  0.0%)
Density matrix formation    ....       0.157 sec  (  1.6%)
Total Energy calculation    ....       0.025 sec  (  0.3%)
Population analysis         ....       0.100 sec  (  1.0%)
Orbital Transformation      ....       0.051 sec  (  0.5%)
Orbital Orthonormalization  ....       0.000 sec  (  0.0%)
DIIS solution               ....       0.323 sec  (  3.4%)
  MO trafo                  ....       0.000 sec  (  0.0 % of DIIS)
  Orb grad                  ....       0.000 sec  (  0.0 % of DIIS)
  Energy W gradient         ....       0.000 sec  (  0.0 % of DIIS)
  DIIS error                ....       0.006 sec  (  2.0 % of DIIS)
  DIIS work                 ....       0.276 sec  ( 85.5 % of DIIS)
  Form Q                    ....       0.000 sec  (  0.0 % of DIIS)
  Form QpQm                 ....       0.000 sec  (  0.0 % of DIIS)
  Exp/Cayley                ....       0.000 sec  (  0.0 % of DIIS)
  Orb update                ....       0.000 sec  (  0.0 % of DIIS)
  Wake-sleep                ....       0.013 sec  (  4.0 % of DIIS)
SOSCF solution              ....       0.117 sec  (  1.2%)
  MO trafo                  ....       0.080 sec  ( 68.0 % of SOSCF)
  Orb grad                  ....       0.001 sec  (  1.0 % of SOSCF)
  Rot update                ....       0.018 sec  ( 15.1 % of SOSCF)
  Step                      ....       0.018 sec  ( 15.8 % of SOSCF)
Finished LeanSCF after   9.7 sec

Maximum memory used throughout the entire LEANSCF-calculation: 18.5 MB


-------------------------------------------------------------------------------
                          DFT DISPERSION CORRECTION                            
                                                                               
                                DFTD4 V3.4.0                                   
-------------------------------------------------------------------------------
The PBE functional is recognized
Active option DFTDOPT                   ...         5   

-------------------------   ----------------
Dispersion correction           -0.026001635
-------------------------   ----------------

------------------   -----------------
gCP correction             0.158159781
------------------   -----------------

-------------------------   --------------------
FINAL SINGLE POINT ENERGY      -685.696077971912
-------------------------   --------------------


------------------------------------------------------------------------------
                              ORCA PROPERTY CALCULATIONS
------------------------------------------------------------------------------

GBWName                                 ... sp.gbw
Number of atoms                         ...     24
Number of basis functions               ...    192
Max core memory                         ...   1024 MB

Electric properties:
Dipole moment                           ... YES
Quadrupole moment                       ...  NO
Static polarizability (Dipole/Dipole)   ...  NO
Static polarizability (Dipole/Quad.)    ...  NO
Static polarizability (Quad./Quad.)     ...  NO
Static polarizability (Velocity)        ...  NO

Atomic electric properties:
Dipole moment                           ...  NO
Quadrupole moment                       ...  NO
Static polarizability                   ...  NO

Choice of electric origin               ... Center of mass
Position of electric origin             ...    -0.000003     0.000002    -0.000004

General magnetic properties:
Magnetizability                         ...  NO

EPR properties:
g-Tensor (aka g-matrix)                 ...  NO
Zero-Field splitting spin-orbit         ...  NO
Zero-field splitting spin-spin          ...  NO
Hyperfine couplings                     ...  NO (   0 nuclei)
Quadrupole couplings                    ...  NO (   0 nuclei)
Contact density                         ...  NO (   0 nuclei)

NMR properties:
Chemical shifts                         ...  NO (   0 nuclei)
Spin-rotation constants                 ...  NO (   0 nuclei)
Spin-spin couplings                     ...  NO (   0 nuclei,    0 pairs)

Choice of magnetic origin               ... GIAO
Position of magnetic origin             ...     0.000000     0.000000     0.000000

Properties with geometric perturbations:
SCF Hessian                             ...  NO
IR spectrum                             ...  NO
VCD spectrum                            ...  NO
X-ray spectroscopy properties:
SCF XES/XAS/RIXS spectra                ...  NO


-------------
DIPOLE MOMENT
-------------

Method             : SCF
Type of density    : Electron Density
Multiplicity       :   1
Irrep              :   0
Energy             :  -685.8282361181608167 Eh
Relativity type    : 
Basis              : AO
                                X                 Y                 Z
Electronic contribution:      1.472835623      -0.684318696       1.745079201
Nuclear contribution   :     -0.987524831      -0.622716105      -2.081647219
                        -----------------------------------------
Total Dipole Moment    :      0.485310793      -1.307034801      -0.336568018
                        -----------------------------------------
Magnitude (a.u.)       :      1.434274927
Magnitude (Debye)      :      3.645637141



--------------------
Rotational spectrum 
--------------------
 
Rotational constants in cm-1:             0.041803             0.028208             0.024958 
Rotational constants in MHz :          1253.217165           845.643536           748.220300 

Dipole components along the rotational axes: 
x,y,z [a.u.] :    -0.501508     1.302916     0.328701 
x,y,z [Debye]:    -1.274732     3.311749     0.835491 

 

Dipole moment calculation done in   0.0 sec 

Maximum memory used throughout the entire PROP-calculation: 12.2 MB

--------------------------------
SUGGESTED CITATIONS FOR THIS RUN
--------------------------------

Below you find a list of papers that are relevant to this ORCA run
We neither can nor want to force you to cite these papers, but we appreciate if you do
You receive ORCA, which is the product of decades of hard work by many enthusiastic individuals, for free
The only thing we kindly ask in return is that you cite our papers,
We deeply appreciate it, if you show your appreciation for ORCA by not just citing the generic ORCA reference.

Please note that relegating all ORCA citations to the supporting information does *not* help us.
SI sections are not indexed - citations you put there will not count into any citation statistics
But we need these citations in order to attract the funding resources that allow us to do what we are doing

Therefore, if you are a happy ORCA user, please consider citing a few of the papers listed below in the main body of your paper

In addition to the list printed below, the program has created the file sp.bibtex that contains the list in bibtex format
You can import this file easily into all common literature databanks and citation aid programs


List of essential papers. We consider these as the minimum necessary citations

  1. Neese,F.
     Software update: the ORCA program system, version 5.0
     WIRES Comput. Molec. Sci., 2022 12(1)e1606
     doi.org/10.1002/wcms.1606

List of papers to cite with high priority. The work reported in these papers was absolutely
necessary for this run to complete.
Our perspective: the developers of density functionals and basis sets usually get cited in chemistry papers
Good! But without the algorithms to do something with them, the functionals or basis sets would not do anything.
Hence, in our opinion, the algorithm design and method developments papers are equally worthy of getting cited

  1. Neese,F.
     An improvement of the resolution of the identity approximation for the formation of the Coulomb matrix
     J. Comp. Chem., 2003 24(14)1740-1747
     doi.org/10.1002/jcc.10318
  2. Neese,F.
     The SHARK Integral Generation and Digestion System
     J. Comp. Chem., 2022  1-16
     doi.org/10.1002/jcc.26942
  3. Caldeweyher,E.; Bannwarth,C.; Grimme,S.
     Extension of the D3 dispersion coefficient model
     J. Chem. Phys., 2017 147 034112-XXXX
     doi.org/10.1063/1.4993215
  4. Caldeweyher,E.; Ehlert,S.; Hansen,A.; Neugebauer,H.; Spicher,S.; Bannwarth,C.; Grimme,S.
     A generally applicable atomic-charge dependent London dispersion correction
     J. Chem. Phys., 2019 150 154122-XXXX
     doi.org/10.1063/1.5090222
  5. Caldeweyher,E.; Mewes,J.; Ehlert,S.; Grimme,S.
     Extension and evaluation of the D4 London-dispersion model for periodic systems
     Phys. Chem. Chem. Phys., 2020 22(16)8499-8512
     doi.org/10.1039/D0CP00502A

List of suggested additional citations. These are papers that are important in the 'surrounding' of 
of this run, or papers that preceded the highly important papers. If you like your results we are grateful for a citation.

  1. Neese,F.
     The ORCA program system
     WIRES Comput. Molec. Sci., 2012 2(1)73-78
     doi.org/10.1002/wcms.81
  2. Neese,F.
     Software update: the ORCA program system, version 4.0
     WIRES Comput. Molec. Sci., 2018 8(1)1-6
     doi.org/10.1002/wcms.1327
  3. Neese,F.; Wennmohs,F.; Becker,U.; Riplinger,C.
     The ORCA quantum chemistry program package
     J. Chem. Phys., 2020 152 Art. No. L224108
     doi.org/10.1063/5.0004608

List of optional additional citations

  1. Neese,F.
     Approximate second-order SCF convergence for spin unrestricted wavefunctions
     Chem. Phys. Lett., 2000 325(1-3)93-98
     doi.org/10.1016/s0009-2614(00)00662-x

Timings for individual modules:

Sum of individual times          ...       11.772 sec (=   0.196 min)
Startup calculation              ...        0.936 sec (=   0.016 min)   8.0 %
SCF iterations                   ...       10.742 sec (=   0.179 min)  91.2 %
Property calculations            ...        0.094 sec (=   0.002 min)   0.8 %
                             ****ORCA TERMINATED NORMALLY****
TOTAL RUN TIME: 0 days 0 hours 0 minutes 12 seconds 452 msec
