      -----------------------------------------------------------      
     |                   =====================                   |     
     |                           x T B                           |     
     |                   =====================                   |     
     |                         S. Grimme                         |     
     |          Mulliken Center for Theoretical Chemistry        |     
     |                    University of Bonn                     |     
      -----------------------------------------------------------      

   * xtb version 6.7.1 (edcfbbe) compiled by 'albert@albert-system' on 2024-07-22

   xtb is free software: you can redistribute it and/or modify it under
   the terms of the GNU Lesser General Public License as published by
   the Free Software Foundation, either version 3 of the License, or
   (at your option) any later version.
   
   xtb is distributed in the hope that it will be useful,
   but WITHOUT ANY WARRANTY; without even the implied warranty of
   MERCHANTABILITY or FITNESS FOR A PARTICULAR PURPOSE.  See the
   GNU Lesser General Public License for more details.
   
   Cite this work as:
   * C. Bannwarth, E. Caldeweyher, S. Ehlert, A. Hansen, P. Pracht,
     J. Seibert, S. Spicher, S. Grimme, WIREs Comput. Mol. Sci., 2020, 11,
     e01493. DOI: 10.1002/wcms.1493
   
   for GFN2-xTB:
   * C. Bannwarth, S. Ehlert and S. Grimme., J. Chem. Theory Comput., 2019,
     15, 1652-1671. DOI: 10.1021/acs.jctc.8b01176
   for GFN1-xTB:
   * S. Grimme, C. Bannwarth, P. Shushkov, J. Chem. Theory Comput., 2017,
     13, 1989-2009. DOI: 10.1021/acs.jctc.7b00118
   for GFN0-xTB:
   * P. Pracht, E. Caldeweyher, S. Ehlert, S. Grimme, ChemRxiv, 2019, preprint.
     DOI: 10.26434/chemrxiv.8326202.v1
   for GFN-FF:
   * S. Spicher and S. Grimme, Angew. Chem. Int. Ed., 2020, 59, 15665-15673.
     DOI: 10.1002/anie.202004239
   
   for ALPB and GBSA implicit solvation:
   * S. Ehlert, M. Stahn, S. Spicher, S. Grimme, J. Chem. Theory Comput.,
     2021, 17, 4250-4261. DOI: 10.1021/acs.jctc.1c00471
   
   for ddCOSMO and CPCM-X implicit solvation:
   * M. Stahn, S. Ehlert, S. Grimme, J. Phys. Chem. A,
     2023, XX, XXXX-XXXX. DOI: 10.1021/acs.jpca.3c04382
   
   for DFT-D4:
   * E. Caldeweyher, C. Bannwarth and S. Grimme, J. Chem. Phys., 2017,
     147, 034112. DOI: 10.1063/1.4993215
   * E. Caldeweyher, S. Ehlert, A. Hansen, H. Neugebauer, S. Spicher,
     C. Bannwarth and S. Grimme, J. Chem. Phys., 2019, 150, 154122.
     DOI: 10.1063/1.5090222
   * E. Caldeweyher, J.-M. Mewes, S. Ehlert and S. Grimme, Phys. Chem. Chem. Phys.
     2020, 22, 8499-8512. DOI: 10.1039/D0CP00502A
   
   for sTDA-xTB:
   * S. Grimme and C. Bannwarth, J. Chem. Phys., 2016, 145, 054103.
     DOI: 10.1063/1.4959605
   
   in the mass-spec context:
   * V. Asgeirsson, C. Bauer and S. Grimme, Chem. Sci., 2017, 8, 4879.
     DOI: 10.1039/c7sc00601b
   * J. Koopman and S. Grimme, ACS Omega 2019, 4, 12, 15120-15133.
     DOI: 10.1021/acsomega.9b02011
   
   for metadynamics refer to:
   * S. Grimme, J. Chem. Theory Comput., 2019, 155, 2847-2862
     DOI: 10.1021/acs.jctc.9b00143
   
   for SPH calculations refer to:
   * S. Spicher and S. Grimme, J. Chem. Theory Comput., 2021, 17, 1701-1714
     DOI: 10.1021/acs.jctc.0c01306
   
   for ONIOM refer to:
   * C. Plett, A. Katbashev, S. Ehlert, S. Grimme, M. Bursch,
     Phys. Chem. Chem. Phys., 2023, 25, 17860-17868. DOI: 10.1039/D3CP02178E
   
   for DIPRO refer to:
   * J. Kohn, N. Gildemeister, S. Grimme, D. Fazzi, A. Hansen,
     J. Chem. Phys., 2023, just accepted.
   
   for PTB refer to:
   * S. Grimme, M. Mueller, A. Hansen, J. Chem. Phys., 2023, 158, 124111.
     DOI: 10.1063/5.0137838
   
   with help from (in alphabetical order)
   P. Atkinson, C. Bannwarth, F. Bohle, G. Brandenburg, E. Caldeweyher
   M. Checinski, S. Dohm, S. Ehlert, S. Ehrlich, I. Gerasimov, C. Hölzer
   A. Katbashev, J. Kohn, J. Koopman, C. Lavigne, S. Lehtola, F. März, M. Müller,
   F. Musil, H. Neugebauer, J. Pisarek, C. Plett, P. Pracht, F. Pultar,
   J. Seibert, P. Shushkov, S. Spicher, M. Stahn, M. Steiner, T. Strunk,
   J. Stückrath, T. Rose, and J. Unsleber
   
 * started run on 2025/04/06 at 18:00:45.494     
   ID    Z sym.   atoms
    1    6 C      1, 2, 4, 6, 8, 10
    2    1 H      3, 5, 7, 9, 11, 18-24
    3    8 O      12-17

           -------------------------------------------------
          |                Calculation Setup                |
           -------------------------------------------------

          program call               : /srv/scratch/z5358697/.xtb/bin/xtb gas.coord --gfn2 --sp --chrg 0 --norestart --parallel 1
          hostname                   : k155
          coordinate file            : gas.coord
          omp threads                :                     1


           -------------------------------------------------
          |                 G F N 2 - x T B                 |
           -------------------------------------------------

        Reference                      10.1021/acs.jctc.8b01176
      * Hamiltonian:
        H0-scaling (s, p, d)           1.850000    2.230000    2.230000
        zeta-weighting                 0.500000
      * Dispersion:
        s8                             2.700000
        a1                             0.520000
        a2                             5.000000
        s9                             5.000000
      * Repulsion:
        kExp                           1.500000    1.000000
        rExp                           1.000000
      * Coulomb:
        alpha                          2.000000
        third order                    shell-resolved
        anisotropic                    true
        a3                             3.000000
        a5                             4.000000
        cn-shift                       1.200000
        cn-exp                         4.000000
        max-rad                        5.000000


          ...................................................
          :                      SETUP                      :
          :.................................................:
          :  # basis functions                  60          :
          :  # atomic orbitals                  60          :
          :  # shells                           36          :
          :  # electrons                        72          :
          :  max. iterations                   250          :
          :  Hamiltonian                  GFN2-xTB          :
          :  restarted?                      false          :
          :  GBSA solvation                  false          :
          :  PC potential                    false          :
          :  electronic temp.          300.0000000     K    :
          :  accuracy                    1.0000000          :
          :  -> integral cutoff          0.2500000E+02      :
          :  -> integral neglect         0.1000000E-07      :
          :  -> SCF convergence          0.1000000E-05 Eh   :
          :  -> wf. convergence          0.1000000E-03 e    :
          :  Broyden damping             0.4000000          :
          :  net charge                          0          :
          :  unpaired electrons                  0          :
          ...................................................

 iter      E             dE          RMSdq      gap      omega  full diag
   1    -43.6240741 -0.436241E+02  0.460E+00   10.44       0.0  T
   2    -43.6556486 -0.315745E-01  0.254E+00   10.30       1.0  T
   3    -43.6568617 -0.121314E-02  0.666E-01   10.23       1.0  T
   4    -43.6575853 -0.723533E-03  0.141E-01   10.22       1.0  T
   5    -43.6576430 -0.577484E-04  0.514E-02   10.25       1.0  T
   6    -43.6576538 -0.108359E-04  0.193E-02   10.26       1.1  T
   7    -43.6576545 -0.653144E-06  0.551E-03   10.26       3.7  T
   8    -43.6576547 -0.243161E-06  0.162E-03   10.26      12.6  T
   9    -43.6576547 -0.506261E-08  0.614E-04   10.26      33.3  T
  10    -43.6576547 -0.231650E-08  0.201E-04   10.26     101.5  T

   *** convergence criteria satisfied after 10 iterations ***

         #    Occupation            Energy/Eh            Energy/eV
      -------------------------------------------------------------
         1        2.0000           -0.7215915             -19.6355
       ...           ...                  ...                  ...
        30        2.0000           -0.4522985             -12.3077
        31        2.0000           -0.4431894             -12.0598
        32        2.0000           -0.4350558             -11.8385
        33        2.0000           -0.4306653             -11.7190
        34        2.0000           -0.4279828             -11.6460
        35        2.0000           -0.4022269             -10.9452
        36        2.0000           -0.3944485             -10.7335 (HOMO)
        37                         -0.0174580              -0.4751 (LUMO)
        38                         -0.0085128              -0.2316
        39                          0.0186013               0.5062
        40                          0.0263630               0.7174
        41                          0.0425829               1.1587
       ...                                ...                  ...
        60                          0.3065390               8.3413
      -------------------------------------------------------------
                  HL-Gap            0.3769906 Eh           10.2584 eV
             Fermi-level           -0.2059532 Eh           -5.6043 eV

 SCC (total)                   0 d,  0 h,  0 min,  0.031 sec
 SCC setup                      ...        0 min,  0.000 sec (  0.596%)
 Dispersion                     ...        0 min,  0.000 sec (  0.484%)
 classical contributions        ...        0 min,  0.000 sec (  0.085%)
 integral evaluation            ...        0 min,  0.003 sec (  8.894%)
 iterations                     ...        0 min,  0.020 sec ( 64.586%)
 molecular gradient             ...        0 min,  0.008 sec ( 24.855%)
 printout                       ...        0 min,  0.000 sec (  0.455%)

         :::::::::::::::::::::::::::::::::::::::::::::::::::::
         ::                     SUMMARY                     ::
         :::::::::::::::::::::::::::::::::::::::::::::::::::::
         :: total energy             -43.356709990236 Eh    ::
         :: gradient norm              0.015467026106 Eh/a0 ::
         :: HOMO-LUMO gap             10.258435295367 eV    ::
         ::.................................................::
         :: SCC energy               -43.657465665301 Eh    ::
         :: -> isotropic ES            0.137573074064 Eh    ::
         :: -> anisotropic ES         -0.002828261787 Eh    ::
         :: -> anisotropic XC         -0.009976934873 Eh    ::
         :: -> dispersion             -0.020688955941 Eh    ::
         :: repulsion energy           0.300755675065 Eh    ::
         :: add. restraining           0.000000000000 Eh    ::
         :: total charge               0.000000000000 e     ::
         :::::::::::::::::::::::::::::::::::::::::::::::::::::

           -------------------------------------------------
          |                Property Printout                |
           -------------------------------------------------

    * Orbital Energies and Occupations

         #    Occupation            Energy/Eh            Energy/eV
      -------------------------------------------------------------
         1        2.0000           -0.7215915             -19.6355
       ...           ...                  ...                  ...
        24        2.0000           -0.5085450             -13.8382
        25        2.0000           -0.4970878             -13.5264
        26        2.0000           -0.4921659             -13.3925
        27        2.0000           -0.4907500             -13.3540
        28        2.0000           -0.4771234             -12.9832
        29        2.0000           -0.4532645             -12.3340
        30        2.0000           -0.4522985             -12.3077
        31        2.0000           -0.4431894             -12.0598
        32        2.0000           -0.4350558             -11.8385
        33        2.0000           -0.4306653             -11.7190
        34        2.0000           -0.4279828             -11.6460
        35        2.0000           -0.4022269             -10.9452
        36        2.0000           -0.3944485             -10.7335 (HOMO)
        37                         -0.0174580              -0.4751 (LUMO)
        38                         -0.0085128              -0.2316
        39                          0.0186013               0.5062
        40                          0.0263630               0.7174
        41                          0.0425829               1.1587
        42                          0.0621086               1.6901
        43                          0.0661874               1.8010
        44                          0.0826888               2.2501
        45                          0.0992696               2.7013
        46                          0.1174740               3.1966
        47                          0.1242818               3.3819
       ...                                ...                  ...
        60                          0.3065390               8.3413
      -------------------------------------------------------------
                  HL-Gap            0.3769906 Eh           10.2584 eV
             Fermi-level           -0.2059532 Eh           -5.6043 eV

     #   Z          covCN         q      C6AA      α(0)
     1   6 C        3.672     0.072    19.601     6.345
     2   6 C        3.729     0.094    19.117     6.242
     3   1 H        0.924     0.066     2.134     2.285
     4   6 C        3.724     0.089    19.200     6.257
     5   1 H        0.924     0.059     2.215     2.327
     6   6 C        3.726     0.104    18.973     6.219
     7   1 H        0.923     0.066     2.129     2.282
     8   6 C        3.725     0.091    19.167     6.251
     9   1 H        0.923     0.042     2.419     2.432
    10   6 C        3.610     0.244    17.267     6.001
    11   1 H        0.922     0.017     2.787     2.611
    12   8 O        1.699    -0.339    19.695     5.992
    13   8 O        1.657    -0.442    21.671     6.284
    14   8 O        1.656    -0.445    21.751     6.296
    15   8 O        1.655    -0.449    21.823     6.306
    16   8 O        1.655    -0.448    21.796     6.302
    17   8 O        1.655    -0.435    21.547     6.266
    18   1 H        0.924     0.028     2.610     2.526
    19   1 H        0.924     0.037     2.494     2.470
    20   1 H        0.804     0.310     0.691     1.306
    21   1 H        0.805     0.298     0.728     1.340
    22   1 H        0.803     0.329     0.641     1.258
    23   1 H        0.804     0.315     0.677     1.292
    24   1 H        0.805     0.298     0.728     1.340

 Mol. C6AA /au·bohr⁶  :       4708.489964
 Mol. C8AA /au·bohr⁸  :     100001.741525
 Mol. α(0) /au        :         98.230880


Wiberg/Mayer (AO) data.
largest (>0.10) Wiberg bond orders for each atom

 ---------------------------------------------------------------------------
     #   Z sym  total        # sym  WBO       # sym  WBO       # sym  WBO
 ---------------------------------------------------------------------------
     1   6 C    3.958 --    17 O    0.994     2 C    0.982    18 H    0.971
                            19 H    0.969
     2   6 C    3.947 --     1 C    0.982     4 C    0.963    12 O    0.963
                             3 H    0.955
     3   1 H    0.996 --     2 C    0.955
     4   6 C    3.962 --    16 O    1.005     2 C    0.963     6 C    0.962
                             5 H    0.959
     5   1 H    0.997 --     4 C    0.959
     6   6 C    3.965 --    15 O    1.022     4 C    0.962     8 C    0.961
                             7 H    0.956
     7   1 H    0.996 --     6 C    0.956
     8   6 C    3.951 --    14 O    0.992     6 C    0.961     9 H    0.959
                            10 C    0.956
     9   1 H    0.998 --     8 C    0.959
    10   6 C    3.935 --    13 O    1.000    12 O    0.975     8 C    0.956
                            11 H    0.946
    11   1 H    1.000 --    10 C    0.946
    12   8 O    2.090 --    10 C    0.975     2 C    0.963
    13   8 O    1.985 --    10 C    1.000    20 H    0.885
    14   8 O    1.970 --     8 C    0.992    21 H    0.892
    15   8 O    1.965 --     6 C    1.022    22 H    0.847
    16   8 O    1.961 --     4 C    1.005    23 H    0.873
    17   8 O    1.976 --     1 C    0.994    24 H    0.894
    18   1 H    0.999 --     1 C    0.971
    19   1 H    0.999 --     1 C    0.969
    20   1 H    0.904 --    13 O    0.885
    21   1 H    0.911 --    14 O    0.892
    22   1 H    0.892 --    15 O    0.847
    23   1 H    0.901 --    16 O    0.873
    24   1 H    0.911 --    17 O    0.894
 ---------------------------------------------------------------------------

Topologies differ in total number of bonds
Writing topology from bond orders to xtbtopo.mol

molecular dipole:
                 x           y           z       tot (Debye)
 q only:       -0.248      -1.132      -0.025
   full:       -0.245      -1.799       0.042       4.617
molecular quadrupole (traceless):
                xx          xy          yy          xz          yz          zz
 q only:       10.162       2.379      -4.201       7.321       2.515      -5.962
  q+dip:       15.588       2.890      -3.677      10.044       1.527     -11.911
   full:       15.157       3.042      -4.678      10.525       2.355     -10.479


           -------------------------------------------------
          | TOTAL ENERGY              -43.356709990236 Eh   |
          | GRADIENT NORM               0.015467026106 Eh/α |
          | HOMO-LUMO GAP              10.258435295367 eV   |
           -------------------------------------------------

------------------------------------------------------------------------
 * finished run on 2025/04/06 at 18:00:45.555     
------------------------------------------------------------------------
 total:
 * wall-time:     0 d,  0 h,  0 min,  0.060 sec
 *  cpu-time:     0 d,  0 h,  0 min,  0.028 sec
 * ratio c/w:     0.470 speedup
 SCF:
 * wall-time:     0 d,  0 h,  0 min,  0.031 sec
 *  cpu-time:     0 d,  0 h,  0 min,  0.019 sec
 * ratio c/w:     0.625 speedup

