
                                 *****************
                                 * O   R   C   A *
                                 *****************

                                            #,                                       
                                            ###                                      
                                            ####                                     
                                            #####                                    
                                            ######                                   
                                           ########,                                 
                                     ,,################,,,,,                         
                               ,,#################################,,                 
                          ,,##########################################,,             
                       ,#########################################, ''#####,          
                    ,#############################################,,   '####,        
                  ,##################################################,,,,####,       
                ,###########''''           ''''###############################       
              ,#####''   ,,,,##########,,,,          '''####'''          '####       
            ,##' ,,,,###########################,,,                        '##       
           ' ,,###''''                  '''############,,,                           
         ,,##''                                '''############,,,,        ,,,,,,###''
      ,#''                                            '''#######################'''  
     '                                                          ''''####''''         
             ,#######,   #######,   ,#######,      ##                                
            ,#'     '#,  ##    ##  ,#'     '#,    #''#        ,####,   ,####,        
            ##       ##  ##   ,#'  ##            #'  '#       #'       #'  '#        
            ##       ##  #######   ##           ,######,      #####,   #    #        
            '#,     ,#'  ##    ##  '#,     ,#' ,#      #,     #,   #   #,  ,#        
             '#######'   ##     ##  '#######'  #'      '#     '####' # '####'        



                #########################################################
                #                        -***-                          #
                #          Department of theory and spectroscopy        #
                #                                                       #
                #                      Frank Neese                      #
                #                                                       #
                #     Directorship, Architecture, Infrastructure        #
                #                    SHARK, DRIVERS                     #
                #        Core code/Algorithms in most modules           #
                #                                                       #
                #        Max Planck Institute fuer Kohlenforschung      #
                #                Kaiser Wilhelm Platz 1                 #
                #                 D-45470 Muelheim/Ruhr                 #
                #                      Germany                          #
                #                                                       #
                #                  All rights reserved                  #
                #                        -***-                          #
                #########################################################


                         Program Version 6.0.0  -   RELEASE  -


 With contributions from (in alphabetic order):
   Daniel Aravena         : Magnetic Suceptibility
   Michael Atanasov       : Ab Initio Ligand Field Theory (pilot matlab implementation)
   Alexander A. Auer      : GIAO ZORA, VPT2 properties, NMR spectrum
   Ute Becker             : All parallelization in ORCA, NUMFREQ, NUMCALC
   Giovanni Bistoni       : ED, misc. LED, open-shell LED, HFLD
   Martin Brehm           : Molecular dynamics
   Dmytro Bykov           : pre 5.0 version of the SCF Hessian
   Marcos Casanova-Páez   : Triplet and SCS-CIS(D). UHF-(DLPNO)-IP/EA/STEOM-CCSD. UHF-CVS-IP/STEOM-CCSD
   Vijay G. Chilkuri      : MRCI spin determinant printing, contributions to CSF-ICE
   Pauline Colinet        : FMM embedding
   Dipayan Datta          : RHF DLPNO-CCSD density
   Achintya Kumar Dutta   : EOM-CC, STEOM-CC
   Nicolas Foglia         : Exact transition moments, OPA infrastructure, MCD improvements
   Dmitry Ganyushin       : Spin-Orbit,Spin-Spin,Magnetic field MRCI
   Miquel Garcia          : C-PCM and meta-GGA Hessian, CCSD/C-PCM, Gaussian charge scheme
   Tiago L. C. Gouveia    : GS-ROHF, GS-ROCIS
   Yang Guo               : DLPNO-NEVPT2, F12-NEVPT2, CIM, IAO-localization
   Andreas Hansen         : Spin unrestricted coupled pair/coupled cluster methods
   Ingolf Harden          : AUTO-CI MPn and infrastructure 
   Benjamin Helmich-Paris : MC-RPA, TRAH-(SCF,CASSCF), AVAS, COSX integrals, SCF dyn. polar.
   Lee Huntington         : MR-EOM, pCC
   Robert Izsak           : Overlap fitted RIJCOSX, COSX-SCS-MP3, EOM
   Riya Kayal             : Wick's Theorem for AUTO-CI, AUTO-CI UHF-CCSDT
   Emily Kempfer          : AUTO-CI, RHF CISDT and CCSDT
   Christian Kollmar      : KDIIS, OOCD, Brueckner-CCSD(T), CCSD density, CASPT2, CASPT2-K, improved NEVPT2
   Axel Koslowski         : Symmetry handling
   Simone Kossmann        : Meta GGA functionals, TD-DFT gradient, OOMP2, (MP2 Hessian; deprecated post 5.0)
   Lucas Lang             : DCDCAS
   Marvin Lechner         : AUTO-CI (C++ implementation), FIC-MRCC
   Spencer Leger          : CASSCF response
   Dagmar Lenk            : GEPOL surface, SMD, ORCA-2-JSON
   Dimitrios Liakos       : Extrapolation schemes; Compound Job, initial MDCI parallelization
   Dimitrios Manganas     : Further ROCIS development; embedding schemes. LFT, Crystal Embedding
   Dimitrios Pantazis     : SARC Basis sets
   Anastasios Papadopoulos: AUTO-CI, single reference methods and gradients
   Taras Petrenko         : pre 6.0 DFT Hessian and TD-DFT gradient, (ASA, deprecated), ECA, 1-Electron XAS/XES, NRVS
   Peter Pinski           : DLPNO-MP2, DLPNO-MP2 Gradient
   Christoph Reimann      : Effective Core Potentials
   Marius Retegan         : Local ZFS, SOC
   Christoph Riplinger    : Optimizer, TS searches, QM/MM, DLPNO-CCSD(T), (RO)-DLPNO pert. Triples
   Michael Roemelt        : Original ROCIS implementation
   Masaaki Saitow         : Open-shell DLPNO-CCSD energy and density
   Barbara Sandhoefer     : DKH picture change effects
   Kantharuban Sivalingam : CASSCF convergence/infrastructure, NEVPT2 and variants, FIC-MRCI
   Bernardo de Souza      : ESD, SOC TD-DFT
   Georgi Stoychev        : AutoAux, RI-MP2 NMR, DLPNO-MP2 response, X2C
   Van Anh Tran           : RI-MP2 g-tensors
   Willem Van den Heuvel  : Paramagnetic NMR
   Zikuan Wang            : NOTCH, Electric field optimization 
   Frank Wennmohs         : Technical directorship and infrastructure
   Hang Xu                : AUTO-CI-Response properties 


 We gratefully acknowledge several colleagues who have allowed us to
 interface, adapt or use parts of their codes:
   Stefan Grimme, W. Hujo, H. Kruse, P. Pracht,  : VdW corrections, initial TS optimization,
                  C. Bannwarth, S. Ehlert,         DFT functionals, gCP, sTDA/sTD-DF
                  L. Wittmann, M. Mueller
   Ed Valeev, F. Pavosevic, A. Kumar             : LibInt (2-el integral package), F12 methods
   Garnet Chan, S. Sharma, J. Yang, R. Olivares  : DMRG
   Ulf Ekstrom                                   : XCFun DFT Library
   Mihaly Kallay                                 : mrcc  (arbitrary order and MRCC methods)
   Frank Weinhold                                : gennbo (NPA and NBO analysis)
   Simon Mueller                                 : openCOSMO-RS
   Christopher J. Cramer and Donald G. Truhlar   : smd solvation model
   Lars Goerigk                                  : TD-DFT with DH, B97 family of functionals
   V. Asgeirsson, H. Jonsson                     : NEB implementation
   FAccTs GmbH                                   : IRC, NEB, NEB-TS, DLPNO-Multilevel, CI-OPT
                                                   MM, QMMM, 2- and 3-layer-ONIOM, Crystal-QMMM,
                                                   LR-CPCM, SF, NACMEs, symmetry and pop. for TD-DFT,
                                                   nearIR, NL-DFT gradient (VV10), updates on ESD,
                                                   ML-optimized integration grids, MBIS, APM,
                                                   GOAT, DOCKER, SOLVATOR, interface openCOSMO-RS
   S Lehtola, MJT Oliveira, MAL Marques          : LibXC Library
   Liviu Ungur et al                             : ANISO software


 Your calculation uses the libint2 library for the computation of 2-el integrals
 For citations please refer to: http://libint.valeyev.net

 Your ORCA version has been built with support for libXC version: 6.2.2
 For citations please refer to: https://libxc.gitlab.io

 This ORCA versions uses:
   CBLAS   interface :  Fast vector & matrix operations
   LAPACKE interface :  Fast linear algebra routines
   SCALAPACK package :  Parallel linear algebra routines
   Shared memory     :  Shared parallel matrices
   BLAS/LAPACK       :  OpenBLAS 0.3.27  USE64BITINT DYNAMIC_ARCH NO_AFFINITY SkylakeX SINGLE_THREADED
        Core in use  :  SkylakeX
   Copyright (c) 2011-2014, The OpenBLAS Project


Your calculation utilizes the geometrical counterpoise correction gCP
Please cite in your paper:
H.Kruse, S. Grimme J.Chem.Phys., 136, (2012), 154101 
   

Your calculation utilizes the atom-pairwise dispersion correction
based on EEQ partial charges (D4)


================================================================================

----- Orbital basis set information -----
Your calculation utilizes the basis: def2-SV(P)
   F. Weigend and R. Ahlrichs, Phys. Chem. Chem. Phys. 7, 3297 (2005).

----- AuxJ basis set information -----
Your calculation utilizes the auxiliary basis: def2/J
   F. Weigend, Phys. Chem. Chem. Phys. 8, 1057 (2006).

================================================================================
                                        WARNINGS
                       Please study these warnings very carefully!
================================================================================


================================================================================
                                       INPUT FILE
================================================================================
NAME = sp.inp
|  1> ! pbe def2-sv(p) def2/J RI DEFGRID1 loosescf d4 GCP(DFT/SV(P)) printgap
|  2> %output
|  3>     printlevel normal
|  4> end
|  5> * xyz 0 1
|  6> C -1.74970513 -1.382490126 -0.4807967434
|  7> C -1.133941597 -0.4820980422 0.6079266116
|  8> H -1.8403296828 -0.3767765743 1.4394558499
|  9> C -0.846890894 0.9368401839 0.0779600429
| 10> H -1.1204380119 0.9839648309 -0.9884383516
| 11> C 0.6483017265 1.262149679 0.2238009412
| 12> H 0.8782027535 1.3560474949 1.2927340125
| 13> C 1.4613055284 0.1098486136 -0.3777266131
| 14> H 1.1465264821 -0.0696838151 -1.412719286
| 15> C 1.1749930547 -1.1751326107 0.4318968034
| 16> H 1.9719244901 -1.3122666175 1.178627784
| 17> O 0.0042825335 -1.0834477722 1.2115205291
| 18> O 1.1433828563 -2.2456531914 -0.4572429582
| 19> O 2.8306884317 0.3918576719 -0.4561105305
| 20> O 0.9626353778 2.5090630821 -0.3397630258
| 21> O -1.6377731592 1.8462840269 0.8061676001
| 22> O -2.8676522357 -0.7960174884 -1.093899894
| 23> H -2.0032827297 -2.3505355396 -0.0319704626
| 24> H -1.0210383187 -1.5498814399 -1.2771821527
| 25> H 1.1422697583 -3.087766399 0.0229458451
| 26> H 3.1538910842 0.7244854557 0.3945027927
| 27> H 1.0073330845 2.4348761523 -1.3041123914
| 28> H -1.3479120223 2.7473013483 0.5953695214
| 29> H -3.5671136347 -0.6649406837 -0.438026844
| 30> *
| 31> 
| 32>                          ****END OF INPUT****
================================================================================

                       ****************************
                       * Single Point Calculation *
                       ****************************

---------------------------------
CARTESIAN COORDINATES (ANGSTROEM)
---------------------------------
  C     -1.749705   -1.382490   -0.480797
  C     -1.133942   -0.482098    0.607927
  H     -1.840330   -0.376777    1.439456
  C     -0.846891    0.936840    0.077960
  H     -1.120438    0.983965   -0.988438
  C      0.648302    1.262150    0.223801
  H      0.878203    1.356047    1.292734
  C      1.461306    0.109849   -0.377727
  H      1.146526   -0.069684   -1.412719
  C      1.174993   -1.175133    0.431897
  H      1.971924   -1.312267    1.178628
  O      0.004283   -1.083448    1.211521
  O      1.143383   -2.245653   -0.457243
  O      2.830688    0.391858   -0.456111
  O      0.962635    2.509063   -0.339763
  O     -1.637773    1.846284    0.806168
  O     -2.867652   -0.796017   -1.093900
  H     -2.003283   -2.350536   -0.031970
  H     -1.021038   -1.549881   -1.277182
  H      1.142270   -3.087766    0.022946
  H      3.153891    0.724485    0.394503
  H      1.007333    2.434876   -1.304112
  H     -1.347912    2.747301    0.595370
  H     -3.567114   -0.664941   -0.438027

----------------------------
CARTESIAN COORDINATES (A.U.)
----------------------------
  NO LB      ZA    FRAG     MASS         X           Y           Z
   0 C     6.0000    0    12.011   -3.306464   -2.612528   -0.908574
   1 C     6.0000    0    12.011   -2.142839   -0.911033    1.148815
   2 H     1.0000    0     1.008   -3.477719   -0.712005    2.720177
   3 C     6.0000    0    12.011   -1.600392    1.770371    0.147323
   4 H     1.0000    0     1.008   -2.117321    1.859424   -1.867878
   5 C     6.0000    0    12.011    1.225113    2.385117    0.422922
   6 H     1.0000    0     1.008    1.659563    2.562558    2.442913
   7 C     6.0000    0    12.011    2.761467    0.207584   -0.713800
   8 H     1.0000    0     1.008    2.166621   -0.131683   -2.669653
   9 C     6.0000    0    12.011    2.220415   -2.220679    0.816167
  10 H     1.0000    0     1.008    3.726397   -2.479825    2.227284
  11 O     8.0000    0    15.999    0.008093   -2.047420    2.289442
  12 O     8.0000    0    15.999    2.160680   -4.243670   -0.864064
  13 O     8.0000    0    15.999    5.349226    0.740504   -0.861924
  14 O     8.0000    0    15.999    1.819117    4.741442   -0.642059
  15 O     8.0000    0    15.999   -3.094943    3.488971    1.523436
  16 O     8.0000    0    15.999   -5.419077   -1.504255   -2.067171
  17 H     1.0000    0     1.008   -3.785656   -4.441868   -0.060415
  18 H     1.0000    0     1.008   -1.929483   -2.928851   -2.413524
  19 H     1.0000    0     1.008    2.158577   -5.835033    0.043361
  20 H     1.0000    0     1.008    5.959990    1.369079    0.745502
  21 H     1.0000    0     1.008    1.903584    4.601249   -2.464415
  22 H     1.0000    0     1.008   -2.547185    5.191647    1.125085
  23 H     1.0000    0     1.008   -6.740868   -1.256556   -0.827751

--------------------------------
INTERNAL COORDINATES (ANGSTROEM)
--------------------------------
 C      0   0   0     0.000000000000     0.00000000     0.00000000
 C      1   0   0     1.541164876600     0.00000000     0.00000000
 H      2   1   0     1.096137588767   109.54528257     0.00000000
 C      2   1   3     1.541638206429   111.67095725   241.64887063
 H      4   2   1     1.101932073160   109.01540019   358.18377091
 C      4   2   1     1.537106635083   110.07790913   238.76984244
 H      6   4   2     1.097401108513   108.31920500   291.37634620
 C      6   4   2     1.533169372838   108.63442080    50.35457668
 H      8   6   4     1.096598182518   109.94586410    54.88072594
 C      8   6   4     1.545523101071   108.73046285   297.11876159
 H     10   8   6     1.100687333414   108.95647040   263.13330521
 O     10   8   6     1.409532684166   112.92525081    17.59958682
 O     10   8   6     1.391970917082   107.99959219   142.79304944
 O      8   6   4     1.400315208559   112.90249474   171.91710383
 O      6   4   2     1.403995378935   111.57102891   175.61849228
 O      4   2   1     1.408143851793   108.18510652   117.15774154
 O      1   2   3     1.403442681078   112.50331081    66.28612977
 H      1   2   3     1.096749083518   108.59960257   302.61012296
 H      1   2   3     1.092339184505   109.75724996   184.14422037
 H     13  10   8     0.969400423053   110.59150180   168.77698130
 H     14   8   6     0.968836530455   110.25670477    49.57891432
 H     15   6   4     0.968231007803   110.00351972   282.66383959
 H     16   4   2     0.969684238364   108.65089183   169.75754040
 H     17   1   2     0.967779331841   109.64917464   297.20798617

---------------------------
INTERNAL COORDINATES (A.U.)
---------------------------
 C      0   0   0     0.000000000000     0.00000000     0.00000000
 C      1   0   0     2.912379543992     0.00000000     0.00000000
 H      2   1   0     2.071399847867   109.54528257     0.00000000
 C      2   1   3     2.913274007740   111.67095725   241.64887063
 H      4   2   1     2.082349836456   109.01540019   358.18377091
 C      4   2   1     2.904710578940   110.07790913   238.76984244
 H      6   4   2     2.073787554151   108.31920500   291.37634620
 C      6   4   2     2.897270231579   108.63442080    50.35457668
 H      8   6   4     2.072270243914   109.94586410    54.88072594
 C      8   6   4     2.920615394673   108.73046285   297.11876159
 H     10   8   6     2.079997619228   108.95647040   263.13330521
 O     10   8   6     2.663630749886   112.92525081    17.59958682
 O     10   8   6     2.630443819669   107.99959219   142.79304944
 O      8   6   4     2.646212245341   112.90249474   171.91710383
 O      6   4   2     2.653166759478   111.57102891   175.61849228
 O      4   2   1     2.661006237053   108.18510652   117.15774154
 O      1   2   3     2.652122311894   112.50331081    66.28612977
 H      1   2   3     2.072555405479   108.59960257   302.61012296
 H      1   2   3     2.064221904065   109.75724996   184.14422037
 H     13  10   8     1.831901313678   110.59150180   168.77698130
 H     14   8   6     1.830835711098   110.25670477    49.57891432
 H     15   6   4     1.829691439118   110.00351972   282.66383959
 H     16   4   2     1.832437646888   108.65089183   169.75754040
 H     17   1   2     1.828837895248   109.64917464   297.20798617

---------------------
BASIS SET INFORMATION
---------------------
There are 3 groups of distinct atoms

 Group   1 Type C   : 7s4p1d contracted to 3s2p1d pattern {511/31/1}
 Group   2 Type H   : 4s contracted to 2s pattern {31}
 Group   3 Type O   : 7s4p1d contracted to 3s2p1d pattern {511/31/1}

Atom   0C    basis set group =>   1
Atom   1C    basis set group =>   1
Atom   2H    basis set group =>   2
Atom   3C    basis set group =>   1
Atom   4H    basis set group =>   2
Atom   5C    basis set group =>   1
Atom   6H    basis set group =>   2
Atom   7C    basis set group =>   1
Atom   8H    basis set group =>   2
Atom   9C    basis set group =>   1
Atom  10H    basis set group =>   2
Atom  11O    basis set group =>   3
Atom  12O    basis set group =>   3
Atom  13O    basis set group =>   3
Atom  14O    basis set group =>   3
Atom  15O    basis set group =>   3
Atom  16O    basis set group =>   3
Atom  17H    basis set group =>   2
Atom  18H    basis set group =>   2
Atom  19H    basis set group =>   2
Atom  20H    basis set group =>   2
Atom  21H    basis set group =>   2
Atom  22H    basis set group =>   2
Atom  23H    basis set group =>   2
---------------------------------
AUXILIARY/J BASIS SET INFORMATION
---------------------------------
There are 3 groups of distinct atoms

 Group   1 Type C   : 12s5p4d2f1g contracted to 6s4p3d1f1g pattern {711111/2111/211/2/1}
 Group   2 Type H   : 5s2p1d contracted to 3s1p1d pattern {311/2/1}
 Group   3 Type O   : 12s5p4d2f1g contracted to 6s4p3d1f1g pattern {711111/2111/211/2/1}

Atom   0C    basis set group =>   1
Atom   1C    basis set group =>   1
Atom   2H    basis set group =>   2
Atom   3C    basis set group =>   1
Atom   4H    basis set group =>   2
Atom   5C    basis set group =>   1
Atom   6H    basis set group =>   2
Atom   7C    basis set group =>   1
Atom   8H    basis set group =>   2
Atom   9C    basis set group =>   1
Atom  10H    basis set group =>   2
Atom  11O    basis set group =>   3
Atom  12O    basis set group =>   3
Atom  13O    basis set group =>   3
Atom  14O    basis set group =>   3
Atom  15O    basis set group =>   3
Atom  16O    basis set group =>   3
Atom  17H    basis set group =>   2
Atom  18H    basis set group =>   2
Atom  19H    basis set group =>   2
Atom  20H    basis set group =>   2
Atom  21H    basis set group =>   2
Atom  22H    basis set group =>   2
Atom  23H    basis set group =>   2
------------------------------------------------------------------------------
                             ORCA STARTUP CALCULATIONS
                           -- RI-GTO INTEGRALS CHOSEN --
------------------------------------------------------------------------------
------------------------------------------------------------------------------
                   ___                                                        
                  /   \      - P O W E R E D   B Y -                         
                 /     \                                                     
                 |  |  |   _    _      __       _____    __    __             
                 |  |  |  | |  | |    /  \     |  _  \  |  |  /  |          
                  \  \/   | |  | |   /    \    | | | |  |  | /  /          
                 / \  \   | |__| |  /  /\  \   | |_| |  |  |/  /          
                |  |  |   |  __  | /  /__\  \  |    /   |      \           
                |  |  |   | |  | | |   __   |  |    \   |  |\   \          
                \     /   | |  | | |  |  |  |  | |\  \  |  | \   \       
                 \___/    |_|  |_| |__|  |__|  |_| \__\ |__|  \__/        
                                                                              
                      - O R C A' S   B I G   F R I E N D -                    
                                      &                                       
                       - I N T E G R A L  F E E D E R -                       
                                                                              
 v1 FN, 2020, v2 2021, v3 2022-2024                                           
------------------------------------------------------------------------------


----------------------
SHARK INTEGRAL PACKAGE
----------------------

Number of atoms                             ...     24
Number of basis functions                   ...    192
Number of shells                            ...     96
Maximum angular momentum                    ...      2
Integral batch strategy                     ... SHARK/LIBINT Hybrid
RI-J (if used) integral strategy            ... SPLIT-RIJ (Revised 2003 algorithm where possible)
Printlevel                                  ...      1
Contraction scheme used                     ... SEGMENTED contraction
Prescreening option                         ... SCHWARTZ
   Thresh                                   ... 1.000e-09
   Tcut                                     ... 1.000e-10
   Tpresel                                  ... 1.000e-10 
Coulomb Range Separation                    ... NOT USED
Exchange Range Separation                   ... NOT USED
Multipole approximations                    ... NOT USED
Finite Nucleus Model                        ... NOT USED
CABS basis                                  ... NOT available
Auxiliary Coulomb fitting basis             ... AVAILABLE
   # of basis functions in Aux-J            ...    720
   # of shells in Aux-J                     ...    240
   Maximum angular momentum in Aux-J        ...      4
Auxiliary J/K fitting basis                 ... NOT available
Auxiliary Correlation fitting basis         ... NOT available
Auxiliary 'external' fitting basis          ... NOT available

Checking pre-screening integrals            ... done (  0.0 sec) Dimension = 96
Check shell pair data                       ... done (  0.0 sec)
Shell pair information
Shell pair cut-off parameter TPreSel        ...   1.0e-10
Total number of shell pairs                 ...      4656
Shell pairs after pre-screening             ...      4201
Total number of primitive shell pairs       ...     18720
Primitive shell pairs kept                  ...     11328
          la=0 lb=0:   1634 shell pairs
          la=1 lb=0:   1335 shell pairs
          la=1 lb=1:    289 shell pairs
          la=2 lb=0:    615 shell pairs
          la=2 lb=1:    263 shell pairs
          la=2 lb=2:     65 shell pairs

Calculating one electron integrals          ... done (  0.0 sec)
Calculating RI/J V-Matrix + Cholesky decomp.... done (  0.1 sec)
Calculating Nuclear repulsion               ... done (  0.0 sec) ENN=    837.614296562521 Eh

Diagonalization of the overlap matrix:
Smallest eigenvalue                        ... 8.128e-04
Time for diagonalization                   ...    0.004 sec
Threshold for overlap eigenvalues          ... 1.000e-07
Number of eigenvalues below threshold      ... 0
Time for construction of square roots      ...    0.013 sec
Total time needed                          ...    0.024 sec

-------------------
DFT GRID GENERATION
-------------------

General Integration Accuracy     IntAcc      ... 4.159
Radial Grid Type                 RadialGrid  ... OptM3 with GC (2021)
Angular Grid (max. ang.)         AngularGrid ... 3 (Lebedev-194)
Angular grid pruning method      GridPruning ... 4 (adaptive)
Weight generation scheme         WeightScheme... mBecke (2022)
Basis function cutoff            BFCut       ... 1.0000e-10
Integration weight cutoff        WCut        ... 1.0000e-14
Partially contracted basis set               ... off
Rotationally invariant grid construction     ... off
Angular grids for H and He will be reduced by one unit

Total number of grid points                  ...    55695
Total number of batches                      ...      882
Average number of points per batch           ...       63
Average number of grid points per atom       ...     2321
Initializing property integral containers    ... done (  0.0 sec)

SHARK setup successfully completed in   0.9 seconds

Maximum memory used throughout the entire STARTUP-calculation: 28.1 MB
-------------------------------------------------------------------------------
                                 ORCA GUESS
                   Start orbitals & Density for SCF / CASSCF
-------------------------------------------------------------------------------

------------
SCF SETTINGS
------------
Hamiltonian:
 Density Functional     Method          .... DFT(GTOs)
 Exchange Functional    Exchange        .... PBE
   PBE kappa parameter   XKappa         ....  0.804000
   PBE mue parameter    XMuePBE         ....  0.219520
 Correlation Functional Correlation     .... PBE
   PBE beta parameter  CBetaPBE         ....  0.066725
 LDA part of GGA corr.  LDAOpt          .... PW91-LDA
 Gradients option       PostSCFGGA      .... off
   NL short-range parameter             ....  6.400000
 RI-approximation to the Coulomb term is turned on
   Number of AuxJ basis functions       .... 720


General Settings:
 Integral files         IntName         .... sp
 Hartree-Fock type      HFTyp           .... RHF
 Total Charge           Charge          ....    0
 Multiplicity           Mult            ....    1
 Number of Electrons    NEL             ....   96
 Basis Dimension        Dim             ....  192
 Nuclear Repulsion      ENuc            ....    837.6142965625 Eh

Convergence Acceleration:
 AO-DIIS                CNVDIIS         .... on
   Start iteration      DIISMaxIt       ....    12
   Startup error        DIISStart       ....  0.200000
   # of expansion vecs  DIISMaxEq       ....     5
   Bias factor          DIISBfac        ....   1.050
   Max. coefficient     DIISMaxC        ....  10.000
 MO-DIIS                CNVKDIIS        .... off
 Trust-Rad. Augm. Hess. CNVTRAH         .... auto
   Auto Start mean grad. ratio tolernc. ....  1.125000
   Auto Start start iteration           ....    50
   Auto Start num. interpolation iter.  ....    10
   Max. Number of Micro iterations      ....    24
   Max. Number of Macro iterations      .... Maxiter - #DIIS iter
   Number of Davidson start vectors     ....     2
   Converg. threshold    (grad. norm)   ....   1.000e-04
   Grad. Scal. Fac. for Micro threshold ....   0.100
   Minimum threshold for Micro iter.    ....   1.000e-02
   NR start threshold (gradient norm)   ....   1.000e-04
   Initial trust radius                 ....   0.400
   Minimum AH scaling param. (alpha)    ....   1.000
   Maximum AH scaling param. (alpha)    .... 1000.000
   Quad. conv. algorithm                .... NR
   White noise on init. David. guess    .... on
   Maximum white noise                  ....   0.010
   Pseudo random numbers                .... off
   Inactive MOs                         .... canonical
   Orbital update algorithm             .... Taylor
   Preconditioner                       .... Diag
   Full preconditioner red. dimension   ....   250
 SOSCF                  CNVSOSCF        .... on
   Start iteration      SOSCFMaxIt      ....   150
   Startup grad/error   SOSCFStart      ....  0.003300
   Hessian update       SOSCFHessUp     .... L-BFGS
 Level Shifting         CNVShift        .... on
   Level shift para.    LevelShift      ....    0.2500
   Turn off err/grad.   ShiftErr        ....    0.0010
 Zerner damping         CNVZerner       .... off
 Static damping         CNVDamp         .... on
   Fraction old density DampFac         ....    0.7000
   Max. Damping (<1)    DampMax         ....    0.9800
   Min. Damping (>=0)   DampMin         ....    0.0000
   Turn off err/grad.   DampErr         ....    0.1000

SCF Procedure:
 Maximum # iterations   MaxIter         ....   125
 SCF integral mode      SCFMode         .... Direct
   Integral package                     .... SHARK and LIBINT hybrid scheme
 Reset frequency        DirectResetFreq ....    20
 Integral Threshold     Thresh          ....  1.000e-09 Eh
 Primitive CutOff       TCut            ....  1.000e-10 Eh

Convergence Tolerance:
 Convergence Check Mode ConvCheckMode   .... Total+1el-Energy
 Convergence forced     ConvForced      .... 0
 Energy Change          TolE            ....  1.000e-05 Eh
 1-El. energy change                    ....  1.000e-02 Eh
 Orbital Gradient       TolG            ....  1.000e-04
 Orbital Rotation angle TolX            ....  1.000e-04
 DIIS Error             TolErr          ....  5.000e-04

------------------------------
INITIAL GUESS: MODEL POTENTIAL
------------------------------
Loading Hartree-Fock densities                     ... done
Calculating cut-offs                               ... done
Initializing the effective Hamiltonian             ... done
Setting up the integral package (SHARK)            ... done
Starting the Coulomb interaction                   ... done (   0.2 sec)
Making the grid                                    ... done (   0.3 sec)
Mapping shells                                     ... done
Starting the XC term evaluation                    ... done (   0.3 sec)
  promolecular density results
     # of electrons  =     95.992444632
     EX              =    -83.231540316
     EC              =     -3.268219428
     EX+EC           =    -86.499759743
Transforming the Hamiltonian                       ... done (   0.0 sec)
Diagonalizing the Hamiltonian                      ... done (   0.0 sec)
Back transforming the eigenvectors                 ... done (   0.0 sec)
Now organizing SCF variables                       ... done
                      ------------------
                      INITIAL GUESS DONE (   0.8 sec)
                      ------------------
             **** ENERGY FILE WAS UPDATED (sp.en.tmp) ****
Finished Guess after   1.0 sec
Maximum memory used throughout the entire GUESS-calculation: 21.8 MB

-------------------------------------------------------------------------------------------
                                      ORCA LEAN-SCF
                              memory conserving SCF solver
-------------------------------------------------------------------------------------------

----------------------------------------D-I-I-S--------------------------------------------
Iteration    Energy (Eh)           Delta-E    RMSDP     MaxDP     DIISErr   Damp  Time(sec)
-------------------------------------------------------------------------------------------
               ***  Starting incremental Fock matrix formation  ***
    1    -685.5114015102952862     0.00e+00  5.10e-03  1.63e-01  2.30e-01  0.700   1.3
    2    -685.6641183167181453    -1.53e-01  3.30e-03  1.13e-01  9.25e-02  0.700   1.2
                               ***Turning on AO-DIIS***
    3    -685.7123477986968965    -4.82e-02  1.14e-03  2.88e-02  1.92e-02  0.700   1.1
    4    -685.7445959062202974    -3.22e-02  1.46e-03  2.16e-02  1.16e-02  0.000   1.1
    5    -685.8190153194087770    -7.44e-02  4.63e-04  1.74e-02  6.06e-03  0.000   1.1
                              *** Initializing SOSCF ***
---------------------------------------S-O-S-C-F--------------------------------------
Iteration    Energy (Eh)           Delta-E    RMSDP     MaxDP     MaxGrad    Time(sec)
--------------------------------------------------------------------------------------
    6    -685.8193567395468335    -3.41e-04  1.42e-04  3.84e-03  1.12e-03     1.0
               *** Restarting incremental Fock matrix formation ***
    7    -685.8193853453977908    -2.86e-05  1.05e-04  2.96e-03  1.73e-04     1.2
    8    -685.8193842313183950     1.11e-06  4.21e-05  1.24e-03  2.49e-04     1.0
                 **** Energy Check signals convergence ****

               *****************************************************
               *                     SUCCESS                       *
               *           SCF CONVERGED AFTER   8 CYCLES          *
               *****************************************************

             **** ENERGY FILE WAS UPDATED (sp.en.tmp) ****

----------------
TOTAL SCF ENERGY
----------------

Total Energy       :       -685.81938423131839 Eh          -18662.09421 eV

Components:
Nuclear Repulsion  :        837.61429656252051 Eh           22792.64377 eV
Electronic Energy  :      -1523.43368079383890 Eh          -41454.73797 eV
One Electron Energy:      -2604.46104425448993 Eh          -70870.98803 eV
Two Electron Energy:       1081.02736346065103 Eh           29416.25005 eV

Virial components:
Potential Energy   :      -1366.93154153082969 Eh          -37196.09826 eV
Kinetic Energy     :        681.11215729951118 Eh           18534.00405 eV
Virial Ratio       :          2.00691108928443

DFT components:
N(Alpha)           :       48.000063473013 electrons
N(Beta)            :       48.000063473013 electrons
N(Total)           :       96.000126946027 electrons
E(X)               :      -84.600974557185 Eh       
E(C)               :       -3.281735153060 Eh       
E(XC)              :      -87.882709710245 Eh       

---------------
SCF CONVERGENCE
---------------

  Last Energy change         ...   -1.1141e-06  Tolerance :   1.0000e-05
  Last MAX-Density change    ...    1.2382e-03  Tolerance :   1.0000e-03
  Last RMS-Density change    ...    4.2107e-05  Tolerance :   1.0000e-04
  Last DIIS Error            ...    1.1233e-03  Tolerance :   5.0000e-04
  Last Orbital Gradient      ...    2.4889e-04  Tolerance :   1.0000e-04
  Last Orbital Rotation      ...    1.6737e-04  Tolerance :   1.0000e-04


----------------
ORBITAL ENERGIES
----------------

  NO   OCC          E(Eh)            E(eV) 
   0   2.0000     -18.770640      -510.7751 
   1   2.0000     -18.766583      -510.6647 
   2   2.0000     -18.761470      -510.5255 
   3   2.0000     -18.756052      -510.3781 
   4   2.0000     -18.751313      -510.2492 
   5   2.0000     -18.746247      -510.1113 
   6   2.0000      -9.989628      -271.8316 
   7   2.0000      -9.947231      -270.6779 
   8   2.0000      -9.944039      -270.5911 
   9   2.0000      -9.941927      -270.5336 
  10   2.0000      -9.937835      -270.4222 
  11   2.0000      -9.927733      -270.1474 
  12   2.0000      -0.981973       -26.7208 
  13   2.0000      -0.949472       -25.8364 
  14   2.0000      -0.932965       -25.3873 
  15   2.0000      -0.925978       -25.1971 
  16   2.0000      -0.917156       -24.9571 
  17   2.0000      -0.913235       -24.8504 
  18   2.0000      -0.703101       -19.1324 
  19   2.0000      -0.691952       -18.8290 
  20   2.0000      -0.620587       -16.8870 
  21   2.0000      -0.581787       -15.8312 
  22   2.0000      -0.579084       -15.7577 
  23   2.0000      -0.530981       -14.4487 
  24   2.0000      -0.504721       -13.7342 
  25   2.0000      -0.494192       -13.4476 
  26   2.0000      -0.470841       -12.8122 
  27   2.0000      -0.454461       -12.3665 
  28   2.0000      -0.446697       -12.1552 
  29   2.0000      -0.430919       -11.7259 
  30   2.0000      -0.420028       -11.4295 
  31   2.0000      -0.404524       -11.0076 
  32   2.0000      -0.384798       -10.4709 
  33   2.0000      -0.363573        -9.8933 
  34   2.0000      -0.360298        -9.8042 
  35   2.0000      -0.348289        -9.4774 
  36   2.0000      -0.336187        -9.1481 
  37   2.0000      -0.315116        -8.5747 
  38   2.0000      -0.306462        -8.3393 
  39   2.0000      -0.287665        -7.8278 
  40   2.0000      -0.282013        -7.6740 
  41   2.0000      -0.267903        -7.2900 
  42   2.0000      -0.261427        -7.1138 
  43   2.0000      -0.241846        -6.5810 
  44   2.0000      -0.239930        -6.5288 
  45   2.0000      -0.226568        -6.1652 
  46   2.0000      -0.209551        -5.7022 
  47   2.0000      -0.205659        -5.5963 
  48   0.0000       0.018947         0.5156 
  49   0.0000       0.024360         0.6629 
  50   0.0000       0.027264         0.7419 
  51   0.0000       0.031511         0.8574 
  52   0.0000       0.050221         1.3666 
  53   0.0000       0.058675         1.5966 
  54   0.0000       0.073393         1.9971 
  55   0.0000       0.083984         2.2853 
  56   0.0000       0.095141         2.5889 
  57   0.0000       0.107491         2.9250 
  58   0.0000       0.117943         3.2094 
*Only the first 10 virtual orbitals were printed.

                    ********************************
                    * MULLIKEN POPULATION ANALYSIS *
                    ********************************

-----------------------
MULLIKEN ATOMIC CHARGES
-----------------------
   0 C :    0.009757
   1 C :    0.022061
   2 H :    0.073649
   3 C :    0.067379
   4 H :    0.055230
   5 C :    0.042764
   6 H :    0.056595
   7 C :   -0.007009
   8 H :    0.069282
   9 C :    0.219828
  10 H :    0.050175
  11 O :   -0.312181
  12 O :   -0.384020
  13 O :   -0.403014
  14 O :   -0.411751
  15 O :   -0.418786
  16 O :   -0.424137
  17 H :    0.074284
  18 H :    0.109735
  19 H :    0.303742
  20 H :    0.302509
  21 H :    0.302843
  22 H :    0.300157
  23 H :    0.300908
Sum of atomic charges:   -0.0000000

--------------------------------
MULLIKEN REDUCED ORBITAL CHARGES
--------------------------------
  0 C s       :     3.042371  s :     3.042371
      pz      :     1.022020  p :     2.884572
      px      :     0.871154
      py      :     0.991398
      dz2     :     0.007664  d :     0.063300
      dxz     :     0.018239
      dyz     :     0.010673
      dx2y2   :     0.014636
      dxy     :     0.012089

  1 C s       :     3.062935  s :     3.062935
      pz      :     1.018615  p :     2.850134
      px      :     0.862305
      py      :     0.969214
      dz2     :     0.008928  d :     0.064871
      dxz     :     0.017793
      dyz     :     0.010710
      dx2y2   :     0.013435
      dxy     :     0.014005

  2 H s       :     0.926351  s :     0.926351

  3 C s       :     3.050702  s :     3.050702
      pz      :     0.984548  p :     2.814877
      px      :     0.905773
      py      :     0.924556
      dz2     :     0.017791  d :     0.067043
      dxz     :     0.009951
      dyz     :     0.011718
      dx2y2   :     0.014816
      dxy     :     0.012767

  4 H s       :     0.944770  s :     0.944770

  5 C s       :     3.030249  s :     3.030249
      pz      :     1.027019  p :     2.858451
      px      :     1.003733
      py      :     0.827698
      dz2     :     0.015665  d :     0.068536
      dxz     :     0.006722
      dyz     :     0.012655
      dx2y2   :     0.016558
      dxy     :     0.016936

  6 H s       :     0.943405  s :     0.943405

  7 C s       :     3.084085  s :     3.084085
      pz      :     1.113584  p :     2.855138
      px      :     0.777685
      py      :     0.963869
      dz2     :     0.011920  d :     0.067786
      dxz     :     0.012894
      dyz     :     0.008009
      dx2y2   :     0.017191
      dxy     :     0.017771

  8 H s       :     0.930718  s :     0.930718

  9 C s       :     2.972995  s :     2.972995
      pz      :     0.924551  p :     2.707195
      px      :     0.873500
      py      :     0.909144
      dz2     :     0.012767  d :     0.099982
      dxz     :     0.027557
      dyz     :     0.023796
      dx2y2   :     0.020761
      dxy     :     0.015100

 10 H s       :     0.949825  s :     0.949825

 11 O s       :     3.748578  s :     3.748578
      pz      :     1.605416  p :     4.548515
      px      :     1.221051
      py      :     1.722048
      dz2     :     0.002311  d :     0.015089
      dxz     :     0.005747
      dyz     :     0.002152
      dx2y2   :     0.002507
      dxy     :     0.002372

 12 O s       :     3.773000  s :     3.773000
      pz      :     1.546329  p :     4.595827
      px      :     1.866988
      py      :     1.182510
      dz2     :     0.002507  d :     0.015194
      dxz     :     0.001722
      dyz     :     0.007733
      dx2y2   :     0.002710
      dxy     :     0.000522

 13 O s       :     3.779710  s :     3.779710
      pz      :     1.470830  p :     4.607719
      px      :     1.327406
      py      :     1.809483
      dz2     :     0.005099  d :     0.015586
      dxz     :     0.003439
      dyz     :     0.002467
      dx2y2   :     0.002775
      dxy     :     0.001805

 14 O s       :     3.782974  s :     3.782974
      pz      :     1.268080  p :     4.613409
      px      :     1.860483
      py      :     1.484846
      dz2     :     0.007387  d :     0.015368
      dxz     :     0.000444
      dyz     :     0.002157
      dx2y2   :     0.003096
      dxy     :     0.002283

 15 O s       :     3.775846  s :     3.775846
      pz      :     1.720313  p :     4.627677
      px      :     1.703196
      py      :     1.204167
      dz2     :     0.002528  d :     0.015263
      dxz     :     0.002840
      dyz     :     0.002710
      dx2y2   :     0.003455
      dxy     :     0.003731

 16 O s       :     3.787902  s :     3.787902
      pz      :     1.553173  p :     4.620533
      px      :     1.280737
      py      :     1.786624
      dz2     :     0.002316  d :     0.015702
      dxz     :     0.007872
      dyz     :     0.002165
      dx2y2   :     0.001969
      dxy     :     0.001381

 17 H s       :     0.925716  s :     0.925716

 18 H s       :     0.890265  s :     0.890265

 19 H s       :     0.696258  s :     0.696258

 20 H s       :     0.697491  s :     0.697491

 21 H s       :     0.697157  s :     0.697157

 22 H s       :     0.699843  s :     0.699843

 23 H s       :     0.699092  s :     0.699092


------------------------
MULLIKEN OVERLAP CHARGES
------------------------
B(  0-C ,  1-C ) :   0.5633 B(  0-C ,  3-C ) :  -0.0824 B(  0-C , 11-O ) :  -0.0852 
B(  0-C , 16-O ) :   0.6117 B(  0-C , 17-H ) :   0.6709 B(  0-C , 18-H ) :   0.6935 
B(  0-C , 23-H ) :  -0.0897 B(  1-C ,  2-H ) :   0.5497 B(  1-C ,  4-H ) :  -0.1288 
B(  1-C ,  9-C ) :  -0.1503 B(  1-C , 11-O ) :   0.5781 B(  1-C , 15-O ) :  -0.0802 
B(  1-C , 16-O ) :  -0.1317 B(  1-C , 17-H ) :  -0.0702 B(  3-C ,  4-H ) :   0.6450 
B(  3-C ,  5-C ) :   0.3709 B(  3-C ,  7-C ) :  -0.0807 B(  3-C , 11-O ) :  -0.1178 
B(  3-C , 14-O ) :  -0.1451 B(  3-C , 15-O ) :   0.5684 B(  3-C , 22-H ) :  -0.1130 
B(  4-H ,  5-C ) :  -0.0587 B(  4-H , 15-O ) :  -0.0718 B(  5-C ,  6-H ) :   0.5207 
B(  5-C ,  7-C ) :   0.2558 B(  5-C ,  8-H ) :  -0.0603 B(  5-C ,  9-C ) :  -0.0695 
B(  5-C , 11-O ) :   0.0547 B(  5-C , 13-O ) :  -0.0605 B(  5-C , 14-O ) :   0.7010 
B(  5-C , 15-O ) :  -0.0531 B(  5-C , 21-H ) :  -0.1218 B(  6-H , 14-O ) :  -0.0876 
B(  7-C ,  8-H ) :   0.5938 B(  7-C ,  9-C ) :   0.2362 B(  7-C , 11-O ) :  -0.1455 
B(  7-C , 12-O ) :  -0.1321 B(  7-C , 13-O ) :   0.6071 B(  7-C , 14-O ) :  -0.0832 
B(  7-C , 20-H ) :  -0.1068 B(  8-H ,  9-C ) :  -0.0511 B(  8-H , 13-O ) :  -0.0698 
B(  9-C , 10-H ) :   0.6418 B(  9-C , 11-O ) :   0.6297 B(  9-C , 12-O ) :   0.6584 
B(  9-C , 13-O ) :  -0.0688 B( 10-H , 11-O ) :  -0.0695 B( 10-H , 12-O ) :  -0.0521 
B( 11-O , 12-O ) :  -0.1332 B( 12-O , 19-H ) :   0.4904 B( 13-O , 20-H ) :   0.5401 
B( 14-O , 21-H ) :   0.5367 B( 15-O , 22-H ) :   0.5206 B( 16-O , 18-H ) :  -0.0532 
B( 16-O , 23-H ) :   0.5243 B( 17-H , 18-H ) :  -0.0719 


                     *******************************
                     * LOEWDIN POPULATION ANALYSIS *
                     *******************************

----------------------
LOEWDIN ATOMIC CHARGES
----------------------
   0 C :   -0.145276
   1 C :   -0.067206
   2 H :    0.119047
   3 C :   -0.077373
   4 H :    0.101560
   5 C :   -0.091358
   6 H :    0.114529
   7 C :   -0.091096
   8 H :    0.117974
   9 C :   -0.006398
  10 H :    0.096768
  11 O :   -0.147544
  12 O :   -0.299609
  13 O :   -0.304603
  14 O :   -0.310902
  15 O :   -0.324369
  16 O :   -0.327773
  17 H :    0.097031
  18 H :    0.116034
  19 H :    0.287415
  20 H :    0.286280
  21 H :    0.288287
  22 H :    0.282166
  23 H :    0.286417

-------------------------------
LOEWDIN REDUCED ORBITAL CHARGES
-------------------------------
  0 C s       :     2.924479  s :     2.924479
      pz      :     1.074882  p :     3.076258
      px      :     0.952548
      py      :     1.048828
      dz2     :     0.014817  d :     0.144539
      dxz     :     0.042633
      dyz     :     0.027854
      dx2y2   :     0.031248
      dxy     :     0.027986

  1 C s       :     2.904735  s :     2.904735
      pz      :     1.063847  p :     3.011495
      px      :     0.919689
      py      :     1.027959
      dz2     :     0.017855  d :     0.150975
      dxz     :     0.042747
      dyz     :     0.027392
      dx2y2   :     0.032080
      dxy     :     0.030902

  2 H s       :     0.880953  s :     0.880953

  3 C s       :     2.896208  s :     2.896208
      pz      :     1.043424  p :     3.024420
      px      :     1.002894
      py      :     0.978102
      dz2     :     0.042978  d :     0.156744
      dxz     :     0.020521
      dyz     :     0.026716
      dx2y2   :     0.038274
      dxy     :     0.028255

  4 H s       :     0.898440  s :     0.898440

  5 C s       :     2.893448  s :     2.893448
      pz      :     1.062667  p :     3.036760
      px      :     1.057326
      py      :     0.916767
      dz2     :     0.036516  d :     0.161151
      dxz     :     0.013575
      dyz     :     0.027873
      dx2y2   :     0.041829
      dxy     :     0.041356

  6 H s       :     0.885471  s :     0.885471

  7 C s       :     2.895346  s :     2.895346
      pz      :     1.103003  p :     3.036866
      px      :     0.881092
      py      :     1.052772
      dz2     :     0.028003  d :     0.158883
      dxz     :     0.026350
      dyz     :     0.022144
      dx2y2   :     0.040103
      dxy     :     0.042283

  8 H s       :     0.882026  s :     0.882026

  9 C s       :     2.890289  s :     2.890289
      pz      :     0.984326  p :     2.892170
      px      :     0.941977
      py      :     0.965867
      dz2     :     0.022374  d :     0.223938
      dxz     :     0.065421
      dyz     :     0.058864
      dx2y2   :     0.047759
      dxy     :     0.029521

 10 H s       :     0.903232  s :     0.903232

 11 O s       :     3.470879  s :     3.470879
      pz      :     1.634459  p :     4.647196
      px      :     1.286804
      py      :     1.725933
      dz2     :     0.003459  d :     0.029470
      dxz     :     0.012018
      dyz     :     0.002912
      dx2y2   :     0.005824
      dxy     :     0.005256

 12 O s       :     3.537807  s :     3.537807
      pz      :     1.615792  p :     4.734595
      px      :     1.861904
      py      :     1.256899
      dz2     :     0.003611  d :     0.027206
      dxz     :     0.001943
      dyz     :     0.014713
      dx2y2   :     0.005754
      dxy     :     0.001185

 13 O s       :     3.532461  s :     3.532461
      pz      :     1.537707  p :     4.744669
      px      :     1.398771
      py      :     1.808191
      dz2     :     0.008664  d :     0.027473
      dxz     :     0.006069
      dyz     :     0.003754
      dx2y2   :     0.005657
      dxy     :     0.003329

 14 O s       :     3.533596  s :     3.533596
      pz      :     1.350255  p :     4.750350
      px      :     1.856646
      py      :     1.543450
      dz2     :     0.013179  d :     0.026956
      dxz     :     0.000870
      dyz     :     0.004302
      dx2y2   :     0.005088
      dxy     :     0.003516

 15 O s       :     3.538494  s :     3.538494
      pz      :     1.761842  p :     4.758993
      px      :     1.719828
      py      :     1.277323
      dz2     :     0.003902  d :     0.026882
      dxz     :     0.004136
      dyz     :     0.005195
      dx2y2   :     0.006482
      dxy     :     0.007168

 16 O s       :     3.540835  s :     3.540835
      pz      :     1.608778  p :     4.759579
      px      :     1.344106
      py      :     1.806695
      dz2     :     0.003135  d :     0.027360
      dxz     :     0.014131
      dyz     :     0.003015
      dx2y2   :     0.003970
      dxy     :     0.003108

 17 H s       :     0.902969  s :     0.902969

 18 H s       :     0.883966  s :     0.883966

 19 H s       :     0.712585  s :     0.712585

 20 H s       :     0.713720  s :     0.713720

 21 H s       :     0.711713  s :     0.711713

 22 H s       :     0.717834  s :     0.717834

 23 H s       :     0.713583  s :     0.713583


---------------------------------
LOEWDIN BOND ORDERS (THRESH 0.050000)
---------------------------------
B(  0-C ,  1-C ) :   1.0553 B(  0-C ,  3-C ) :   0.0571 B(  0-C , 11-O ) :   0.0688 
B(  0-C , 16-O ) :   1.2409 B(  0-C , 17-H ) :   0.9082 B(  0-C , 18-H ) :   0.9026 
B(  1-C ,  2-H ) :   0.8741 B(  1-C ,  3-C ) :   1.0112 B(  1-C ,  5-C ) :   0.0539 
B(  1-C ,  9-C ) :   0.0621 B(  1-C , 11-O ) :   1.1373 B(  1-C , 15-O ) :   0.0628 
B(  1-C , 16-O ) :   0.0843 B(  3-C ,  4-H ) :   0.8604 B(  3-C ,  5-C ) :   1.0190 
B(  3-C ,  7-C ) :   0.0626 B(  3-C , 11-O ) :   0.0542 B(  3-C , 14-O ) :   0.0805 
B(  3-C , 15-O ) :   1.2191 B(  5-C ,  6-H ) :   0.8634 B(  5-C ,  7-C ) :   1.0218 
B(  5-C ,  9-C ) :   0.0586 B(  5-C , 13-O ) :   0.0759 B(  5-C , 14-O ) :   1.2279 
B(  5-C , 15-O ) :   0.0792 B(  7-C ,  8-H ) :   0.8645 B(  7-C ,  9-C ) :   1.0044 
B(  7-C , 11-O ) :   0.0574 B(  7-C , 12-O ) :   0.0642 B(  7-C , 13-O ) :   1.2430 
B(  7-C , 14-O ) :   0.0718 B(  9-C , 10-H ) :   0.8824 B(  9-C , 11-O ) :   1.1890 
B(  9-C , 12-O ) :   1.2698 B(  9-C , 13-O ) :   0.0831 B( 11-O , 12-O ) :   0.0975 
B( 12-O , 19-H ) :   0.8747 B( 13-O , 20-H ) :   0.8818 B( 14-O , 21-H ) :   0.8797 
B( 15-O , 22-H ) :   0.8727 B( 16-O , 23-H ) :   0.8875 

------------------------------------------
LOEWDIN REDUCED ORBITAL POPULATIONS PER MO
-------------------------------------------
THRESHOLD FOR PRINTING IS 0.1%%
                      0         1         2         3         4         5   
                 -18.77064 -18.76658 -18.76147 -18.75605 -18.75131 -18.74625
                   2.00000   2.00000   2.00000   2.00000   2.00000   2.00000
                  --------  --------  --------  --------  --------  --------
11 O  s              99.9       0.0       0.0       0.0       0.0       0.0
12 O  s               0.0      99.9       0.0       0.0       0.0       0.0
13 O  s               0.0       0.0       0.0      99.9       0.0       0.0
14 O  s               0.0       0.0      99.9       0.0       0.0       0.0
15 O  s               0.0       0.0       0.0       0.0       0.0      99.9
16 O  s               0.0       0.0       0.0       0.0      99.9       0.0

                      6         7         8         9        10        11   
                  -9.98963  -9.94723  -9.94404  -9.94193  -9.93784  -9.92773
                   2.00000   2.00000   2.00000   2.00000   2.00000   2.00000
                  --------  --------  --------  --------  --------  --------
 0 C  s               0.0       0.0       0.0       0.0       0.0      99.6
 1 C  s               0.0       0.0       0.0      99.6       0.0       0.0
 3 C  s               0.0       0.0       0.0       0.0      99.6       0.0
 3 C  px              0.0       0.0       0.1       0.0       0.0       0.0
 5 C  s               0.0       0.0      99.6       0.0       0.0       0.0
 5 C  px              0.0       0.0       0.0       0.0       0.1       0.0
 7 C  s               0.0      99.6       0.0       0.0       0.0       0.0
 9 C  s              99.6       0.0       0.0       0.0       0.0       0.0
13 O  px              0.0       0.1       0.0       0.0       0.0       0.0

                     12        13        14        15        16        17   
                  -0.98197  -0.94947  -0.93297  -0.92598  -0.91716  -0.91323
                   2.00000   2.00000   2.00000   2.00000   2.00000   2.00000
                  --------  --------  --------  --------  --------  --------
 0 C  s               0.5       0.0       2.8       7.0       0.6       0.0
 0 C  pz              0.2       0.0       0.1       0.8       0.5       0.2
 0 C  px              0.1       0.0       0.8       4.3       1.1       0.2
 0 C  py              0.1       0.0       0.6       1.2       0.1       0.0
 0 C  dxz             0.0       0.0       0.1       0.2       0.0       0.0
 0 C  dx2y2           0.0       0.0       0.0       0.1       0.0       0.0
 0 C  dxy             0.0       0.0       0.0       0.2       0.1       0.0
 1 C  s               4.3       0.0       2.5       0.3       1.5       1.3
 1 C  pz              0.3       0.1       0.1       0.4       0.4       0.6
 1 C  px              2.9       0.1       0.1       0.3       1.1       1.9
 1 C  py              0.5       0.5       0.0       0.3       0.1       1.5
 1 C  dxy             0.1       0.0       0.0       0.0       0.0       0.1
 2 H  s               0.5       0.0       0.5       0.0       0.3       0.1
 3 C  s               0.9       2.3       3.9       0.2       2.2       2.3
 3 C  pz              0.1       0.1       0.7       0.1       0.9       0.6
 3 C  px              0.0       0.2       0.6       0.0       1.0       1.9
 3 C  py              0.2       1.1       0.5       0.6       0.2       3.0
 3 C  dyz             0.0       0.0       0.0       0.0       0.0       0.2
 3 C  dxy             0.0       0.0       0.1       0.0       0.1       0.2
 4 H  s               0.1       0.4       0.6       0.0       0.1       0.3
 5 C  s               1.0       8.9       0.3       0.4       0.6       0.3
 5 C  pz              0.0       1.6       0.0       0.1       0.5       0.1
 5 C  px              0.0       0.3       1.4       0.1       0.5       0.5
 5 C  py              0.2       3.0       0.5       1.0       2.7       0.3
 5 C  dyz             0.0       0.2       0.0       0.0       0.1       0.0
 5 C  dx2y2           0.0       0.1       0.0       0.0       0.1       0.1
 6 H  s               0.2       1.1       0.1       0.0       0.0       0.0
 7 C  s               2.8       3.7       3.6       1.3       0.7       0.0
 7 C  pz              0.5       0.0       0.0       0.0       0.0       0.1
 7 C  px              0.0       1.1       4.6       2.3       1.1       0.3
 7 C  py              0.6       2.1       0.0       0.0       0.0       0.1
 7 C  dx2y2           0.0       0.1       0.2       0.1       0.1       0.0
 8 H  s               0.5       0.4       0.5       0.1       0.0       0.0
 9 C  s              15.7       0.5       0.3       0.1       0.1       0.0
 9 C  pz              0.0       0.0       1.3       0.0       1.8       3.7
 9 C  px              2.7       0.4       1.0       0.0       0.6       2.0
 9 C  py              1.0       1.2       0.1       0.6       2.8       2.3
 9 C  dxz             0.2       0.0       0.0       0.0       0.1       0.2
 9 C  dyz             0.2       0.1       0.0       0.0       0.2       0.2
 9 C  dx2y2           0.0       0.0       0.1       0.0       0.2       0.4
10 H  s               1.9       0.0       0.1       0.0       0.0       0.0
11 O  s              26.7       1.3       3.4       0.0       7.0      15.8
11 O  pz              1.8       0.1       0.1       0.0       0.2       0.4
11 O  px              0.2       0.0       0.1       0.0       0.1       0.1
11 O  py              0.1       0.0       0.1       0.0       0.2       0.2
12 O  s              21.4       3.0       3.4       1.7      14.3      16.4
12 O  pz              1.8       0.2       0.1       0.1       0.6       0.6
12 O  py              0.2       0.0       0.0       0.0       0.0       0.1
13 O  s               2.0      12.5      23.7      12.0       7.4       0.6
13 O  pz              0.1       0.4       0.8       0.4       0.3       0.0
13 O  px              0.2       0.5       0.6       0.2       0.1       0.0
14 O  s               0.8      33.5       1.5       4.5      14.1       4.5
14 O  pz              0.0       0.3       0.0       0.1       0.2       0.1
14 O  py              0.1       1.8       0.1       0.2       0.4       0.1
15 O  s               0.5       4.8      13.7       1.5      12.9      24.9
15 O  pz              0.0       0.2       0.4       0.0       0.3       0.5
15 O  px              0.0       0.2       0.5       0.1       0.4       0.7
16 O  s               0.2       0.0      10.9      40.3       7.2       0.5
16 O  pz              0.0       0.0       0.6       2.2       0.4       0.0
16 O  py              0.0       0.0       0.1       0.2       0.0       0.0
17 H  s               0.1       0.0       0.3       0.8       0.1       0.0
18 H  s               0.2       0.0       0.3       0.7       0.1       0.0
19 H  s               4.2       0.6       0.7       0.3       2.9       3.3
20 H  s               0.4       2.6       4.7       2.4       1.5       0.1
21 H  s               0.2       6.8       0.3       0.9       2.8       0.9
22 H  s               0.1       1.2       2.8       0.3       2.4       4.8
23 H  s               0.0       0.0       2.2       8.2       1.4       0.1

                     18        19        20        21        22        23   
                  -0.70310  -0.69195  -0.62059  -0.58179  -0.57908  -0.53098
                   2.00000   2.00000   2.00000   2.00000   2.00000   2.00000
                  --------  --------  --------  --------  --------  --------
 0 C  s               1.6       5.1      14.0       3.9       6.0       0.3
 0 C  pz              0.4       1.7       0.1       0.1       1.1       3.2
 0 C  px              0.6       1.4       1.1       0.0       0.1       0.0
 0 C  py              0.4       0.2       0.2       1.6       0.3       0.1
 1 C  s               5.8      14.4       0.9       0.7       1.9       3.5
 1 C  pz              1.6       0.1       2.4       0.2       4.7       2.2
 1 C  px              0.1       0.5       2.1       0.2       0.5       1.0
 1 C  py              2.3       0.2       2.8       7.8       0.1       0.4
 1 C  dyz             0.0       0.0       0.2       0.1       0.1       0.0
 1 C  dxy             0.1       0.0       0.0       0.0       0.1       0.0
 2 H  s               0.9       3.4       0.2       0.3       1.4       3.4
 3 C  s              11.7       1.0       2.6       8.1       1.4       2.1
 3 C  pz              0.1       0.1       0.0       0.2       0.4       3.5
 3 C  px              2.8       1.1       2.1       2.7       0.4       0.0
 3 C  py              2.7       2.4       0.3       1.4       0.5       0.1
 4 H  s               2.4       0.2       0.3       2.9       0.6       3.0
 5 C  s              12.1       2.2       5.2       5.7       1.6       0.8
 5 C  pz              0.0       0.0       0.9       0.5       1.3       4.3
 5 C  px              0.9       0.6       1.2       3.5       1.1       0.9
 5 C  py              4.6       1.5       0.1       0.0       1.2       3.1
 5 C  dyz             0.1       0.0       0.0       0.0       0.0       0.0
 6 H  s               2.3       0.5       1.9       2.7       1.1       2.4
 7 C  s               7.2       8.4       2.9       1.1       6.6       1.0
 7 C  pz              0.2       0.8       0.3       0.0       3.6       3.3
 7 C  px              3.6       1.8       0.0       0.2       0.1       0.1
 7 C  py              0.3       0.8       3.9       4.2       0.1       1.9
 7 C  dyz             0.0       0.0       0.1       0.1       0.0       0.0
 7 C  dx2y2           0.0       0.1       0.0       0.0       0.0       0.2
 8 H  s               1.9       1.6       1.3       0.2       4.1       1.7
 9 C  s               0.0      10.4       4.3       3.9       2.0       2.3
 9 C  pz              2.2       0.1       1.2       0.1       5.0       2.7
 9 C  px              0.6       0.2       0.7       0.6       0.3       3.1
 9 C  py              1.7       2.8       0.6       0.1       0.9       0.4
 9 C  dxz             0.1       0.0       0.0       0.0       0.0       0.2
 9 C  dx2y2           0.1       0.0       0.0       0.0       0.1       0.0
10 H  s               0.0       2.5       0.9       1.7       1.8       1.0
11 O  s               4.6       0.0       1.5       0.6       0.1       1.1
11 O  pz              0.1       0.0       0.5       0.1       0.1       0.1
11 O  px              0.9      11.1       0.2       2.0      11.3       3.6
11 O  py              0.6       0.4       0.2       0.0       1.4       0.3
11 O  dxz             0.0       0.1       0.0       0.0       0.1       0.0
12 O  s               0.0       2.0       0.9       0.4       0.4       0.0
12 O  pz              0.1       0.2       0.0       0.3       0.7       0.1
12 O  px              0.0       0.0       0.0       0.1       0.1       0.4
12 O  py              0.1       3.4       5.9       4.6       0.1      14.7
12 O  dyz             0.0       0.1       0.1       0.1       0.0       0.2
13 O  s               1.8       2.5       0.5       0.2       0.5       0.1
13 O  pz              0.3       0.3       0.5       0.2       3.1       2.1
13 O  px              1.2       1.6       1.5       1.1       6.7       2.1
13 O  py              0.1       0.3       0.7       0.0       1.0       0.0
14 O  s               3.0       0.5       0.8       0.8       0.1       0.2
14 O  pz              1.4       0.3       2.7       6.0       2.7       8.0
14 O  px              0.1       0.0       0.2       0.0       0.3       0.0
14 O  py              1.1       0.2       1.1       2.7       0.5       0.6
15 O  s               3.4       0.3       0.9       0.8       0.4       0.1
15 O  pz              0.1       0.0       0.1       0.6       0.2       0.6
15 O  px              0.2       0.0       0.3       0.1       0.3       0.0
15 O  py              2.5       0.7       0.9       9.3       0.3       0.4
16 O  s               0.8       1.6       2.2       0.1       0.6       0.0
16 O  pz              0.0       0.0       0.1       0.0       0.1       0.4
16 O  px              0.5       1.1       6.2       1.7       6.1       2.6
16 O  py              0.0       0.1       0.9       0.8       1.0       0.3
16 O  dxz             0.0       0.0       0.1       0.0       0.1       0.0
17 H  s               0.2       1.1       3.7       1.9       1.5       0.0
18 H  s               0.4       1.1       4.3       1.5       2.6       0.8
19 H  s               0.0       1.5       2.1       1.5       0.1       4.1
20 H  s               0.8       1.2       1.0       0.3       3.4       1.1
21 H  s               1.4       0.3       1.4       2.7       1.1       2.3
22 H  s               1.7       0.3       0.5       3.1       0.2       0.2
23 H  s               0.3       0.7       2.6       0.7       2.3       1.0

                     24        25        26        27        28        29   
                  -0.50472  -0.49419  -0.47084  -0.45446  -0.44670  -0.43092
                   2.00000   2.00000   2.00000   2.00000   2.00000   2.00000
                  --------  --------  --------  --------  --------  --------
 0 C  s               0.1       0.0       0.1       0.3       1.7       0.1
 0 C  pz              1.0       0.1      13.2       1.1       1.9       0.2
 0 C  px              0.5       0.0       2.6       0.2       0.2       5.2
 0 C  py              0.1       0.1       0.1       2.7      18.5       0.0
 0 C  dxz             0.0       0.0       0.1       0.1       0.1       0.1
 0 C  dyz             0.0       0.0       0.2       0.0       0.0       0.0
 0 C  dxy             0.0       0.0       0.1       0.0       0.0       0.0
 1 C  s               1.0       0.5       0.9       0.5       1.3       0.0
 1 C  pz              0.9       0.1       5.0       0.2       2.6       7.0
 1 C  px              5.4       0.1       3.3       0.8       0.4       3.8
 1 C  py              0.8       0.1       2.0       0.0       3.2       0.2
 2 H  s               3.1       0.0       0.1       0.0       0.1       3.7
 3 C  s               0.3       0.8       0.1       0.4       0.7       0.0
 3 C  pz              3.5       0.1       7.3       5.0       0.4       0.9
 3 C  px              3.6       1.2       0.1       4.0       3.9       0.0
 3 C  py              0.3       2.6       0.2       0.3       7.3       0.9
 3 C  dxz             0.0       0.0       0.0       0.2       0.0       0.0
 3 C  dyz             0.0       0.0       0.0       0.1       0.0       0.0
 3 C  dx2y2           0.0       0.0       0.0       0.0       0.1       0.1
 3 C  dxy             0.0       0.0       0.1       0.1       0.0       0.0
 4 H  s               1.2       0.6       2.1       2.2       0.1       0.3
 5 C  s               0.0       0.0       0.0       0.1       0.1       0.7
 5 C  pz              1.4       0.1       3.3       0.1       0.3       8.3
 5 C  px              3.7       0.4       0.0       5.4       7.1       0.6
 5 C  py              0.0      10.6       0.2       0.8       0.5       1.6
 5 C  dx2y2           0.0       0.0       0.0       0.0       0.2       0.0
 6 H  s               0.7       0.1       0.9       0.2       0.1       1.2
 7 C  s               0.4       0.1       0.0       0.3       0.0       0.1
 7 C  pz              2.1       8.5       0.6       0.1       0.2       1.0
 7 C  px              2.6       6.9       0.0       2.5       0.3       2.7
 7 C  py              0.4       0.1       0.9       2.3       0.9       7.3
 7 C  dx2y2           0.0       0.1       0.0       0.0       0.0       0.1
 7 C  dxy             0.0       0.0       0.0       0.0       0.0       0.1
 8 H  s               0.6       0.7       0.1       0.3       0.1       0.6
 9 C  s               0.7       0.1       0.1       0.4       0.1       0.0
 9 C  pz             12.1       0.1       2.2       1.3       0.1       0.9
 9 C  px              4.3       0.2       0.4      11.0       3.7       1.1
 9 C  py              0.7       4.5       0.9       0.0       0.1       6.5
 9 C  dyz             0.2       0.0       0.0       0.0       0.0       0.0
10 H  s               6.1       0.2       0.4       5.4       1.2       1.0
11 O  s               0.0       1.3       0.3       0.1       0.1       0.9
11 O  pz              2.0       0.3       0.8       1.7       1.3       6.3
11 O  px              2.7       0.0       2.4       2.6       2.2       0.7
11 O  py              0.0       2.3       3.5       1.3       0.0       2.4
12 O  s               0.3       0.0       0.4       0.2       0.0       0.1
12 O  pz              0.7       0.1       1.0       0.3       0.0       2.3
12 O  px              0.6       0.0       0.2       3.1       0.6       0.7
12 O  py             14.5       4.1       0.6       0.8       0.1       3.1
12 O  dyz             0.1       0.0       0.0       0.0       0.0       0.0
13 O  s               0.5       0.6       0.0       0.1       0.0       0.2
13 O  pz              0.3       8.8       0.2       0.4       0.0       0.7
13 O  px              5.1       6.4       0.0       0.5       0.0       0.9
13 O  py              0.6       1.9       0.1       2.7       0.9       3.8
14 O  s               0.1       0.0       0.2       0.0       0.2       2.3
14 O  pz              0.4      11.1       0.4       0.2       4.4       3.1
14 O  px              0.5       0.9       0.2       2.1       1.0       0.0
14 O  py              0.0       2.3       1.2       0.1       1.1       4.7
15 O  s               0.2       0.3       0.1       1.2       0.5       0.0
15 O  pz              0.1       0.9       0.2       0.1       0.5       0.1
15 O  px              0.1       0.5       0.3       0.2       3.3       0.2
15 O  py              4.4       5.9       6.7      18.6       1.4       0.0
16 O  s               0.2       0.0       1.0       0.3       0.4       0.0
16 O  pz              0.3       0.0       4.3       0.8       0.9       0.0
16 O  px              0.1       0.2      14.8       3.4       6.5       3.8
16 O  py              0.0       0.0       3.3       0.0       1.4       1.0
17 H  s               0.1       0.0       0.7       1.9      11.5       0.0
18 H  s               0.4       0.0       0.4       0.2       0.2       1.8
19 H  s               4.4       1.2       0.2       0.3       0.0       0.7
20 H  s               1.6       4.6       0.0       0.6       0.0       0.9
21 H  s               0.0       3.9       0.4       0.1       1.3       0.3
22 H  s               1.1       1.9       1.9       5.3       0.5       0.1
23 H  s               0.0       0.1       5.9       1.2       1.6       1.2

                     30        31        32        33        34        35   
                  -0.42003  -0.40452  -0.38480  -0.36357  -0.36030  -0.34829
                   2.00000   2.00000   2.00000   2.00000   2.00000   2.00000
                  --------  --------  --------  --------  --------  --------
 0 C  s               0.0       0.0       0.1       0.0       0.1       0.0
 0 C  pz              0.1       1.4       6.1       0.4       1.5       1.4
 0 C  px              0.1       5.2       9.4       4.1       2.1       4.8
 0 C  py              0.3       0.0       1.4      13.4       0.8       0.3
 0 C  dz2             0.0       0.0       0.0       0.1       0.0       0.1
 0 C  dxz             0.0       0.0       0.1       0.0       0.3       0.1
 1 C  s               0.3       0.2       0.2       0.0       0.3       0.2
 1 C  pz              0.3       1.3       0.1       0.9       0.8       1.8
 1 C  px              0.2       3.4       3.6       1.5       2.0       5.5
 1 C  py              1.5       1.6       1.1      11.8       1.1       0.0
 1 C  dz2             0.0       0.0       0.0       0.0       0.1       0.1
 1 C  dxz             0.1       0.1       0.0       0.0       0.0       0.2
 1 C  dyz             0.0       0.0       0.0       0.1       0.0       0.1
 1 C  dxy             0.1       0.1       0.0       0.0       0.0       0.0
 2 H  s               0.2       3.2       0.2       0.1       1.2       5.4
 3 C  s               0.0       0.2       0.2       0.7       0.1       0.2
 3 C  pz              5.2       3.3       4.9       0.7       2.5       0.7
 3 C  px              5.7       2.5       0.6       0.2       1.1       1.2
 3 C  py              2.0       0.1       2.5       7.9       0.5       1.2
 3 C  dxz             0.1       0.0       0.1       0.0       0.1       0.0
 3 C  dyz             0.0       0.0       0.0       0.3       0.0       0.0
 3 C  dxy             0.1       0.1       0.0       0.0       0.0       0.1
 4 H  s               2.8       2.9       3.3       0.8       3.3       0.8
 5 C  s               1.2       0.1       0.0       0.3       0.2       0.2
 5 C  pz              5.6       0.3       3.0       3.1       7.4       3.2
 5 C  px              1.6       5.9       0.1       0.7       1.0       1.6
 5 C  py              2.2       1.0       0.2       0.2       0.2       0.2
 5 C  dz2             0.1       0.0       0.0       0.1       0.2       0.0
 5 C  dyz             0.0       0.0       0.0       0.1       0.1       0.2
 5 C  dx2y2           0.3       0.1       0.0       0.0       0.0       0.0
 5 C  dxy             0.0       0.0       0.1       0.1       0.0       0.1
 6 H  s               3.8       0.7       1.5       2.5       6.6       1.8
 7 C  s               1.2       0.2       0.1       0.4       0.1       0.1
 7 C  pz              0.4       8.5       5.2       1.4       3.1       3.5
 7 C  px              2.4       3.3       1.1       1.0       0.5       1.4
 7 C  py              4.5       5.9       0.4       0.9       0.1       0.0
 7 C  dz2             0.1       0.2       0.0       0.2       0.2       0.1
 7 C  dxz             0.2       0.0       0.0       0.0       0.0       0.0
 7 C  dx2y2           0.2       0.0       0.0       0.0       0.0       0.0
 8 H  s               0.9       6.7       2.4       2.9       3.8       3.1
 9 C  s               0.2       0.0       0.2       0.0       0.5       0.0
 9 C  pz              0.5       0.3       2.1       0.0       0.4       0.1
 9 C  px              1.9       2.0       2.9       0.3       0.3       0.8
 9 C  py              8.3       2.0       2.3       0.1       0.0       1.7
 9 C  dz2             0.0       0.1       0.0       0.0       0.4       0.1
 9 C  dxz             0.0       0.1       0.2       0.0       0.0       0.0
 9 C  dyz             0.2       0.1       0.0       0.2       0.0       0.0
10 H  s               0.3       0.4       4.9       0.3       0.1       0.4
11 O  s               0.3       0.1       0.4       0.0       2.0       0.0
11 O  pz              0.3       0.0       0.0       0.0      19.6       1.4
11 O  px              2.3       5.8       0.4       1.7       1.3       2.9
11 O  py              0.6       0.3       0.3       6.7       0.2       0.2
12 O  s               0.1       0.0       1.3       0.8       1.4       2.3
12 O  pz              2.7       1.0       3.4       1.1       7.9      12.6
12 O  px              0.4       0.2       0.5       0.0       0.2       2.4
12 O  py              3.9       2.0       0.2       1.0       0.7       0.2
13 O  s               1.1       1.1       0.2       0.0       0.0       0.1
13 O  pz              6.8       1.3       0.8       0.0       0.6       1.2
13 O  px              3.0       8.4       2.2       1.9       1.6       2.1
13 O  py              0.0       0.2       0.5       0.1       0.3       0.6
14 O  s               0.3       0.3       0.1       0.1       0.3       1.4
14 O  pz              6.5       1.6       0.2       1.1       0.2       2.8
14 O  px              0.2       2.7       0.0       0.4       2.1       5.2
14 O  py              2.0       0.1       2.6       1.7       5.9       6.9
15 O  s               0.0       0.0       1.0       0.1       0.1       0.1
15 O  pz              3.0       1.8       4.4       0.7       0.2       0.3
15 O  px              0.5       0.4       0.2       4.3       0.9       1.0
15 O  py              3.1       0.4       0.5       2.0       1.2       0.0
16 O  s               0.0       0.3       0.7       0.3       0.0       0.3
16 O  pz              0.1       1.6       5.1       0.2       0.6       2.8
16 O  px              0.1       1.0       4.3       1.2       1.7       0.4
16 O  py              0.0       1.4       0.4       7.1       0.9       2.4
17 H  s               0.0       0.3       0.1       6.7       0.1       1.2
18 H  s               0.2       1.8       7.7       0.0       3.9       4.2
19 H  s               1.0       0.5       0.2       0.5       0.7       0.7
20 H  s               2.5       0.3       0.1       0.3       0.2       0.2
21 H  s               2.6       0.5       0.2       0.6       0.2       0.2
22 H  s               0.9       0.2       0.2       0.6       0.4       0.0
23 H  s               0.0       0.2       0.5       0.1       0.4       0.1

                     36        37        38        39        40        41   
                  -0.33619  -0.31512  -0.30646  -0.28766  -0.28201  -0.26790
                   2.00000   2.00000   2.00000   2.00000   2.00000   2.00000
                  --------  --------  --------  --------  --------  --------
 0 C  s               0.6       0.1       0.0       0.2       0.1       0.0
 0 C  pz              1.4       0.0       0.0       6.6       1.3       0.6
 0 C  px              0.1       0.0       0.0       0.5       0.6       0.1
 0 C  py              3.5       0.5       0.0       0.3       0.7       0.0
 0 C  dxz             0.0       0.0       0.0       0.5       0.1       0.0
 0 C  dx2y2           0.0       0.0       0.0       0.1       0.0       0.1
 1 C  s               0.3       0.0       0.9       0.2       0.4       0.0
 1 C  pz              7.2       1.4       0.2       0.9       1.2       2.2
 1 C  px              1.8       0.3       0.0       0.0       0.2       0.4
 1 C  py              0.3       1.0       0.0       2.4       0.7       1.0
 1 C  dxz             0.5       0.0       0.0       0.0       0.0       0.0
 1 C  dx2y2           0.0       0.1       0.1       0.1       0.1       0.3
 2 H  s               7.5       1.3       0.4       0.2       0.6       1.2
 3 C  s               0.1       0.4       0.1       0.1       0.1       0.6
 3 C  pz              0.6       2.6       1.2       0.0       0.1       1.6
 3 C  px              0.0       1.0       1.2       0.9       0.9       0.0
 3 C  py              0.2       0.5       1.8       0.0       1.4       1.6
 3 C  dx2y2           0.0       0.1       0.5       0.1       0.2       0.1
 4 H  s               0.8       1.8       0.6       0.0       0.1       1.1
 5 C  s               0.2       0.8       0.5       0.0       0.1       0.0
 5 C  pz              0.2       1.0       0.0       0.5       3.7       1.4
 5 C  px              0.0       0.8       1.7       0.4       0.2       0.8
 5 C  py              0.2       0.3       0.1       1.1       5.0       0.7
 5 C  dz2             0.0       0.3       0.0       0.1       0.5       0.2
 5 C  dxy             0.0       0.0       0.0       0.0       0.1       0.1
 6 H  s               0.0       2.9       0.2       0.8       4.7       2.0
 7 C  s               0.8       0.9       0.1       0.0       0.1       0.3
 7 C  pz              0.3       0.5       0.5       0.0       5.4       3.0
 7 C  px              0.1       0.6       0.2       0.0       1.5       0.6
 7 C  py              0.2       0.9       2.0       1.5       2.3       0.8
 7 C  dz2             0.0       0.0       0.0       0.0       0.2       0.1
[...]
 5 C  s               0.0       0.3       0.5       0.3       0.9       0.0
 5 C  pz              0.0       0.1       0.1       0.0       0.4       0.0
 5 C  px              0.0       0.1       0.3       0.1       0.0       0.0
 5 C  py              0.0       0.7       0.6       0.6       1.5       0.0
 5 C  dz2             0.0       0.1       0.1       0.3       0.3       0.0
 5 C  dxz             0.0       0.1       0.0       0.1       0.2       0.0
 5 C  dyz             0.1       0.7       0.7       0.6       3.0       0.0
 5 C  dx2y2           0.0       1.2       3.0       1.4       1.0       0.0
 5 C  dxy             0.1       0.7       0.3       1.0       0.2       0.0
 7 C  s               0.0       0.0       0.3       1.5       0.7       0.0
 7 C  px              0.0       0.0       0.4       2.8       0.6       0.1
 7 C  py              0.0       0.3       0.0       0.1       0.2       0.0
 7 C  dz2             0.0       0.1       0.8       1.0       1.0       0.0
 7 C  dxz             0.0       0.0       0.1       0.3       0.0       0.0
 7 C  dyz             0.0       0.2       0.0       0.0       0.1       0.0
 7 C  dx2y2           0.0       0.0       0.0       7.8       1.4       0.1
 7 C  dxy             0.0       0.0       0.3       1.5       0.0       0.1
 9 C  s               0.0       1.1       0.7       0.0       0.0       2.0
 9 C  pz              0.0       1.4       0.3       0.1       0.1       0.4
 9 C  px              0.1       0.1       0.0       0.0       0.1       1.8
 9 C  py              0.0       1.8       0.4       0.1       0.0       0.0
 9 C  dz2             0.0       0.4       0.1       0.1       0.0       0.3
 9 C  dxz             0.1       0.1       0.0       1.0       0.1       2.8
 9 C  dyz             0.0       6.7       2.0       0.6       0.0       0.4
 9 C  dx2y2           0.2       2.4       0.7       0.4       0.4       1.9
 9 C  dxy             0.0       0.1       0.0       0.4       0.1       0.2
11 O  s               0.0       0.1       0.1       0.1       0.2       0.0
11 O  px              0.3       0.0       0.1       0.1       0.1       5.7
11 O  py              0.1       0.0       0.0       0.0       0.0       0.5
11 O  dz2             0.4       0.4       0.4       0.2       0.1       0.8
11 O  dxz             1.5       1.0       0.4       1.5       1.8      48.4
11 O  dyz             0.6       0.2       0.0       0.6       0.2       3.8
11 O  dx2y2           0.5       0.3       0.5       0.9       0.1       0.7
11 O  dxy             1.9       2.0       0.9       1.1       0.0       6.8
12 O  s               0.0       3.3       0.9       0.1       0.1       0.0
12 O  pz              0.0       0.6       0.2       0.0       0.0       0.0
12 O  py              0.0       2.9       0.7       0.2       0.0       0.1
12 O  dz2             0.1       0.3       0.4       0.2       0.1       0.1
12 O  dxz             0.0       0.0       0.0       0.1       0.1       0.0
12 O  dyz             0.0      35.8      11.0       2.3       0.2       0.3
12 O  dx2y2           0.0      10.7       1.7       0.3       0.0       0.0
12 O  dxy             0.0       0.0       0.0       0.1       0.0       0.1
13 O  s               0.0       0.0       0.6       3.5       1.3       0.1
13 O  pz              0.0       0.0       0.1       0.1       0.0       0.0
13 O  px              0.0       0.0       0.4       3.1       0.8       0.0
13 O  py              0.0       0.0       0.0       0.2       0.1       0.0
13 O  dz2             0.0       0.4       2.6      12.2       3.3       0.1
13 O  dxz             0.0       0.0       0.7       0.5       0.8       0.1
13 O  dyz             0.0       0.1       0.1       0.1       0.0       0.0
13 O  dx2y2           0.0       0.0       3.1      30.2       5.9       0.1
13 O  dxy             0.0       0.3       0.0       4.6       1.2       0.5
14 O  s               0.1       1.0       1.0       0.7       2.8       0.0
14 O  pz              0.0       0.4       0.4       0.3       0.6       0.0
14 O  py              0.0       0.6       0.7       0.4       1.2       0.0
14 O  dz2             0.1       1.4       1.2       0.4       4.7       0.0
14 O  dxz             0.0       0.2       0.4       0.2       0.6       0.0
14 O  dyz             0.4       4.8       6.0       5.0       6.1       0.1
14 O  dx2y2           0.5       5.9       6.6       3.1       8.4       0.1
14 O  dxy             0.1       1.0       1.7       1.8       2.9       0.0
15 O  s               0.0       0.2       1.9       0.1       2.7       0.3
15 O  pz              0.0       0.0       0.3       0.0       0.3       0.0
15 O  px              0.0       0.0       0.4       0.0       0.5       0.0
15 O  py              0.0       0.2       1.4       0.0       1.5       0.2
15 O  dz2             0.0       0.0       0.0       0.2       0.6       0.1
15 O  dxz             0.0       0.7       6.6       0.3       6.3       0.3
15 O  dyz             0.1       1.7      10.2       0.1       8.7       1.0
15 O  dx2y2           0.0       0.0       0.1       0.2       0.0       0.0
15 O  dxy             0.1       1.8      13.3       0.5      12.1       0.8
16 O  s               3.7       0.0       0.1       0.0       0.0       0.5
16 O  pz              0.2       0.0       0.0       0.0       0.0       0.1
16 O  px              3.3       0.0       0.0       0.0       0.0       0.3
16 O  py              0.7       0.0       0.0       0.0       0.0       0.0
16 O  dz2             3.8       0.0       0.0       0.0       0.0       0.0
16 O  dxz            26.3       0.1       0.1       0.2       0.0       2.0
16 O  dyz             7.0       0.0       0.0       0.1       0.1       0.1
16 O  dx2y2           7.2       0.1       0.1       0.0       0.0       1.2
16 O  dxy            19.7       0.0       0.2       0.1       0.1       0.5
18 H  s               0.1       0.0       0.0       0.0       0.0       0.0
19 H  s               0.0       0.4       0.2       0.0       0.0       0.1
20 H  s               0.0       0.0       0.2       0.3       0.1       0.0
21 H  s               0.0       0.1       0.1       0.0       0.3       0.0
22 H  s               0.0       0.1       0.3       0.0       0.3       0.0
23 H  s               0.6       0.0       0.0       0.0       0.0       0.0



                      *****************************
                      * MAYER POPULATION ANALYSIS *
                      *****************************

  NA   - Mulliken gross atomic population
  ZA   - Total nuclear charge
  QA   - Mulliken gross atomic charge
  VA   - Mayer's total valence
  BVA  - Mayer's bonded valence
  FA   - Mayer's free valence

  ATOM       NA         ZA         QA         VA         BVA        FA
  0 C      5.9902     6.0000     0.0098     3.9676     3.9676    -0.0000
  1 C      5.9779     6.0000     0.0221     3.9686     3.9686    -0.0000
  2 H      0.9264     1.0000     0.0736     0.9897     0.9897    -0.0000
  3 C      5.9326     6.0000     0.0674     4.0203     4.0203    -0.0000
  4 H      0.9448     1.0000     0.0552     0.9992     0.9992    -0.0000
  5 C      5.9572     6.0000     0.0428     4.0237     4.0237     0.0000
  6 H      0.9434     1.0000     0.0566     0.9870     0.9870     0.0000
  7 C      6.0070     6.0000    -0.0070     3.9880     3.9880    -0.0000
  8 H      0.9307     1.0000     0.0693     0.9896     0.9896    -0.0000
  9 C      5.7802     6.0000     0.2198     4.1198     4.1198    -0.0000
 10 H      0.9498     1.0000     0.0502     0.9836     0.9836     0.0000
 11 O      8.3122     8.0000    -0.3122     2.1755     2.1755    -0.0000
 12 O      8.3840     8.0000    -0.3840     2.0614     2.0614    -0.0000
 13 O      8.4030     8.0000    -0.4030     2.0160     2.0160    -0.0000
 14 O      8.4118     8.0000    -0.4118     2.0289     2.0289     0.0000
 15 O      8.4188     8.0000    -0.4188     2.0134     2.0134     0.0000
 16 O      8.4241     8.0000    -0.4241     2.0137     2.0137    -0.0000
 17 H      0.9257     1.0000     0.0743     0.9569     0.9569     0.0000
 18 H      0.8903     1.0000     0.1097     0.9852     0.9852    -0.0000
 19 H      0.6963     1.0000     0.3037     0.8898     0.8898    -0.0000
 20 H      0.6975     1.0000     0.3025     0.8853     0.8853    -0.0000
 21 H      0.6972     1.0000     0.3028     0.8894     0.8894     0.0000
 22 H      0.6998     1.0000     0.3002     0.8996     0.8996     0.0000
 23 H      0.6991     1.0000     0.3009     0.8804     0.8804     0.0000

  Mayer bond orders larger than 0.100000
B(  0-C ,  1-C ) :   1.0314 B(  0-C , 16-O ) :   1.0521 B(  0-C , 17-H ) :   0.9180 
B(  0-C , 18-H ) :   0.9072 B(  1-C ,  2-H ) :   0.8871 B(  1-C ,  3-C ) :   0.9732 
B(  1-C , 11-O ) :   1.0155 B(  3-C ,  4-H ) :   0.8779 B(  3-C ,  5-C ) :   1.0160 
B(  3-C , 15-O ) :   1.0703 B(  5-C ,  6-H ) :   0.8528 B(  5-C ,  7-C ) :   1.0016 
B(  5-C , 14-O ) :   1.0635 B(  7-C ,  8-H ) :   0.8690 B(  7-C ,  9-C ) :   0.9686 
B(  7-C , 13-O ) :   1.0633 B(  9-C , 10-H ) :   0.8893 B(  9-C , 11-O ) :   1.0530 
B(  9-C , 12-O ) :   1.1347 B( 12-O , 19-H ) :   0.8391 B( 13-O , 20-H ) :   0.8464 
B( 14-O , 21-H ) :   0.8460 B( 15-O , 22-H ) :   0.8365 B( 16-O , 23-H ) :   0.8496 


-------
TIMINGS
-------

Total SCF time: 0 days 0 hours 0 min 9 sec 

Total time                  ....       9.436 sec
Sum of individual times     ....       9.063 sec  ( 96.0%)

SCF preparation             ....       0.185 sec  (  2.0%)
Fock matrix formation       ....       8.134 sec  ( 86.2%)
  Startup                   ....       0.049 sec  (  0.6% of F)
  Split-RI-J                ....       3.615 sec  ( 44.4% of F)
  XC integration            ....       4.063 sec  ( 49.9% of F)
    Basis function eval.    ....       1.366 sec  ( 33.6% of XC)
    Density eval.           ....       0.783 sec  ( 19.3% of XC)
    XC-Functional eval.     ....       0.283 sec  (  7.0% of XC)
    XC-Potential eval.      ....       1.018 sec  ( 25.1% of XC)
Diagonalization             ....       0.000 sec  (  0.0%)
Density matrix formation    ....       0.163 sec  (  1.7%)
Total Energy calculation    ....       0.026 sec  (  0.3%)
Population analysis         ....       0.106 sec  (  1.1%)
Orbital Transformation      ....       0.055 sec  (  0.6%)
Orbital Orthonormalization  ....       0.000 sec  (  0.0%)
DIIS solution               ....       0.316 sec  (  3.3%)
  MO trafo                  ....       0.000 sec  (  0.0 % of DIIS)
  Orb grad                  ....       0.000 sec  (  0.0 % of DIIS)
  Energy W gradient         ....       0.000 sec  (  0.0 % of DIIS)
  DIIS error                ....       0.006 sec  (  2.0 % of DIIS)
  DIIS work                 ....       0.265 sec  ( 83.8 % of DIIS)
  Form Q                    ....       0.000 sec  (  0.0 % of DIIS)
  Form QpQm                 ....       0.000 sec  (  0.0 % of DIIS)
  Exp/Cayley                ....       0.000 sec  (  0.0 % of DIIS)
  Orb update                ....       0.000 sec  (  0.0 % of DIIS)
  Wake-sleep                ....       0.014 sec  (  4.3 % of DIIS)
SOSCF solution              ....       0.079 sec  (  0.8%)
  MO trafo                  ....       0.042 sec  ( 53.6 % of SOSCF)
  Orb grad                  ....       0.002 sec  (  2.0 % of SOSCF)
  Rot update                ....       0.016 sec  ( 20.0 % of SOSCF)
  Step                      ....       0.019 sec  ( 24.3 % of SOSCF)
Finished LeanSCF after   9.5 sec

Maximum memory used throughout the entire LEANSCF-calculation: 18.2 MB


-------------------------------------------------------------------------------
                          DFT DISPERSION CORRECTION                            
                                                                               
                                DFTD4 V3.4.0                                   
-------------------------------------------------------------------------------
The PBE functional is recognized
Active option DFTDOPT                   ...         5   

-------------------------   ----------------
Dispersion correction           -0.024535002
-------------------------   ----------------

------------------   -----------------
gCP correction             0.154157612
------------------   -----------------

-------------------------   --------------------
FINAL SINGLE POINT ENERGY      -685.689761621976
-------------------------   --------------------


------------------------------------------------------------------------------
                              ORCA PROPERTY CALCULATIONS
------------------------------------------------------------------------------

GBWName                                 ... sp.gbw
Number of atoms                         ...     24
Number of basis functions               ...    192
Max core memory                         ...   1024 MB

Electric properties:
Dipole moment                           ... YES
Quadrupole moment                       ...  NO
Static polarizability (Dipole/Dipole)   ...  NO
Static polarizability (Dipole/Quad.)    ...  NO
Static polarizability (Quad./Quad.)     ...  NO
Static polarizability (Velocity)        ...  NO

Atomic electric properties:
Dipole moment                           ...  NO
Quadrupole moment                       ...  NO
Static polarizability                   ...  NO

Choice of electric origin               ... Center of mass
Position of electric origin             ...    -0.000004    -0.000004     0.000001

General magnetic properties:
Magnetizability                         ...  NO

EPR properties:
g-Tensor (aka g-matrix)                 ...  NO
Zero-Field splitting spin-orbit         ...  NO
Zero-field splitting spin-spin          ...  NO
Hyperfine couplings                     ...  NO (   0 nuclei)
Quadrupole couplings                    ...  NO (   0 nuclei)
Contact density                         ...  NO (   0 nuclei)

NMR properties:
Chemical shifts                         ...  NO (   0 nuclei)
Spin-rotation constants                 ...  NO (   0 nuclei)
Spin-spin couplings                     ...  NO (   0 nuclei,    0 pairs)

Choice of magnetic origin               ... GIAO
Position of magnetic origin             ...     0.000000     0.000000     0.000000

Properties with geometric perturbations:
SCF Hessian                             ...  NO
IR spectrum                             ...  NO
VCD spectrum                            ...  NO
X-ray spectroscopy properties:
SCF XES/XAS/RIXS spectra                ...  NO


-------------
DIPOLE MOMENT
-------------

Method             : SCF
Type of density    : Electron Density
Multiplicity       :   1
Irrep              :   0
Energy             :  -685.8193842313183950 Eh
Relativity type    : 
Basis              : AO
                                X                 Y                 Z
Electronic contribution:      1.592864184       0.830522635       0.925702569
Nuclear contribution   :     -1.494588336      -1.083917213      -0.500996026
                        -----------------------------------------
Total Dipole Moment    :      0.098275848      -0.253394578       0.424706543
                        -----------------------------------------
Magnitude (a.u.)       :      0.504224753
Magnitude (Debye)      :      1.281637469



--------------------
Rotational spectrum 
--------------------
 
Rotational constants in cm-1:             0.037054             0.029025             0.019446 
Rotational constants in MHz :          1110.862921           870.141693           582.978909 

Dipole components along the rotational axes: 
x,y,z [a.u.] :     0.039789    -0.241819     0.440662 
x,y,z [Debye]:     0.101135    -0.614656     1.120073 

 

Dipole moment calculation done in   0.0 sec 

Maximum memory used throughout the entire PROP-calculation: 11.9 MB

--------------------------------
SUGGESTED CITATIONS FOR THIS RUN
--------------------------------

Below you find a list of papers that are relevant to this ORCA run
We neither can nor want to force you to cite these papers, but we appreciate if you do
You receive ORCA, which is the product of decades of hard work by many enthusiastic individuals, for free
The only thing we kindly ask in return is that you cite our papers,
We deeply appreciate it, if you show your appreciation for ORCA by not just citing the generic ORCA reference.

Please note that relegating all ORCA citations to the supporting information does *not* help us.
SI sections are not indexed - citations you put there will not count into any citation statistics
But we need these citations in order to attract the funding resources that allow us to do what we are doing

Therefore, if you are a happy ORCA user, please consider citing a few of the papers listed below in the main body of your paper

In addition to the list printed below, the program has created the file sp.bibtex that contains the list in bibtex format
You can import this file easily into all common literature databanks and citation aid programs


List of essential papers. We consider these as the minimum necessary citations

  1. Neese,F.
     Software update: the ORCA program system, version 5.0
     WIRES Comput. Molec. Sci., 2022 12(1)e1606
     doi.org/10.1002/wcms.1606

List of papers to cite with high priority. The work reported in these papers was absolutely
necessary for this run to complete.
Our perspective: the developers of density functionals and basis sets usually get cited in chemistry papers
Good! But without the algorithms to do something with them, the functionals or basis sets would not do anything.
Hence, in our opinion, the algorithm design and method developments papers are equally worthy of getting cited

  1. Neese,F.
     An improvement of the resolution of the identity approximation for the formation of the Coulomb matrix
     J. Comp. Chem., 2003 24(14)1740-1747
     doi.org/10.1002/jcc.10318
  2. Neese,F.
     The SHARK Integral Generation and Digestion System
     J. Comp. Chem., 2022  1-16
     doi.org/10.1002/jcc.26942
  3. Caldeweyher,E.; Bannwarth,C.; Grimme,S.
     Extension of the D3 dispersion coefficient model
     J. Chem. Phys., 2017 147 034112-XXXX
     doi.org/10.1063/1.4993215
  4. Caldeweyher,E.; Ehlert,S.; Hansen,A.; Neugebauer,H.; Spicher,S.; Bannwarth,C.; Grimme,S.
     A generally applicable atomic-charge dependent London dispersion correction
     J. Chem. Phys., 2019 150 154122-XXXX
     doi.org/10.1063/1.5090222
  5. Caldeweyher,E.; Mewes,J.; Ehlert,S.; Grimme,S.
     Extension and evaluation of the D4 London-dispersion model for periodic systems
     Phys. Chem. Chem. Phys., 2020 22(16)8499-8512
     doi.org/10.1039/D0CP00502A

List of suggested additional citations. These are papers that are important in the 'surrounding' of 
of this run, or papers that preceded the highly important papers. If you like your results we are grateful for a citation.

  1. Neese,F.
     The ORCA program system
     WIRES Comput. Molec. Sci., 2012 2(1)73-78
     doi.org/10.1002/wcms.81
  2. Neese,F.
     Software update: the ORCA program system, version 4.0
     WIRES Comput. Molec. Sci., 2018 8(1)1-6
     doi.org/10.1002/wcms.1327
  3. Neese,F.; Wennmohs,F.; Becker,U.; Riplinger,C.
     The ORCA quantum chemistry program package
     J. Chem. Phys., 2020 152 Art. No. L224108
     doi.org/10.1063/5.0004608

List of optional additional citations

  1. Neese,F.
     Approximate second-order SCF convergence for spin unrestricted wavefunctions
     Chem. Phys. Lett., 2000 325(1-3)93-98
     doi.org/10.1016/s0009-2614(00)00662-x

Timings for individual modules:

Sum of individual times          ...       11.678 sec (=   0.195 min)
Startup calculation              ...        0.958 sec (=   0.016 min)   8.2 %
SCF iterations                   ...       10.613 sec (=   0.177 min)  90.9 %
Property calculations            ...        0.107 sec (=   0.002 min)   0.9 %
                             ****ORCA TERMINATED NORMALLY****
TOTAL RUN TIME: 0 days 0 hours 0 minutes 12 seconds 338 msec
