      -----------------------------------------------------------      
     |                   =====================                   |     
     |                           x T B                           |     
     |                   =====================                   |     
     |                         S. Grimme                         |     
     |          Mulliken Center for Theoretical Chemistry        |     
     |                    University of Bonn                     |     
      -----------------------------------------------------------      

   * xtb version 6.7.1 (edcfbbe) compiled by 'albert@albert-system' on 2024-07-22

   xtb is free software: you can redistribute it and/or modify it under
   the terms of the GNU Lesser General Public License as published by
   the Free Software Foundation, either version 3 of the License, or
   (at your option) any later version.
   
   xtb is distributed in the hope that it will be useful,
   but WITHOUT ANY WARRANTY; without even the implied warranty of
   MERCHANTABILITY or FITNESS FOR A PARTICULAR PURPOSE.  See the
   GNU Lesser General Public License for more details.
   
   Cite this work as:
   * C. Bannwarth, E. Caldeweyher, S. Ehlert, A. Hansen, P. Pracht,
     J. Seibert, S. Spicher, S. Grimme, WIREs Comput. Mol. Sci., 2020, 11,
     e01493. DOI: 10.1002/wcms.1493
   
   for GFN2-xTB:
   * C. Bannwarth, S. Ehlert and S. Grimme., J. Chem. Theory Comput., 2019,
     15, 1652-1671. DOI: 10.1021/acs.jctc.8b01176
   for GFN1-xTB:
   * S. Grimme, C. Bannwarth, P. Shushkov, J. Chem. Theory Comput., 2017,
     13, 1989-2009. DOI: 10.1021/acs.jctc.7b00118
   for GFN0-xTB:
   * P. Pracht, E. Caldeweyher, S. Ehlert, S. Grimme, ChemRxiv, 2019, preprint.
     DOI: 10.26434/chemrxiv.8326202.v1
   for GFN-FF:
   * S. Spicher and S. Grimme, Angew. Chem. Int. Ed., 2020, 59, 15665-15673.
     DOI: 10.1002/anie.202004239
   
   for ALPB and GBSA implicit solvation:
   * S. Ehlert, M. Stahn, S. Spicher, S. Grimme, J. Chem. Theory Comput.,
     2021, 17, 4250-4261. DOI: 10.1021/acs.jctc.1c00471
   
   for ddCOSMO and CPCM-X implicit solvation:
   * M. Stahn, S. Ehlert, S. Grimme, J. Phys. Chem. A,
     2023, XX, XXXX-XXXX. DOI: 10.1021/acs.jpca.3c04382
   
   for DFT-D4:
   * E. Caldeweyher, C. Bannwarth and S. Grimme, J. Chem. Phys., 2017,
     147, 034112. DOI: 10.1063/1.4993215
   * E. Caldeweyher, S. Ehlert, A. Hansen, H. Neugebauer, S. Spicher,
     C. Bannwarth and S. Grimme, J. Chem. Phys., 2019, 150, 154122.
     DOI: 10.1063/1.5090222
   * E. Caldeweyher, J.-M. Mewes, S. Ehlert and S. Grimme, Phys. Chem. Chem. Phys.
     2020, 22, 8499-8512. DOI: 10.1039/D0CP00502A
   
   for sTDA-xTB:
   * S. Grimme and C. Bannwarth, J. Chem. Phys., 2016, 145, 054103.
     DOI: 10.1063/1.4959605
   
   in the mass-spec context:
   * V. Asgeirsson, C. Bauer and S. Grimme, Chem. Sci., 2017, 8, 4879.
     DOI: 10.1039/c7sc00601b
   * J. Koopman and S. Grimme, ACS Omega 2019, 4, 12, 15120-15133.
     DOI: 10.1021/acsomega.9b02011
   
   for metadynamics refer to:
   * S. Grimme, J. Chem. Theory Comput., 2019, 155, 2847-2862
     DOI: 10.1021/acs.jctc.9b00143
   
   for SPH calculations refer to:
   * S. Spicher and S. Grimme, J. Chem. Theory Comput., 2021, 17, 1701-1714
     DOI: 10.1021/acs.jctc.0c01306
   
   for ONIOM refer to:
   * C. Plett, A. Katbashev, S. Ehlert, S. Grimme, M. Bursch,
     Phys. Chem. Chem. Phys., 2023, 25, 17860-17868. DOI: 10.1039/D3CP02178E
   
   for DIPRO refer to:
   * J. Kohn, N. Gildemeister, S. Grimme, D. Fazzi, A. Hansen,
     J. Chem. Phys., 2023, just accepted.
   
   for PTB refer to:
   * S. Grimme, M. Mueller, A. Hansen, J. Chem. Phys., 2023, 158, 124111.
     DOI: 10.1063/5.0137838
   
   with help from (in alphabetical order)
   P. Atkinson, C. Bannwarth, F. Bohle, G. Brandenburg, E. Caldeweyher
   M. Checinski, S. Dohm, S. Ehlert, S. Ehrlich, I. Gerasimov, C. Hölzer
   A. Katbashev, J. Kohn, J. Koopman, C. Lavigne, S. Lehtola, F. März, M. Müller,
   F. Musil, H. Neugebauer, J. Pisarek, C. Plett, P. Pracht, F. Pultar,
   J. Seibert, P. Shushkov, S. Spicher, M. Stahn, M. Steiner, T. Strunk,
   J. Stückrath, T. Rose, and J. Unsleber
   
 * started run on 2025/04/04 at 20:21:46.291     
   ID    Z sym.   atoms
    1    6 C      1-3, 5
    2    1 H      4, 7-15
    3    8 O      6

           -------------------------------------------------
          |                Calculation Setup                |
           -------------------------------------------------

          program call               : /srv/scratch/z5358697/.xtb/bin/xtb solv.coord --gfn2 --sp --chrg 0 --norestart --parallel 1 --alpb water reference -I xtb_sp-xcontrol-inp
          hostname                   : k156
          coordinate file            : solv.coord
          omp threads                :                     1


           -------------------------------------------------
          |                 G F N 2 - x T B                 |
           -------------------------------------------------

        Reference                      10.1021/acs.jctc.8b01176
      * Hamiltonian:
        H0-scaling (s, p, d)           1.850000    2.230000    2.230000
        zeta-weighting                 0.500000
      * Dispersion:
        s8                             2.700000
        a1                             0.520000
        a2                             5.000000
        s9                             5.000000
      * Repulsion:
        kExp                           1.500000    1.000000
        rExp                           1.000000
      * Coulomb:
        alpha                          2.000000
        third order                    shell-resolved
        anisotropic                    true
        a3                             3.000000
        a5                             4.000000
        cn-shift                       1.200000
        cn-exp                         4.000000
        max-rad                        5.000000

      * Solvation model:               ALPB
        Solvent                        water
        Parameter file                 internal GFN2-xTB/ALPB
        Dielectric constant                8.0200E+01
        Reference state                gsolv=reference [X=1]
        Free energy shift                  2.8945E-03 Eh       1.8164E+00 kcal/mol
        Temperature                        2.9815E+02 K
        Density                            1.0000E+00 kg/L
        Solvent mass                       1.8000E+01 g/mol
        Interaction kernel             P16
        Born radius scaling (c1)           1.4744E+00
        Born radii integrator          GBOBC
        Born offset                        0.0000E+00 a0       0.0000E+00 AA
        H-bond correction              true
        Ion screening                  false
        Surface tension                    1.0000E-05 Eh       1.5569E+01 dyn/cm
        Grid points                               974 per atom

          ...................................................
          :                      SETUP                      :
          :.................................................:
          :  # basis functions                  30          :
          :  # atomic orbitals                  30          :
          :  # shells                           20          :
          :  # electrons                        32          :
          :  max. iterations                   250          :
          :  Hamiltonian                  GFN2-xTB          :
          :  restarted?                      false          :
          :  GBSA solvation                   true          :
          :  PC potential                    false          :
          :  electronic temp.          300.0000000     K    :
          :  accuracy                    1.0000000          :
          :  -> integral cutoff          0.2500000E+02      :
          :  -> integral neglect         0.1000000E-07      :
          :  -> SCF convergence          0.1000000E-05 Eh   :
          :  -> wf. convergence          0.1000000E-03 e    :
          :  Broyden damping             0.4000000          :
          :  net charge                          0          :
          :  unpaired electrons                  0          :
          ...................................................

 iter      E             dE          RMSdq      gap      omega  full diag
   1    -17.9200829 -0.179201E+02  0.324E+00   12.47       0.0  T
   2    -17.9436228 -0.235399E-01  0.173E+00   12.26       1.0  T
   3    -17.9443504 -0.727567E-03  0.591E-01   12.26       1.0  T
   4    -17.9445838 -0.233448E-03  0.139E-01   12.24       1.0  T
   5    -17.9446338 -0.499144E-04  0.701E-02   12.26       1.0  T
   6    -17.9446363 -0.259177E-05  0.125E-02   12.27       2.1  T
   7    -17.9446366 -0.256444E-06  0.569E-03   12.26       4.5  T
   8    -17.9446367 -0.605782E-07  0.226E-03   12.26      11.4  T
   9    -17.9446367 -0.570405E-08  0.598E-04   12.26      43.2  T
  10    -17.9446367 -0.716739E-09  0.159E-04   12.26     162.4  T

   *** convergence criteria satisfied after 10 iterations ***

         #    Occupation            Energy/Eh            Energy/eV
      -------------------------------------------------------------
         1        2.0000           -0.6832089             -18.5911
       ...           ...                  ...                  ...
        10        2.0000           -0.4750218             -12.9260
        11        2.0000           -0.4644782             -12.6391
        12        2.0000           -0.4617549             -12.5650
        13        2.0000           -0.4448036             -12.1037
        14        2.0000           -0.4295030             -11.6874
        15        2.0000           -0.4249615             -11.5638
        16        2.0000           -0.4042037             -10.9989 (HOMO)
        17                          0.0465126               1.2657 (LUMO)
        18                          0.0910524               2.4777
        19                          0.1066928               2.9033
        20                          0.1206056               3.2818
        21                          0.1476833               4.0187
       ...                                ...                  ...
        30                          0.3040051               8.2724
      -------------------------------------------------------------
                  HL-Gap            0.4507164 Eh           12.2646 eV
             Fermi-level           -0.1788455 Eh           -4.8666 eV

 SCC (total)                   0 d,  0 h,  0 min,  0.008 sec
 SCC setup                      ...        0 min,  0.001 sec (  8.482%)
 Dispersion                     ...        0 min,  0.000 sec (  0.647%)
 classical contributions        ...        0 min,  0.000 sec (  0.151%)
 integral evaluation            ...        0 min,  0.001 sec (  8.785%)
 iterations                     ...        0 min,  0.005 sec ( 58.401%)
 molecular gradient             ...        0 min,  0.002 sec ( 22.291%)
 printout                       ...        0 min,  0.000 sec (  1.091%)

         :::::::::::::::::::::::::::::::::::::::::::::::::::::
         ::                     SUMMARY                     ::
         :::::::::::::::::::::::::::::::::::::::::::::::::::::
         :: total energy             -17.729221111068 Eh    ::
         :: total w/o Gsasa/hb       -17.726992947723 Eh    ::
         :: gradient norm              0.000122579490 Eh/a0 ::
         :: HOMO-LUMO gap             12.264616206539 eV    ::
         ::.................................................::
         :: SCC energy               -17.944623330061 Eh    ::
         :: -> isotropic ES            0.036343780157 Eh    ::
         :: -> anisotropic ES          0.003514661502 Eh    ::
         :: -> anisotropic XC          0.006102818363 Eh    ::
         :: -> dispersion             -0.007509797273 Eh    ::
         :: -> Gsolv                  -0.006606804149 Eh    ::
         ::    -> Gelec               -0.004378640804 Eh    ::
         ::    -> Gsasa                0.000276682045 Eh    ::
         ::    -> Ghb                 -0.005399394550 Eh    ::
         ::    -> Gshift               0.002894549160 Eh    ::
         :: repulsion energy           0.215402218993 Eh    ::
         :: add. restraining           0.000000000000 Eh    ::
         :: total charge              -0.000000000000 e     ::
         :::::::::::::::::::::::::::::::::::::::::::::::::::::

           -------------------------------------------------
          |                Property Printout                |
           -------------------------------------------------

    * Orbital Energies and Occupations

         #    Occupation            Energy/Eh            Energy/eV
      -------------------------------------------------------------
         1        2.0000           -0.6832089             -18.5911
       ...           ...                  ...                  ...
         4        2.0000           -0.5876702             -15.9913
         5        2.0000           -0.5619415             -15.2912
         6        2.0000           -0.5479977             -14.9118
         7        2.0000           -0.5185278             -14.1099
         8        2.0000           -0.5130401             -13.9605
         9        2.0000           -0.4860718             -13.2267
        10        2.0000           -0.4750218             -12.9260
        11        2.0000           -0.4644782             -12.6391
        12        2.0000           -0.4617549             -12.5650
        13        2.0000           -0.4448036             -12.1037
        14        2.0000           -0.4295030             -11.6874
        15        2.0000           -0.4249615             -11.5638
        16        2.0000           -0.4042037             -10.9989 (HOMO)
        17                          0.0465126               1.2657 (LUMO)
        18                          0.0910524               2.4777
        19                          0.1066928               2.9033
        20                          0.1206056               3.2818
        21                          0.1476833               4.0187
        22                          0.1580774               4.3015
        23                          0.1792209               4.8768
        24                          0.2046305               5.5683
        25                          0.2177983               5.9266
        26                          0.2395498               6.5185
        27                          0.2432346               6.6187
       ...                                ...                  ...
        30                          0.3040051               8.2724
      -------------------------------------------------------------
                  HL-Gap            0.4507164 Eh           12.2646 eV
             Fermi-level           -0.1788455 Eh           -4.8666 eV

     #   Z          covCN         q      C6AA      α(0)
     1   6 C        3.751    -0.110    22.673     6.790
     2   6 C        3.801    -0.065    21.741     6.639
     3   6 C        3.722     0.120    18.725     6.180
     4   1 H        0.923     0.005     2.977     2.698
     5   6 C        3.751    -0.130    23.062     6.848
     6   8 O        1.655    -0.520    23.324     6.520
     7   1 H        0.925     0.038     2.473     2.459
     8   1 H        0.925     0.047     2.359     2.402
     9   1 H        0.925     0.043     2.415     2.430
    10   1 H        0.924     0.041     2.434     2.440
    11   1 H        0.924     0.037     2.492     2.469
    12   1 H        0.925     0.055     2.254     2.348
    13   1 H        0.925     0.048     2.342     2.393
    14   1 H        0.925     0.043     2.404     2.424
    15   1 H        0.805     0.348     0.593     1.210

 Mol. C6AA /au·bohr⁶  :       1457.381347
 Mol. C8AA /au·bohr⁸  :      29881.934284
 Mol. α(0) /au        :         56.250259


Wiberg/Mayer (AO) data.
largest (>0.10) Wiberg bond orders for each atom

 ---------------------------------------------------------------------------
     #   Z sym  total        # sym  WBO       # sym  WBO       # sym  WBO
 ---------------------------------------------------------------------------
     1   6 C    3.996 --     2 C    1.020     7 H    0.987     8 H    0.987
                             9 H    0.987
     2   6 C    3.997 --     1 C    1.020     3 C    0.992    11 H    0.978
                            10 H    0.977
     3   6 C    3.952 --     5 C    1.002     2 C    0.992     6 O    0.979
                             4 H    0.963
     4   1 H    1.000 --     3 C    0.963
     5   6 C    3.994 --     3 C    1.002    14 H    0.985    13 H    0.985
                            12 H    0.984
     6   8 O    1.910 --     3 C    0.979    15 H    0.863
     7   1 H    0.999 --     1 C    0.987
     8   1 H    0.998 --     1 C    0.987
     9   1 H    0.998 --     1 C    0.987
    10   1 H    0.998 --     2 C    0.977
    11   1 H    0.999 --     2 C    0.978
    12   1 H    0.997 --     5 C    0.984
    13   1 H    0.998 --     5 C    0.985
    14   1 H    0.998 --     5 C    0.985
    15   1 H    0.879 --     6 O    0.863
 ---------------------------------------------------------------------------

Topologies differ in total number of bonds
Writing topology from bond orders to xtbtopo.mol

molecular dipole:
                 x           y           z       tot (Debye)
 q only:       -0.476       0.383       0.103
   full:       -0.668       0.433       0.054       2.028
molecular quadrupole (traceless):
                xx          xy          yy          xz          yz          zz
 q only:        2.586       2.134      -1.659      -0.518      -0.426      -0.927
  q+dip:        3.305       2.731      -2.500      -0.555      -0.354      -0.804
   full:        3.411       2.789      -2.364      -0.596      -0.497      -1.047


           -------------------------------------------------
          | TOTAL ENERGY              -17.729221111068 Eh   |
          | GRADIENT NORM               0.000122579490 Eh/α |
          | HOMO-LUMO GAP              12.264616206539 eV   |
           -------------------------------------------------

------------------------------------------------------------------------
 * finished run on 2025/04/04 at 20:21:46.326     
------------------------------------------------------------------------
 total:
 * wall-time:     0 d,  0 h,  0 min,  0.035 sec
 *  cpu-time:     0 d,  0 h,  0 min,  0.012 sec
 * ratio c/w:     0.339 speedup
 SCF:
 * wall-time:     0 d,  0 h,  0 min,  0.008 sec
 *  cpu-time:     0 d,  0 h,  0 min,  0.006 sec
 * ratio c/w:     0.783 speedup

