      -----------------------------------------------------------      
     |                   =====================                   |     
     |                           x T B                           |     
     |                   =====================                   |     
     |                         S. Grimme                         |     
     |          Mulliken Center for Theoretical Chemistry        |     
     |                    University of Bonn                     |     
      -----------------------------------------------------------      

   * xtb version 6.7.1 (edcfbbe) compiled by 'albert@albert-system' on 2024-07-22

   xtb is free software: you can redistribute it and/or modify it under
   the terms of the GNU Lesser General Public License as published by
   the Free Software Foundation, either version 3 of the License, or
   (at your option) any later version.
   
   xtb is distributed in the hope that it will be useful,
   but WITHOUT ANY WARRANTY; without even the implied warranty of
   MERCHANTABILITY or FITNESS FOR A PARTICULAR PURPOSE.  See the
   GNU Lesser General Public License for more details.
   
   Cite this work as:
   * C. Bannwarth, E. Caldeweyher, S. Ehlert, A. Hansen, P. Pracht,
     J. Seibert, S. Spicher, S. Grimme, WIREs Comput. Mol. Sci., 2020, 11,
     e01493. DOI: 10.1002/wcms.1493
   
   for GFN2-xTB:
   * C. Bannwarth, S. Ehlert and S. Grimme., J. Chem. Theory Comput., 2019,
     15, 1652-1671. DOI: 10.1021/acs.jctc.8b01176
   for GFN1-xTB:
   * S. Grimme, C. Bannwarth, P. Shushkov, J. Chem. Theory Comput., 2017,
     13, 1989-2009. DOI: 10.1021/acs.jctc.7b00118
   for GFN0-xTB:
   * P. Pracht, E. Caldeweyher, S. Ehlert, S. Grimme, ChemRxiv, 2019, preprint.
     DOI: 10.26434/chemrxiv.8326202.v1
   for GFN-FF:
   * S. Spicher and S. Grimme, Angew. Chem. Int. Ed., 2020, 59, 15665-15673.
     DOI: 10.1002/anie.202004239
   
   for ALPB and GBSA implicit solvation:
   * S. Ehlert, M. Stahn, S. Spicher, S. Grimme, J. Chem. Theory Comput.,
     2021, 17, 4250-4261. DOI: 10.1021/acs.jctc.1c00471
   
   for ddCOSMO and CPCM-X implicit solvation:
   * M. Stahn, S. Ehlert, S. Grimme, J. Phys. Chem. A,
     2023, XX, XXXX-XXXX. DOI: 10.1021/acs.jpca.3c04382
   
   for DFT-D4:
   * E. Caldeweyher, C. Bannwarth and S. Grimme, J. Chem. Phys., 2017,
     147, 034112. DOI: 10.1063/1.4993215
   * E. Caldeweyher, S. Ehlert, A. Hansen, H. Neugebauer, S. Spicher,
     C. Bannwarth and S. Grimme, J. Chem. Phys., 2019, 150, 154122.
     DOI: 10.1063/1.5090222
   * E. Caldeweyher, J.-M. Mewes, S. Ehlert and S. Grimme, Phys. Chem. Chem. Phys.
     2020, 22, 8499-8512. DOI: 10.1039/D0CP00502A
   
   for sTDA-xTB:
   * S. Grimme and C. Bannwarth, J. Chem. Phys., 2016, 145, 054103.
     DOI: 10.1063/1.4959605
   
   in the mass-spec context:
   * V. Asgeirsson, C. Bauer and S. Grimme, Chem. Sci., 2017, 8, 4879.
     DOI: 10.1039/c7sc00601b
   * J. Koopman and S. Grimme, ACS Omega 2019, 4, 12, 15120-15133.
     DOI: 10.1021/acsomega.9b02011
   
   for metadynamics refer to:
   * S. Grimme, J. Chem. Theory Comput., 2019, 155, 2847-2862
     DOI: 10.1021/acs.jctc.9b00143
   
   for SPH calculations refer to:
   * S. Spicher and S. Grimme, J. Chem. Theory Comput., 2021, 17, 1701-1714
     DOI: 10.1021/acs.jctc.0c01306
   
   for ONIOM refer to:
   * C. Plett, A. Katbashev, S. Ehlert, S. Grimme, M. Bursch,
     Phys. Chem. Chem. Phys., 2023, 25, 17860-17868. DOI: 10.1039/D3CP02178E
   
   for DIPRO refer to:
   * J. Kohn, N. Gildemeister, S. Grimme, D. Fazzi, A. Hansen,
     J. Chem. Phys., 2023, just accepted.
   
   for PTB refer to:
   * S. Grimme, M. Mueller, A. Hansen, J. Chem. Phys., 2023, 158, 124111.
     DOI: 10.1063/5.0137838
   
   with help from (in alphabetical order)
   P. Atkinson, C. Bannwarth, F. Bohle, G. Brandenburg, E. Caldeweyher
   M. Checinski, S. Dohm, S. Ehlert, S. Ehrlich, I. Gerasimov, C. Hölzer
   A. Katbashev, J. Kohn, J. Koopman, C. Lavigne, S. Lehtola, F. März, M. Müller,
   F. Musil, H. Neugebauer, J. Pisarek, C. Plett, P. Pracht, F. Pultar,
   J. Seibert, P. Shushkov, S. Spicher, M. Stahn, M. Steiner, T. Strunk,
   J. Stückrath, T. Rose, and J. Unsleber
   
 * started run on 2025/04/06 at 18:00:48.045     
   ID    Z sym.   atoms
    1    6 C      1, 2, 4, 6, 8, 10
    2    1 H      3, 5, 7, 9, 11, 18-24
    3    8 O      12-17

           -------------------------------------------------
          |                Calculation Setup                |
           -------------------------------------------------

          program call               : /srv/scratch/z5358697/.xtb/bin/xtb solv.coord --gfn2 --sp --chrg 0 --norestart --parallel 1 --alpb water reference -I xtb_sp-xcontrol-inp
          hostname                   : k155
          coordinate file            : solv.coord
          omp threads                :                     1


           -------------------------------------------------
          |                 G F N 2 - x T B                 |
           -------------------------------------------------

        Reference                      10.1021/acs.jctc.8b01176
      * Hamiltonian:
        H0-scaling (s, p, d)           1.850000    2.230000    2.230000
        zeta-weighting                 0.500000
      * Dispersion:
        s8                             2.700000
        a1                             0.520000
        a2                             5.000000
        s9                             5.000000
      * Repulsion:
        kExp                           1.500000    1.000000
        rExp                           1.000000
      * Coulomb:
        alpha                          2.000000
        third order                    shell-resolved
        anisotropic                    true
        a3                             3.000000
        a5                             4.000000
        cn-shift                       1.200000
        cn-exp                         4.000000
        max-rad                        5.000000

      * Solvation model:               ALPB
        Solvent                        water
        Parameter file                 internal GFN2-xTB/ALPB
        Dielectric constant                8.0200E+01
        Reference state                gsolv=reference [X=1]
        Free energy shift                  2.8945E-03 Eh       1.8164E+00 kcal/mol
        Temperature                        2.9815E+02 K
        Density                            1.0000E+00 kg/L
        Solvent mass                       1.8000E+01 g/mol
        Interaction kernel             P16
        Born radius scaling (c1)           1.4744E+00
        Born radii integrator          GBOBC
        Born offset                        0.0000E+00 a0       0.0000E+00 AA
        H-bond correction              true
        Ion screening                  false
        Surface tension                    1.0000E-05 Eh       1.5569E+01 dyn/cm
        Grid points                               974 per atom

          ...................................................
          :                      SETUP                      :
          :.................................................:
          :  # basis functions                  60          :
          :  # atomic orbitals                  60          :
          :  # shells                           36          :
          :  # electrons                        72          :
          :  max. iterations                   250          :
          :  Hamiltonian                  GFN2-xTB          :
          :  restarted?                      false          :
          :  GBSA solvation                   true          :
          :  PC potential                    false          :
          :  electronic temp.          300.0000000     K    :
          :  accuracy                    1.0000000          :
          :  -> integral cutoff          0.2500000E+02      :
          :  -> integral neglect         0.1000000E-07      :
          :  -> SCF convergence          0.1000000E-05 Eh   :
          :  -> wf. convergence          0.1000000E-03 e    :
          :  Broyden damping             0.4000000          :
          :  net charge                          0          :
          :  unpaired electrons                  0          :
          ...................................................

 iter      E             dE          RMSdq      gap      omega  full diag
   1    -43.6509018 -0.436509E+02  0.482E+00   10.32       0.0  T
   2    -43.6801640 -0.292622E-01  0.259E+00   10.32       1.0  T
   3    -43.6823475 -0.218348E-02  0.551E-01   10.28       1.0  T
   4    -43.6825550 -0.207527E-03  0.174E-01   10.30       1.0  T
   5    -43.6826035 -0.484622E-04  0.543E-02   10.31       1.0  T
   6    -43.6826158 -0.123689E-04  0.222E-02   10.32       1.0  T
   7    -43.6826167 -0.863568E-06  0.598E-03   10.32       3.4  T
   8    -43.6826169 -0.206580E-06  0.204E-03   10.32      10.0  T
   9    -43.6826169 -0.108227E-07  0.756E-04   10.32      27.0  T
  10    -43.6826169 -0.227666E-08  0.300E-04   10.32      68.2  T

   *** convergence criteria satisfied after 10 iterations ***

         #    Occupation            Energy/Eh            Energy/eV
      -------------------------------------------------------------
         1        2.0000           -0.7212309             -19.6257
       ...           ...                  ...                  ...
        30        2.0000           -0.4610120             -12.5448
        31        2.0000           -0.4456237             -12.1260
        32        2.0000           -0.4365654             -11.8795
        33        2.0000           -0.4249545             -11.5636
        34        2.0000           -0.4205038             -11.4425
        35        2.0000           -0.4129521             -11.2370
        36        2.0000           -0.3972689             -10.8102 (HOMO)
        37                         -0.0181575              -0.4941 (LUMO)
        38                         -0.0024800              -0.0675
        39                          0.0227397               0.6188
        40                          0.0296927               0.8080
        41                          0.0435875               1.1861
       ...                                ...                  ...
        60                          0.2940083               8.0004
      -------------------------------------------------------------
                  HL-Gap            0.3791113 Eh           10.3161 eV
             Fermi-level           -0.2077132 Eh           -5.6522 eV

 SCC (total)                   0 d,  0 h,  0 min,  0.029 sec
 SCC setup                      ...        0 min,  0.002 sec (  5.291%)
 Dispersion                     ...        0 min,  0.000 sec (  0.478%)
 classical contributions        ...        0 min,  0.000 sec (  0.095%)
 integral evaluation            ...        0 min,  0.003 sec (  9.558%)
 iterations                     ...        0 min,  0.016 sec ( 57.506%)
 molecular gradient             ...        0 min,  0.008 sec ( 26.563%)
 printout                       ...        0 min,  0.000 sec (  0.463%)

         :::::::::::::::::::::::::::::::::::::::::::::::::::::
         ::                     SUMMARY                     ::
         :::::::::::::::::::::::::::::::::::::::::::::::::::::
         :: total energy             -43.382786191939 Eh    ::
         :: total w/o Gsasa/hb       -43.367141473595 Eh    ::
         :: gradient norm              0.000019452935 Eh/a0 ::
         :: HOMO-LUMO gap             10.316144902501 eV    ::
         ::.................................................::
         :: SCC energy               -43.682426378488 Eh    ::
         :: -> isotropic ES            0.171182357514 Eh    ::
         :: -> anisotropic ES         -0.005752742551 Eh    ::
         :: -> anisotropic XC         -0.009557345418 Eh    ::
         :: -> dispersion             -0.020816355499 Eh    ::
         :: -> Gsolv                  -0.034115177746 Eh    ::
         ::    -> Gelec               -0.018470459402 Eh    ::
         ::    -> Gsasa                0.004024871563 Eh    ::
         ::    -> Ghb                 -0.022564139067 Eh    ::
         ::    -> Gshift               0.002894549160 Eh    ::
         :: repulsion energy           0.299640186549 Eh    ::
         :: add. restraining           0.000000000000 Eh    ::
         :: total charge              -0.000000000000 e     ::
         :::::::::::::::::::::::::::::::::::::::::::::::::::::

           -------------------------------------------------
          |                Property Printout                |
           -------------------------------------------------

    * Orbital Energies and Occupations

         #    Occupation            Energy/Eh            Energy/eV
      -------------------------------------------------------------
         1        2.0000           -0.7212309             -19.6257
       ...           ...                  ...                  ...
        24        2.0000           -0.5130271             -13.9602
        25        2.0000           -0.5007534             -13.6262
        26        2.0000           -0.4935317             -13.4297
        27        2.0000           -0.4782319             -13.0134
        28        2.0000           -0.4771310             -12.9834
        29        2.0000           -0.4677378             -12.7278
        30        2.0000           -0.4610120             -12.5448
        31        2.0000           -0.4456237             -12.1260
        32        2.0000           -0.4365654             -11.8795
        33        2.0000           -0.4249545             -11.5636
        34        2.0000           -0.4205038             -11.4425
        35        2.0000           -0.4129521             -11.2370
        36        2.0000           -0.3972689             -10.8102 (HOMO)
        37                         -0.0181575              -0.4941 (LUMO)
        38                         -0.0024800              -0.0675
        39                          0.0227397               0.6188
        40                          0.0296927               0.8080
        41                          0.0435875               1.1861
        42                          0.0555782               1.5124
        43                          0.0674122               1.8344
        44                          0.0790049               2.1498
        45                          0.1070309               2.9125
        46                          0.1188745               3.2347
        47                          0.1260215               3.4292
       ...                                ...                  ...
        60                          0.2940083               8.0004
      -------------------------------------------------------------
                  HL-Gap            0.3791113 Eh           10.3161 eV
             Fermi-level           -0.2077132 Eh           -5.6522 eV

     #   Z          covCN         q      C6AA      α(0)
     1   6 C        3.672     0.064    19.732     6.367
     2   6 C        3.732     0.091    19.163     6.248
     3   1 H        0.924     0.072     2.067     2.249
     4   6 C        3.725     0.100    19.028     6.229
     5   1 H        0.924     0.065     2.138     2.287
     6   6 C        3.725     0.107    18.915     6.210
     7   1 H        0.923     0.041     2.442     2.444
     8   6 C        3.724     0.083    19.299     6.273
     9   1 H        0.923     0.032     2.561     2.503
    10   6 C        3.613     0.239    17.321     6.007
    11   1 H        0.923     0.048     2.342     2.393
    12   8 O        1.699    -0.364    20.147     6.060
    13   8 O        1.654    -0.506    23.014     6.476
    14   8 O        1.656    -0.505    23.006     6.475
    15   8 O        1.656    -0.496    22.803     6.446
    16   8 O        1.655    -0.497    22.830     6.450
    17   8 O        1.655    -0.500    22.902     6.460
    18   1 H        0.924     0.043     2.407     2.426
    19   1 H        0.924     0.049     2.327     2.386
    20   1 H        0.802     0.360     0.565     1.181
    21   1 H        0.805     0.369     0.545     1.160
    22   1 H        0.805     0.370     0.543     1.158
    23   1 H        0.804     0.353     0.581     1.198
    24   1 H        0.805     0.380     0.522     1.135

 Mol. C6AA /au·bohr⁶  :       4721.368176
 Mol. C8AA /au·bohr⁸  :     100666.030437
 Mol. α(0) /au        :         98.219699


Wiberg/Mayer (AO) data.
largest (>0.10) Wiberg bond orders for each atom

 ---------------------------------------------------------------------------
     #   Z sym  total        # sym  WBO       # sym  WBO       # sym  WBO
 ---------------------------------------------------------------------------
     1   6 C    3.957 --    17 O    0.997     2 C    0.982    18 H    0.970
                            19 H    0.968
     2   6 C    3.943 --     1 C    0.982     4 C    0.965    12 O    0.959
                             3 H    0.955
     3   1 H    0.995 --     2 C    0.955
     4   6 C    3.958 --    16 O    1.001     6 C    0.969     2 C    0.965
                             5 H    0.958
     5   1 H    0.996 --     4 C    0.958
     6   6 C    3.960 --    15 O    1.004     4 C    0.969     8 C    0.966
                             7 H    0.956
     7   1 H    0.998 --     6 C    0.956
     8   6 C    3.956 --    14 O    0.996     6 C    0.966     9 H    0.958
                            10 C    0.946
     9   1 H    0.999 --     8 C    0.958
    10   6 C    3.933 --    13 O    1.013    12 O    0.967    11 H    0.949
                             8 C    0.946
    11   1 H    0.998 --    10 C    0.949
    12   8 O    2.074 --    10 C    0.967     2 C    0.959
    13   8 O    1.939 --    10 C    1.013    20 H    0.808
    14   8 O    1.927 --     8 C    0.996    21 H    0.846
    15   8 O    1.931 --     6 C    1.004    22 H    0.847
    16   8 O    1.929 --     4 C    1.001    23 H    0.850
    17   8 O    1.944 --     1 C    0.997    24 H    0.839
    18   1 H    0.998 --     1 C    0.970
    19   1 H    0.997 --     1 C    0.968
    20   1 H    0.870 --    13 O    0.808
    21   1 H    0.864 --    14 O    0.846
    22   1 H    0.863 --    15 O    0.847
    23   1 H    0.875 --    16 O    0.850
    24   1 H    0.855 --    17 O    0.839
 ---------------------------------------------------------------------------

Topologies differ in total number of bonds
Writing topology from bond orders to xtbtopo.mol

molecular dipole:
                 x           y           z       tot (Debye)
 q only:        0.035      -0.043      -0.578
   full:        0.193      -0.142      -0.638       1.732
molecular quadrupole (traceless):
                xx          xy          yy          xz          yz          zz
 q only:       11.677       7.904     -11.773       5.878      -3.795       0.096
  q+dip:       16.092       9.697     -12.106       6.567      -6.876      -3.986
   full:       15.822       9.685     -13.436       7.001      -6.146      -2.386


           -------------------------------------------------
          | TOTAL ENERGY              -43.382786191939 Eh   |
          | GRADIENT NORM               0.000019452935 Eh/α |
          | HOMO-LUMO GAP              10.316144902501 eV   |
           -------------------------------------------------

------------------------------------------------------------------------
 * finished run on 2025/04/06 at 18:00:48.116     
------------------------------------------------------------------------
 total:
 * wall-time:     0 d,  0 h,  0 min,  0.071 sec
 *  cpu-time:     0 d,  0 h,  0 min,  0.030 sec
 * ratio c/w:     0.418 speedup
 SCF:
 * wall-time:     0 d,  0 h,  0 min,  0.029 sec
 *  cpu-time:     0 d,  0 h,  0 min,  0.021 sec
 * ratio c/w:     0.714 speedup

