
                                 *****************
                                 * O   R   C   A *
                                 *****************

                                            #,                                       
                                            ###                                      
                                            ####                                     
                                            #####                                    
                                            ######                                   
                                           ########,                                 
                                     ,,################,,,,,                         
                               ,,#################################,,                 
                          ,,##########################################,,             
                       ,#########################################, ''#####,          
                    ,#############################################,,   '####,        
                  ,##################################################,,,,####,       
                ,###########''''           ''''###############################       
              ,#####''   ,,,,##########,,,,          '''####'''          '####       
            ,##' ,,,,###########################,,,                        '##       
           ' ,,###''''                  '''############,,,                           
         ,,##''                                '''############,,,,        ,,,,,,###''
      ,#''                                            '''#######################'''  
     '                                                          ''''####''''         
             ,#######,   #######,   ,#######,      ##                                
            ,#'     '#,  ##    ##  ,#'     '#,    #''#        ,####,   ,####,        
            ##       ##  ##   ,#'  ##            #'  '#       #'       #'  '#        
            ##       ##  #######   ##           ,######,      #####,   #    #        
            '#,     ,#'  ##    ##  '#,     ,#' ,#      #,     #,   #   #,  ,#        
             '#######'   ##     ##  '#######'  #'      '#     '####' # '####'        



                #########################################################
                #                        -***-                          #
                #          Department of theory and spectroscopy        #
                #                                                       #
                #                      Frank Neese                      #
                #                                                       #
                #     Directorship, Architecture, Infrastructure        #
                #                    SHARK, DRIVERS                     #
                #        Core code/Algorithms in most modules           #
                #                                                       #
                #        Max Planck Institute fuer Kohlenforschung      #
                #                Kaiser Wilhelm Platz 1                 #
                #                 D-45470 Muelheim/Ruhr                 #
                #                      Germany                          #
                #                                                       #
                #                  All rights reserved                  #
                #                        -***-                          #
                #########################################################


                         Program Version 6.0.0  -   RELEASE  -


 With contributions from (in alphabetic order):
   Daniel Aravena         : Magnetic Suceptibility
   Michael Atanasov       : Ab Initio Ligand Field Theory (pilot matlab implementation)
   Alexander A. Auer      : GIAO ZORA, VPT2 properties, NMR spectrum
   Ute Becker             : All parallelization in ORCA, NUMFREQ, NUMCALC
   Giovanni Bistoni       : ED, misc. LED, open-shell LED, HFLD
   Martin Brehm           : Molecular dynamics
   Dmytro Bykov           : pre 5.0 version of the SCF Hessian
   Marcos Casanova-Páez   : Triplet and SCS-CIS(D). UHF-(DLPNO)-IP/EA/STEOM-CCSD. UHF-CVS-IP/STEOM-CCSD
   Vijay G. Chilkuri      : MRCI spin determinant printing, contributions to CSF-ICE
   Pauline Colinet        : FMM embedding
   Dipayan Datta          : RHF DLPNO-CCSD density
   Achintya Kumar Dutta   : EOM-CC, STEOM-CC
   Nicolas Foglia         : Exact transition moments, OPA infrastructure, MCD improvements
   Dmitry Ganyushin       : Spin-Orbit,Spin-Spin,Magnetic field MRCI
   Miquel Garcia          : C-PCM and meta-GGA Hessian, CCSD/C-PCM, Gaussian charge scheme
   Tiago L. C. Gouveia    : GS-ROHF, GS-ROCIS
   Yang Guo               : DLPNO-NEVPT2, F12-NEVPT2, CIM, IAO-localization
   Andreas Hansen         : Spin unrestricted coupled pair/coupled cluster methods
   Ingolf Harden          : AUTO-CI MPn and infrastructure 
   Benjamin Helmich-Paris : MC-RPA, TRAH-(SCF,CASSCF), AVAS, COSX integrals, SCF dyn. polar.
   Lee Huntington         : MR-EOM, pCC
   Robert Izsak           : Overlap fitted RIJCOSX, COSX-SCS-MP3, EOM
   Riya Kayal             : Wick's Theorem for AUTO-CI, AUTO-CI UHF-CCSDT
   Emily Kempfer          : AUTO-CI, RHF CISDT and CCSDT
   Christian Kollmar      : KDIIS, OOCD, Brueckner-CCSD(T), CCSD density, CASPT2, CASPT2-K, improved NEVPT2
   Axel Koslowski         : Symmetry handling
   Simone Kossmann        : Meta GGA functionals, TD-DFT gradient, OOMP2, (MP2 Hessian; deprecated post 5.0)
   Lucas Lang             : DCDCAS
   Marvin Lechner         : AUTO-CI (C++ implementation), FIC-MRCC
   Spencer Leger          : CASSCF response
   Dagmar Lenk            : GEPOL surface, SMD, ORCA-2-JSON
   Dimitrios Liakos       : Extrapolation schemes; Compound Job, initial MDCI parallelization
   Dimitrios Manganas     : Further ROCIS development; embedding schemes. LFT, Crystal Embedding
   Dimitrios Pantazis     : SARC Basis sets
   Anastasios Papadopoulos: AUTO-CI, single reference methods and gradients
   Taras Petrenko         : pre 6.0 DFT Hessian and TD-DFT gradient, (ASA, deprecated), ECA, 1-Electron XAS/XES, NRVS
   Peter Pinski           : DLPNO-MP2, DLPNO-MP2 Gradient
   Christoph Reimann      : Effective Core Potentials
   Marius Retegan         : Local ZFS, SOC
   Christoph Riplinger    : Optimizer, TS searches, QM/MM, DLPNO-CCSD(T), (RO)-DLPNO pert. Triples
   Michael Roemelt        : Original ROCIS implementation
   Masaaki Saitow         : Open-shell DLPNO-CCSD energy and density
   Barbara Sandhoefer     : DKH picture change effects
   Kantharuban Sivalingam : CASSCF convergence/infrastructure, NEVPT2 and variants, FIC-MRCI
   Bernardo de Souza      : ESD, SOC TD-DFT
   Georgi Stoychev        : AutoAux, RI-MP2 NMR, DLPNO-MP2 response, X2C
   Van Anh Tran           : RI-MP2 g-tensors
   Willem Van den Heuvel  : Paramagnetic NMR
   Zikuan Wang            : NOTCH, Electric field optimization 
   Frank Wennmohs         : Technical directorship and infrastructure
   Hang Xu                : AUTO-CI-Response properties 


 We gratefully acknowledge several colleagues who have allowed us to
 interface, adapt or use parts of their codes:
   Stefan Grimme, W. Hujo, H. Kruse, P. Pracht,  : VdW corrections, initial TS optimization,
                  C. Bannwarth, S. Ehlert,         DFT functionals, gCP, sTDA/sTD-DF
                  L. Wittmann, M. Mueller
   Ed Valeev, F. Pavosevic, A. Kumar             : LibInt (2-el integral package), F12 methods
   Garnet Chan, S. Sharma, J. Yang, R. Olivares  : DMRG
   Ulf Ekstrom                                   : XCFun DFT Library
   Mihaly Kallay                                 : mrcc  (arbitrary order and MRCC methods)
   Frank Weinhold                                : gennbo (NPA and NBO analysis)
   Simon Mueller                                 : openCOSMO-RS
   Christopher J. Cramer and Donald G. Truhlar   : smd solvation model
   Lars Goerigk                                  : TD-DFT with DH, B97 family of functionals
   V. Asgeirsson, H. Jonsson                     : NEB implementation
   FAccTs GmbH                                   : IRC, NEB, NEB-TS, DLPNO-Multilevel, CI-OPT
                                                   MM, QMMM, 2- and 3-layer-ONIOM, Crystal-QMMM,
                                                   LR-CPCM, SF, NACMEs, symmetry and pop. for TD-DFT,
                                                   nearIR, NL-DFT gradient (VV10), updates on ESD,
                                                   ML-optimized integration grids, MBIS, APM,
                                                   GOAT, DOCKER, SOLVATOR, interface openCOSMO-RS
   S Lehtola, MJT Oliveira, MAL Marques          : LibXC Library
   Liviu Ungur et al                             : ANISO software


 Your calculation uses the libint2 library for the computation of 2-el integrals
 For citations please refer to: http://libint.valeyev.net

 Your ORCA version has been built with support for libXC version: 6.2.2
 For citations please refer to: https://libxc.gitlab.io

 This ORCA versions uses:
   CBLAS   interface :  Fast vector & matrix operations
   LAPACKE interface :  Fast linear algebra routines
   SCALAPACK package :  Parallel linear algebra routines
   Shared memory     :  Shared parallel matrices
   BLAS/LAPACK       :  OpenBLAS 0.3.27  USE64BITINT DYNAMIC_ARCH NO_AFFINITY SkylakeX SINGLE_THREADED
        Core in use  :  SkylakeX
   Copyright (c) 2011-2014, The OpenBLAS Project


Your calculation utilizes the geometrical counterpoise correction gCP
Please cite in your paper:
H.Kruse, S. Grimme J.Chem.Phys., 136, (2012), 154101 
   

Your calculation utilizes the atom-pairwise dispersion correction
based on EEQ partial charges (D4)


================================================================================

----- Orbital basis set information -----
Your calculation utilizes the basis: def2-SV(P)
   F. Weigend and R. Ahlrichs, Phys. Chem. Chem. Phys. 7, 3297 (2005).

----- AuxJ basis set information -----
Your calculation utilizes the auxiliary basis: def2/J
   F. Weigend, Phys. Chem. Chem. Phys. 8, 1057 (2006).

================================================================================
                                        WARNINGS
                       Please study these warnings very carefully!
================================================================================


================================================================================
                                       INPUT FILE
================================================================================
NAME = sp.inp
|  1> ! pbe def2-sv(p) def2/J RI DEFGRID1 loosescf d4 GCP(DFT/SV(P)) printgap
|  2> %output
|  3>     printlevel normal
|  4> end
|  5> * xyz 0 1
|  6> C -2.4845652755 0.430754683 -1.3677309552
|  7> C -2.0523662931 0.4505280635 0.106254222
|  8> H -2.9591743071 0.4777348745 0.7188337557
|  9> C -1.1550161515 1.6630271435 0.4272726519
| 10> C 0.26985651 1.2529964296 0.7906111845
| 11> C 0.7993463212 0.2852697878 -0.266536662
| 12> H 0.5866126356 0.7164116299 -1.2497871876
| 13> C 0.0338448645 -1.0395590784 -0.1146599399
| 14> C -1.3733130478 -0.86876935 0.3876215602
| 15> O -1.9579173415 -1.7750020614 0.9540361361
| 16> C 2.2856884875 0.0180492789 -0.1963701369
| 17> C 2.9929031903 0.1128887759 0.9181558316
| 18> C 2.9053609653 -0.3985476463 -1.4964559747
| 19> H -1.6209557816 0.4065415601 -2.0256535117
| 20> H -3.1005389027 -0.4438168045 -1.5673143856
| 21> H -3.0684757419 1.3208043584 -1.5862817264
| 22> H -1.124073901 2.3238466027 -0.4401359505
| 23> H -1.5880155799 2.2258248409 1.2546048735
| 24> H 0.9036003207 2.138568909 0.8458313297
| 25> H 0.2736571256 0.7661235788 1.7680884265
| 26> H -0.029093253 -1.5703498866 -1.067784389
| 27> H 0.5536024915 -1.703485859 0.5811212758
| 28> H 4.0478682978 -0.103191986 0.9329513957
| 29> H 2.5611613122 0.4072520059 1.8580690227
| 30> H 2.3927779628 -1.271560224 -1.8968655694
| 31> H 2.8182494677 0.4039610235 -2.2275818896
| 32> H 3.9566164129 -0.6394231177 -1.3679009204
| 33> *
| 34> 
| 35>                          ****END OF INPUT****
================================================================================

                       ****************************
                       * Single Point Calculation *
                       ****************************

---------------------------------
CARTESIAN COORDINATES (ANGSTROEM)
---------------------------------
  C     -2.484565    0.430755   -1.367731
  C     -2.052366    0.450528    0.106254
  H     -2.959174    0.477735    0.718834
  C     -1.155016    1.663027    0.427273
  C      0.269857    1.252996    0.790611
  C      0.799346    0.285270   -0.266537
  H      0.586613    0.716412   -1.249787
  C      0.033845   -1.039559   -0.114660
  C     -1.373313   -0.868769    0.387622
  O     -1.957917   -1.775002    0.954036
  C      2.285688    0.018049   -0.196370
  C      2.992903    0.112889    0.918156
  C      2.905361   -0.398548   -1.496456
  H     -1.620956    0.406542   -2.025654
  H     -3.100539   -0.443817   -1.567314
  H     -3.068476    1.320804   -1.586282
  H     -1.124074    2.323847   -0.440136
  H     -1.588016    2.225825    1.254605
  H      0.903600    2.138569    0.845831
  H      0.273657    0.766124    1.768088
  H     -0.029093   -1.570350   -1.067784
  H      0.553602   -1.703486    0.581121
  H      4.047868   -0.103192    0.932951
  H      2.561161    0.407252    1.858069
  H      2.392778   -1.271560   -1.896866
  H      2.818249    0.403961   -2.227582
  H      3.956616   -0.639423   -1.367901

----------------------------
CARTESIAN COORDINATES (A.U.)
----------------------------
  NO LB      ZA    FRAG     MASS         X           Y           Z
   0 C     6.0000    0    12.011   -4.695148    0.814008   -2.584637
   1 C     6.0000    0    12.011   -3.878410    0.851375    0.200791
   2 H     1.0000    0     1.008   -5.592029    0.902788    1.358399
   3 C     6.0000    0    12.011   -2.182664    3.142666    0.807428
   4 C     6.0000    0    12.011    0.509955    2.367820    1.494039
   5 C     6.0000    0    12.011    1.510546    0.539082   -0.503681
   6 H     1.0000    0     1.008    1.108537    1.353822   -2.361756
   7 C     6.0000    0    12.011    0.063958   -1.964482   -0.216676
   8 C     6.0000    0    12.011   -2.595186   -1.641736    0.732499
   9 O     8.0000    0    15.999   -3.699928   -3.354268    1.802867
  10 C     6.0000    0    12.011    4.319325    0.034108   -0.371086
  11 C     6.0000    0    12.011    5.655767    0.213329    1.735063
  12 C     6.0000    0    12.011    5.490337   -0.753146   -2.827892
  13 H     1.0000    0     1.008   -3.063163    0.768252   -3.827930
  14 H     1.0000    0     1.008   -5.859169   -0.838692   -2.961795
  15 H     1.0000    0     1.008   -5.798579    2.495959   -2.997638
  16 H     1.0000    0     1.008   -2.124192    4.391434   -0.831736
  17 H     1.0000    0     1.008   -3.000915    4.206199    2.370860
  18 H     1.0000    0     1.008    1.707557    4.041310    1.598390
  19 H     1.0000    0     1.008    0.517137    1.447764    3.341203
  20 H     1.0000    0     1.008   -0.054978   -2.967531   -2.017820
  21 H     1.0000    0     1.008    1.046157   -3.219122    1.098160
  22 H     1.0000    0     1.008    7.649363   -0.195005    1.763023
  23 H     1.0000    0     1.008    4.839893    0.769595    3.511242
  24 H     1.0000    0     1.008    4.521695   -2.402901   -3.584556
  25 H     1.0000    0     1.008    5.325720    0.763376   -4.209520
  26 H     1.0000    0     1.008    7.476921   -1.208335   -2.584958

--------------------------------
INTERNAL COORDINATES (ANGSTROEM)
--------------------------------
 C      0   0   0     0.000000000000     0.00000000     0.00000000
 C      1   0   0     1.536170319193     0.00000000     0.00000000
 H      2   1   0     1.094666465152   107.71035118     0.00000000
 C      2   1   3     1.542220518592   111.93480379   238.65876645
 C      4   2   1     1.526565484053   112.42453413   246.27295096
 C      5   4   2     1.527879538044   109.20258567    49.59704986
 H      6   5   4     1.094495548228   107.74143252    48.04967728
 C      6   5   4     1.537605457730   107.74949969   290.16312717
 C      8   6   5     1.503844814739   113.63959434    30.78513823
 O      9   8   6     1.218131921926   121.32407040   203.54640713
 C      6   5   4     1.511801302071   114.86974033   167.93568520
 C     11   6   5     1.323372699019   123.49227297    26.86256040
 C     11   6   5     1.499256536913   114.53365961   205.55792299
 H      1   2   3     1.085941860150   110.96944218   179.82606495
 H      1   2   3     1.088178451286   110.21787785   300.33203018
 H      1   2   3     1.086694205857   109.48788326    59.60173030
 H      4   2   1     1.090888382943   109.10167963     7.30643789
 H      4   2   1     1.090279027631   109.43309220   124.75965186
 H      5   4   2     1.090375668431   109.65798892   170.64541771
 H      5   4   2     1.092026270816   109.63608454   289.48243898
 H      8   6   5     1.092770014311   111.16377401   151.57885579
 H      8   6   5     1.093187203064   110.45367436   269.83752302
 H     12  11   6     1.076968515056   121.37762830   178.84598850
 H     12  11   6     1.075401119250   122.76193888   358.80573759
 H     13  11   6     1.088678161259   110.31334460   304.43114565
 H     13  11   6     1.089106827431   110.14029573    63.35632878
 H     13  11   6     1.086133238059   111.04092857   183.79385108

---------------------------
INTERNAL COORDINATES (A.U.)
---------------------------
 C      0   0   0     0.000000000000     0.00000000     0.00000000
 C      1   0   0     2.902941198333     0.00000000     0.00000000
 H      2   1   0     2.068619827124   107.71035118     0.00000000
 C      2   1   3     2.914374418253   111.93480379   238.65876645
 C      4   2   1     2.884790690358   112.42453413   246.27295096
 C      5   4   2     2.887273892525   109.20258567    49.59704986
 H      6   5   4     2.068296840947   107.74143252    48.04967728
 C      6   5   4     2.905653217133   107.74949969   290.16312717
 C      8   6   5     2.841854847775   113.63959434    30.78513823
 O      9   8   6     2.301935727428   121.32407040   203.54640713
 C      6   5   4     2.856890429819   114.86974033   167.93568520
 C     11   6   5     2.500811974254   123.49227297    26.86256040
 C     11   6   5     2.833184259257   114.53365961   205.55792299
 H      1   2   3     2.052132713045   110.96944218   179.82606495
 H      1   2   3     2.056359257766   110.21787785   300.33203018
 H      1   2   3     2.053554440389   109.48788326    59.60173030
 H      4   2   1     2.061480286439   109.10167963     7.30643789
 H      4   2   1     2.060328771780   109.43309220   124.75965186
 H      5   4   2     2.060511396427   109.65798892   170.64541771
 H      5   4   2     2.063630582890   109.63608454   289.48243898
 H      8   6   5     2.065036054408   111.16377401   151.57885579
 H      8   6   5     2.065824426899   110.45367436   269.83752302
 H     12  11   6     2.035175548312   121.37762830   178.84598850
 H     12  11   6     2.032213599496   122.76193888   358.80573759
 H     13  11   6     2.057303572760   110.31334460   304.43114565
 H     13  11   6     2.058113634428   110.14029573    63.35632878
 H     13  11   6     2.052494364881   111.04092857   183.79385108

---------------------
BASIS SET INFORMATION
---------------------
There are 3 groups of distinct atoms

 Group   1 Type C   : 7s4p1d contracted to 3s2p1d pattern {511/31/1}
 Group   2 Type H   : 4s contracted to 2s pattern {31}
 Group   3 Type O   : 7s4p1d contracted to 3s2p1d pattern {511/31/1}

Atom   0C    basis set group =>   1
Atom   1C    basis set group =>   1
Atom   2H    basis set group =>   2
Atom   3C    basis set group =>   1
Atom   4C    basis set group =>   1
Atom   5C    basis set group =>   1
Atom   6H    basis set group =>   2
Atom   7C    basis set group =>   1
Atom   8C    basis set group =>   1
Atom   9O    basis set group =>   3
Atom  10C    basis set group =>   1
Atom  11C    basis set group =>   1
Atom  12C    basis set group =>   1
Atom  13H    basis set group =>   2
Atom  14H    basis set group =>   2
Atom  15H    basis set group =>   2
Atom  16H    basis set group =>   2
Atom  17H    basis set group =>   2
Atom  18H    basis set group =>   2
Atom  19H    basis set group =>   2
Atom  20H    basis set group =>   2
Atom  21H    basis set group =>   2
Atom  22H    basis set group =>   2
Atom  23H    basis set group =>   2
Atom  24H    basis set group =>   2
Atom  25H    basis set group =>   2
Atom  26H    basis set group =>   2
---------------------------------
AUXILIARY/J BASIS SET INFORMATION
---------------------------------
There are 3 groups of distinct atoms

 Group   1 Type C   : 12s5p4d2f1g contracted to 6s4p3d1f1g pattern {711111/2111/211/2/1}
 Group   2 Type H   : 5s2p1d contracted to 3s1p1d pattern {311/2/1}
 Group   3 Type O   : 12s5p4d2f1g contracted to 6s4p3d1f1g pattern {711111/2111/211/2/1}

Atom   0C    basis set group =>   1
Atom   1C    basis set group =>   1
Atom   2H    basis set group =>   2
Atom   3C    basis set group =>   1
Atom   4C    basis set group =>   1
Atom   5C    basis set group =>   1
Atom   6H    basis set group =>   2
Atom   7C    basis set group =>   1
Atom   8C    basis set group =>   1
Atom   9O    basis set group =>   3
Atom  10C    basis set group =>   1
Atom  11C    basis set group =>   1
Atom  12C    basis set group =>   1
Atom  13H    basis set group =>   2
Atom  14H    basis set group =>   2
Atom  15H    basis set group =>   2
Atom  16H    basis set group =>   2
Atom  17H    basis set group =>   2
Atom  18H    basis set group =>   2
Atom  19H    basis set group =>   2
Atom  20H    basis set group =>   2
Atom  21H    basis set group =>   2
Atom  22H    basis set group =>   2
Atom  23H    basis set group =>   2
Atom  24H    basis set group =>   2
Atom  25H    basis set group =>   2
Atom  26H    basis set group =>   2
------------------------------------------------------------------------------
                             ORCA STARTUP CALCULATIONS
                           -- RI-GTO INTEGRALS CHOSEN --
------------------------------------------------------------------------------
------------------------------------------------------------------------------
                   ___                                                        
                  /   \      - P O W E R E D   B Y -                         
                 /     \                                                     
                 |  |  |   _    _      __       _____    __    __             
                 |  |  |  | |  | |    /  \     |  _  \  |  |  /  |          
                  \  \/   | |  | |   /    \    | | | |  |  | /  /          
                 / \  \   | |__| |  /  /\  \   | |_| |  |  |/  /          
                |  |  |   |  __  | /  /__\  \  |    /   |      \           
                |  |  |   | |  | | |   __   |  |    \   |  |\   \          
                \     /   | |  | | |  |  |  |  | |\  \  |  | \   \       
                 \___/    |_|  |_| |__|  |__|  |_| \__\ |__|  \__/        
                                                                              
                      - O R C A' S   B I G   F R I E N D -                    
                                      &                                       
                       - I N T E G R A L  F E E D E R -                       
                                                                              
 v1 FN, 2020, v2 2021, v3 2022-2024                                           
------------------------------------------------------------------------------


----------------------
SHARK INTEGRAL PACKAGE
----------------------

Number of atoms                             ...     27
Number of basis functions                   ...    186
Number of shells                            ...     98
Maximum angular momentum                    ...      2
Integral batch strategy                     ... SHARK/LIBINT Hybrid
RI-J (if used) integral strategy            ... SPLIT-RIJ (Revised 2003 algorithm where possible)
Printlevel                                  ...      1
Contraction scheme used                     ... SEGMENTED contraction
Prescreening option                         ... SCHWARTZ
   Thresh                                   ... 1.000e-09
   Tcut                                     ... 1.000e-10
   Tpresel                                  ... 1.000e-10 
Coulomb Range Separation                    ... NOT USED
Exchange Range Separation                   ... NOT USED
Multipole approximations                    ... NOT USED
Finite Nucleus Model                        ... NOT USED
CABS basis                                  ... NOT available
Auxiliary Coulomb fitting basis             ... AVAILABLE
   # of basis functions in Aux-J            ...    715
   # of shells in Aux-J                     ...    245
   Maximum angular momentum in Aux-J        ...      4
Auxiliary J/K fitting basis                 ... NOT available
Auxiliary Correlation fitting basis         ... NOT available
Auxiliary 'external' fitting basis          ... NOT available

Checking pre-screening integrals            ... done (  0.0 sec) Dimension = 98
Check shell pair data                       ... done (  0.0 sec)
Shell pair information
Shell pair cut-off parameter TPreSel        ...   1.0e-10
Total number of shell pairs                 ...      4851
Shell pairs after pre-screening             ...      4455
Total number of primitive shell pairs       ...     19497
Primitive shell pairs kept                  ...     12194
          la=0 lb=0:   1951 shell pairs
          la=1 lb=0:   1352 shell pairs
          la=1 lb=1:    247 shell pairs
          la=2 lb=0:    625 shell pairs
          la=2 lb=1:    224 shell pairs
          la=2 lb=2:     56 shell pairs

Calculating one electron integrals          ... done (  0.0 sec)
Calculating RI/J V-Matrix + Cholesky decomp.... done (  0.2 sec)
Calculating Nuclear repulsion               ... done (  0.0 sec) ENN=    639.734415742536 Eh

Diagonalization of the overlap matrix:
Smallest eigenvalue                        ... 5.743e-04
Time for diagonalization                   ...    0.003 sec
Threshold for overlap eigenvalues          ... 1.000e-07
Number of eigenvalues below threshold      ... 0
Time for construction of square roots      ...    0.014 sec
Total time needed                          ...    0.027 sec

-------------------
DFT GRID GENERATION
-------------------

General Integration Accuracy     IntAcc      ... 4.159
Radial Grid Type                 RadialGrid  ... OptM3 with GC (2021)
Angular Grid (max. ang.)         AngularGrid ... 3 (Lebedev-194)
Angular grid pruning method      GridPruning ... 4 (adaptive)
Weight generation scheme         WeightScheme... mBecke (2022)
Basis function cutoff            BFCut       ... 1.0000e-10
Integration weight cutoff        WCut        ... 1.0000e-14
Partially contracted basis set               ... off
Rotationally invariant grid construction     ... off
Angular grids for H and He will be reduced by one unit

Total number of grid points                  ...    57576
Total number of batches                      ...      913
Average number of points per batch           ...       63
Average number of grid points per atom       ...     2132
Initializing property integral containers    ... done (  0.0 sec)

SHARK setup successfully completed in   1.1 seconds

Maximum memory used throughout the entire STARTUP-calculation: 29.5 MB
-------------------------------------------------------------------------------
                                 ORCA GUESS
                   Start orbitals & Density for SCF / CASSCF
-------------------------------------------------------------------------------

------------
SCF SETTINGS
------------
Hamiltonian:
 Density Functional     Method          .... DFT(GTOs)
 Exchange Functional    Exchange        .... PBE
   PBE kappa parameter   XKappa         ....  0.804000
   PBE mue parameter    XMuePBE         ....  0.219520
 Correlation Functional Correlation     .... PBE
   PBE beta parameter  CBetaPBE         ....  0.066725
 LDA part of GGA corr.  LDAOpt          .... PW91-LDA
 Gradients option       PostSCFGGA      .... off
   NL short-range parameter             ....  6.400000
 RI-approximation to the Coulomb term is turned on
   Number of AuxJ basis functions       .... 715


General Settings:
 Integral files         IntName         .... sp
 Hartree-Fock type      HFTyp           .... RHF
 Total Charge           Charge          ....    0
 Multiplicity           Mult            ....    1
 Number of Electrons    NEL             ....   84
 Basis Dimension        Dim             ....  186
 Nuclear Repulsion      ENuc            ....    639.7344157425 Eh

Convergence Acceleration:
 AO-DIIS                CNVDIIS         .... on
   Start iteration      DIISMaxIt       ....    12
   Startup error        DIISStart       ....  0.200000
   # of expansion vecs  DIISMaxEq       ....     5
   Bias factor          DIISBfac        ....   1.050
   Max. coefficient     DIISMaxC        ....  10.000
 MO-DIIS                CNVKDIIS        .... off
 Trust-Rad. Augm. Hess. CNVTRAH         .... auto
   Auto Start mean grad. ratio tolernc. ....  1.125000
   Auto Start start iteration           ....    50
   Auto Start num. interpolation iter.  ....    10
   Max. Number of Micro iterations      ....    24
   Max. Number of Macro iterations      .... Maxiter - #DIIS iter
   Number of Davidson start vectors     ....     2
   Converg. threshold    (grad. norm)   ....   1.000e-04
   Grad. Scal. Fac. for Micro threshold ....   0.100
   Minimum threshold for Micro iter.    ....   1.000e-02
   NR start threshold (gradient norm)   ....   1.000e-04
   Initial trust radius                 ....   0.400
   Minimum AH scaling param. (alpha)    ....   1.000
   Maximum AH scaling param. (alpha)    .... 1000.000
   Quad. conv. algorithm                .... NR
   White noise on init. David. guess    .... on
   Maximum white noise                  ....   0.010
   Pseudo random numbers                .... off
   Inactive MOs                         .... canonical
   Orbital update algorithm             .... Taylor
   Preconditioner                       .... Diag
   Full preconditioner red. dimension   ....   250
 SOSCF                  CNVSOSCF        .... on
   Start iteration      SOSCFMaxIt      ....   150
   Startup grad/error   SOSCFStart      ....  0.003300
   Hessian update       SOSCFHessUp     .... L-BFGS
 Level Shifting         CNVShift        .... on
   Level shift para.    LevelShift      ....    0.2500
   Turn off err/grad.   ShiftErr        ....    0.0010
 Zerner damping         CNVZerner       .... off
 Static damping         CNVDamp         .... on
   Fraction old density DampFac         ....    0.7000
   Max. Damping (<1)    DampMax         ....    0.9800
   Min. Damping (>=0)   DampMin         ....    0.0000
   Turn off err/grad.   DampErr         ....    0.1000

SCF Procedure:
 Maximum # iterations   MaxIter         ....   125
 SCF integral mode      SCFMode         .... Direct
   Integral package                     .... SHARK and LIBINT hybrid scheme
 Reset frequency        DirectResetFreq ....    20
 Integral Threshold     Thresh          ....  1.000e-09 Eh
 Primitive CutOff       TCut            ....  1.000e-10 Eh

Convergence Tolerance:
 Convergence Check Mode ConvCheckMode   .... Total+1el-Energy
 Convergence forced     ConvForced      .... 0
 Energy Change          TolE            ....  1.000e-05 Eh
 1-El. energy change                    ....  1.000e-02 Eh
 Orbital Gradient       TolG            ....  1.000e-04
 Orbital Rotation angle TolX            ....  1.000e-04
 DIIS Error             TolErr          ....  5.000e-04

------------------------------
INITIAL GUESS: MODEL POTENTIAL
------------------------------
Loading Hartree-Fock densities                     ... done
Calculating cut-offs                               ... done
Initializing the effective Hamiltonian             ... done
Setting up the integral package (SHARK)            ... done
Starting the Coulomb interaction                   ... done (   0.3 sec)
Making the grid                                    ... done (   0.3 sec)
Mapping shells                                     ... done
Starting the XC term evaluation                    ... done (   0.3 sec)
  promolecular density results
     # of electrons  =     83.992667221
     EX              =    -64.044415435
     EC              =     -2.782311756
     EX+EC           =    -66.826727191
Transforming the Hamiltonian                       ... done (   0.0 sec)
Diagonalizing the Hamiltonian                      ... done (   0.0 sec)
Back transforming the eigenvectors                 ... done (   0.0 sec)
Now organizing SCF variables                       ... done
                      ------------------
                      INITIAL GUESS DONE (   1.0 sec)
                      ------------------
             **** ENERGY FILE WAS UPDATED (sp.en.tmp) ****
Finished Guess after   1.2 sec
Maximum memory used throughout the entire GUESS-calculation: 22.7 MB

-------------------------------------------------------------------------------------------
                                      ORCA LEAN-SCF
                              memory conserving SCF solver
-------------------------------------------------------------------------------------------

----------------------------------------D-I-I-S--------------------------------------------
Iteration    Energy (Eh)           Delta-E    RMSDP     MaxDP     DIISErr   Damp  Time(sec)
-------------------------------------------------------------------------------------------
               ***  Starting incremental Fock matrix formation  ***
    1    -464.6115265819520346     0.00e+00  5.24e-03  1.88e-01  2.19e-01  0.700   1.4
    2    -464.7585005241245426    -1.47e-01  3.54e-03  1.20e-01  7.56e-02  0.700   1.4
                               ***Turning on AO-DIIS***
    3    -464.8080357192367273    -4.95e-02  1.26e-03  1.95e-02  2.48e-02  0.700   1.4
    4    -464.8380582000589811    -3.00e-02  1.82e-03  2.67e-02  8.98e-03  0.000   1.3
    5    -464.9063563575963371    -6.83e-02  5.98e-04  1.75e-02  7.67e-03  0.000   1.3
                              *** Initializing SOSCF ***
---------------------------------------S-O-S-C-F--------------------------------------
Iteration    Energy (Eh)           Delta-E    RMSDP     MaxDP     MaxGrad    Time(sec)
--------------------------------------------------------------------------------------
    6    -464.9071970583514712    -8.41e-04  1.92e-04  3.12e-03  1.84e-03     1.3
               *** Restarting incremental Fock matrix formation ***
    7    -464.9072595117607989    -6.25e-05  1.67e-04  6.05e-03  3.90e-04     1.4
    8    -464.9072507652307422     8.75e-06  8.78e-05  3.47e-03  8.66e-04     1.2
                 **** Energy Check signals convergence ****

               *****************************************************
               *                     SUCCESS                       *
               *           SCF CONVERGED AFTER   8 CYCLES          *
               *****************************************************

             **** ENERGY FILE WAS UPDATED (sp.en.tmp) ****

----------------
TOTAL SCF ENERGY
----------------

Total Energy       :       -464.90725076523074 Eh          -12650.76945 eV

Components:
Nuclear Repulsion  :        639.73441574253604 Eh           17408.05846 eV
Electronic Energy  :      -1104.64166650776679 Eh          -30058.82791 eV
One Electron Energy:      -1897.43907052861641 Eh          -51631.94203 eV
Two Electron Energy:        792.79740402084963 Eh           21573.11412 eV

Virial components:
Potential Energy   :       -925.70188255576863 Eh          -25189.62884 eV
Kinetic Energy     :        460.79463179053789 Eh           12538.85939 eV
Virial Ratio       :          2.00892505834695

DFT components:
N(Alpha)           :       42.000133909878 electrons
N(Beta)            :       42.000133909878 electrons
N(Total)           :       84.000267819757 electrons
E(X)               :      -65.432579291220 Eh       
E(C)               :       -2.790816743113 Eh       
E(XC)              :      -68.223396034332 Eh       

---------------
SCF CONVERGENCE
---------------

  Last Energy change         ...   -8.7465e-06  Tolerance :   1.0000e-05
  Last MAX-Density change    ...    3.4725e-03  Tolerance :   1.0000e-03
  Last RMS-Density change    ...    8.7840e-05  Tolerance :   1.0000e-04
  Last DIIS Error            ...    1.8424e-03  Tolerance :   5.0000e-04
  Last Orbital Gradient      ...    8.6556e-04  Tolerance :   1.0000e-04
  Last Orbital Rotation      ...    1.2357e-03  Tolerance :   1.0000e-04


----------------
ORBITAL ENERGIES
----------------

  NO   OCC          E(Eh)            E(eV) 
   0   2.0000     -18.731111      -509.6994 
   1   2.0000      -9.968609      -271.2596 
   2   2.0000      -9.908682      -269.6289 
   3   2.0000      -9.903424      -269.4859 
   4   2.0000      -9.901687      -269.4386 
   5   2.0000      -9.895732      -269.2766 
   6   2.0000      -9.894859      -269.2528 
   7   2.0000      -9.892850      -269.1981 
   8   2.0000      -9.891186      -269.1528 
   9   2.0000      -9.884969      -268.9837 
  10   2.0000      -9.871458      -268.6160 
  11   2.0000      -0.929228       -25.2856 
  12   2.0000      -0.774509       -21.0755 
  13   2.0000      -0.730283       -19.8720 
  14   2.0000      -0.684105       -18.6154 
  15   2.0000      -0.665851       -18.1187 
  16   2.0000      -0.618445       -16.8288 
  17   2.0000      -0.602120       -16.3845 
  18   2.0000      -0.556498       -15.1431 
  19   2.0000      -0.543075       -14.7778 
  20   2.0000      -0.478335       -13.0162 
  21   2.0000      -0.461370       -12.5545 
  22   2.0000      -0.439608       -11.9623 
  23   2.0000      -0.418868       -11.3980 
  24   2.0000      -0.416102       -11.3227 
  25   2.0000      -0.402459       -10.9515 
  26   2.0000      -0.390158       -10.6167 
  27   2.0000      -0.379777       -10.3343 
  28   2.0000      -0.369688       -10.0597 
  29   2.0000      -0.364128        -9.9084 
  30   2.0000      -0.356365        -9.6972 
  31   2.0000      -0.350940        -9.5496 
  32   2.0000      -0.344798        -9.3824 
  33   2.0000      -0.327213        -8.9039 
  34   2.0000      -0.318128        -8.6567 
  35   2.0000      -0.312826        -8.5124 
  36   2.0000      -0.302520        -8.2320 
  37   2.0000      -0.294717        -8.0197 
  38   2.0000      -0.278518        -7.5789 
  39   2.0000      -0.275489        -7.4964 
  40   2.0000      -0.222595        -6.0571 
  41   2.0000      -0.187086        -5.0909 
  42   0.0000      -0.050886        -1.3847 
  43   0.0000      -0.014288        -0.3888 
  44   0.0000       0.023626         0.6429 
  45   0.0000       0.044028         1.1981 
  46   0.0000       0.055564         1.5120 
  47   0.0000       0.064888         1.7657 
  48   0.0000       0.077095         2.0979 
  49   0.0000       0.082715         2.2508 
  50   0.0000       0.090277         2.4566 
  51   0.0000       0.095824         2.6075 
  52   0.0000       0.105908         2.8819 
*Only the first 10 virtual orbitals were printed.

                    ********************************
                    * MULLIKEN POPULATION ANALYSIS *
                    ********************************

-----------------------
MULLIKEN ATOMIC CHARGES
-----------------------
   0 C :   -0.278459
   1 C :   -0.135555
   2 H :    0.073892
   3 C :   -0.074813
   4 C :   -0.142521
   5 C :   -0.157664
   6 H :    0.061346
   7 C :   -0.109409
   8 C :   -0.007951
   9 O :   -0.160203
  10 C :   -0.036265
  11 C :   -0.234128
  12 C :   -0.214785
  13 H :    0.110438
  14 H :    0.118162
  15 H :    0.117855
  16 H :    0.073019
  17 H :    0.089375
  18 H :    0.094405
  19 H :    0.097549
  20 H :    0.116608
  21 H :    0.105496
  22 H :    0.082760
  23 H :    0.092837
  24 H :    0.109643
  25 H :    0.109582
  26 H :    0.098786
Sum of atomic charges:   -0.0000000

--------------------------------
MULLIKEN REDUCED ORBITAL CHARGES
--------------------------------
  0 C s       :     3.099677  s :     3.099677
      pz      :     1.004599  p :     3.149082
      px      :     1.067070
      py      :     1.077412
      dz2     :     0.006547  d :     0.029700
      dxz     :     0.008523
      dyz     :     0.003963
      dx2y2   :     0.002981
      dxy     :     0.007687

  1 C s       :     3.072500  s :     3.072500
      pz      :     1.013773  p :     3.023362
      px      :     1.035633
      py      :     0.973955
      dz2     :     0.007465  d :     0.039693
      dxz     :     0.009401
      dyz     :     0.006871
      dx2y2   :     0.008277
      dxy     :     0.007680

  2 H s       :     0.926108  s :     0.926108

  3 C s       :     2.968084  s :     2.968084
      pz      :     1.019212  p :     3.071129
      px      :     0.995341
      py      :     1.056576
      dz2     :     0.004836  d :     0.035600
      dxz     :     0.006003
      dyz     :     0.010335
      dx2y2   :     0.006786
      dxy     :     0.007639

  4 C s       :     3.023048  s :     3.023048
      pz      :     1.054839  p :     3.082982
      px      :     1.028091
      py      :     1.000053
      dz2     :     0.009186  d :     0.036490
      dxz     :     0.004796
      dyz     :     0.007278
      dx2y2   :     0.005861
      dxy     :     0.009369

  5 C s       :     3.059196  s :     3.059196
      pz      :     1.036002  p :     3.056166
      px      :     1.000036
      py      :     1.020128
      dz2     :     0.009578  d :     0.042301
      dxz     :     0.005856
      dyz     :     0.008646
      dx2y2   :     0.009016
      dxy     :     0.009205

  6 H s       :     0.938654  s :     0.938654

  7 C s       :     2.978939  s :     2.978939
      pz      :     1.047342  p :     3.097390
      px      :     1.007540
      py      :     1.042508
      dz2     :     0.004970  d :     0.033080
      dxz     :     0.004878
      dyz     :     0.009097
      dx2y2   :     0.007546
      dxy     :     0.006589

  8 C s       :     3.142474  s :     3.142474
      pz      :     0.838910  p :     2.773999
      px      :     1.001432
      py      :     0.933657
      dz2     :     0.011391  d :     0.091479
      dxz     :     0.013573
      dyz     :     0.014309
      dx2y2   :     0.030908
      dxy     :     0.021298

  9 O s       :     3.741656  s :     3.741656
      pz      :     1.303045  p :     4.401351
      px      :     1.617885
      py      :     1.480422
      dz2     :     0.003014  d :     0.017195
      dxz     :     0.002242
      dyz     :     0.004243
      dx2y2   :     0.003344
      dxy     :     0.004353

 10 C s       :     3.067043  s :     3.067043
      pz      :     0.970393  p :     2.926994
      px      :     1.003563
      py      :     0.953038
      dz2     :     0.010994  d :     0.042228
      dxz     :     0.011849
      dyz     :     0.008107
      dx2y2   :     0.005480
      dxy     :     0.005797

 11 C s       :     3.190559  s :     3.190559
      pz      :     1.007804  p :     3.016912
      px      :     0.958540
      py      :     1.050568
      dz2     :     0.008922  d :     0.026657
      dxz     :     0.006755
      dyz     :     0.004023
      dx2y2   :     0.004849
      dxy     :     0.002108

 12 C s       :     3.019100  s :     3.019100
      pz      :     1.048795  p :     3.166585
      px      :     1.056423
      py      :     1.061367
      dz2     :     0.005688  d :     0.029100
      dxz     :     0.003896
      dyz     :     0.009251
      dx2y2   :     0.006115
      dxy     :     0.004149

 13 H s       :     0.889562  s :     0.889562

 14 H s       :     0.881838  s :     0.881838

 15 H s       :     0.882145  s :     0.882145

 16 H s       :     0.926981  s :     0.926981

 17 H s       :     0.910625  s :     0.910625

 18 H s       :     0.905595  s :     0.905595

 19 H s       :     0.902451  s :     0.902451

 20 H s       :     0.883392  s :     0.883392

 21 H s       :     0.894504  s :     0.894504

 22 H s       :     0.917240  s :     0.917240

 23 H s       :     0.907163  s :     0.907163

 24 H s       :     0.890357  s :     0.890357

 25 H s       :     0.890418  s :     0.890418

 26 H s       :     0.901214  s :     0.901214


------------------------
MULLIKEN OVERLAP CHARGES
------------------------
B(  0-C ,  1-C ) :   0.7246 B(  0-C ,  8-C ) :  -0.0730 B(  0-C , 13-H ) :   0.7617 
B(  0-C , 14-H ) :   0.7283 B(  0-C , 15-H ) :   0.7259 B(  1-C ,  2-H ) :   0.4926 
B(  1-C ,  3-C ) :   0.3601 B(  1-C ,  4-C ) :  -0.0745 B(  1-C ,  7-C ) :  -0.5498 
B(  1-C ,  8-C ) :   0.5675 B(  1-C ,  9-O ) :  -0.2150 B(  1-C , 13-H ) :  -0.0642 
B(  1-C , 14-H ) :  -0.0747 B(  1-C , 19-H ) :  -0.0515 B(  3-C ,  4-C ) :   0.8463 
B(  3-C ,  5-C ) :  -0.0940 B(  3-C , 16-H ) :   0.6504 B(  3-C , 17-H ) :   0.6178 
B(  4-C ,  5-C ) :   0.8270 B(  4-C ,  6-H ) :  -0.1018 B(  4-C ,  7-C ) :  -0.1325 
B(  4-C , 18-H ) :   0.7090 B(  4-C , 19-H ) :   0.6292 B(  5-C ,  6-H ) :   0.6036 
B(  5-C ,  7-C ) :   0.3328 B(  5-C , 10-C ) :   0.5002 B(  5-C , 11-C ) :  -0.1435 
B(  5-C , 12-C ) :  -0.2397 B(  5-C , 23-H ) :  -0.0839 B(  6-H , 10-C ) :  -0.0522 
B(  7-C ,  8-C ) :   0.3789 B(  7-C ,  9-O ) :  -0.2275 B(  7-C , 20-H ) :   0.5228 
B(  7-C , 21-H ) :   0.5398 B(  8-C ,  9-O ) :   1.4964 B( 10-C , 11-C ) :   1.4817 
B( 10-C , 12-C ) :   0.8863 B( 11-C , 12-C ) :  -0.1509 B( 11-C , 22-H ) :   0.6658 
B( 11-C , 23-H ) :   0.6971 B( 12-C , 22-H ) :  -0.0618 B( 12-C , 24-H ) :   0.7148 
B( 12-C , 25-H ) :   0.6998 B( 12-C , 26-H ) :   0.7023 B( 16-H , 17-H ) :  -0.0554 
B( 18-H , 19-H ) :  -0.0685 B( 22-H , 23-H ) :  -0.1156 


                     *******************************
                     * LOEWDIN POPULATION ANALYSIS *
                     *******************************

----------------------
LOEWDIN ATOMIC CHARGES
----------------------
   0 C :   -0.320134
   1 C :   -0.169999
   2 H :    0.129730
   3 C :   -0.211919
   4 C :   -0.215715
   5 C :   -0.135128
   6 H :    0.117642
   7 C :   -0.232748
   8 C :    0.048668
   9 O :   -0.133447
  10 C :   -0.049921
  11 C :   -0.267309
  12 C :   -0.322498
  13 H :    0.117226
  14 H :    0.126181
  15 H :    0.125797
  16 H :    0.116833
  17 H :    0.124241
  18 H :    0.123182
  19 H :    0.121859
  20 H :    0.144597
  21 H :    0.143425
  22 H :    0.119456
  23 H :    0.119046
  24 H :    0.126892
  25 H :    0.128934
  26 H :    0.125110

-------------------------------
LOEWDIN REDUCED ORBITAL CHARGES
-------------------------------
  0 C s       :     2.948605  s :     2.948605
      pz      :     1.054630  p :     3.299781
      px      :     1.116424
      py      :     1.128727
      dz2     :     0.017241  d :     0.071749
      dxz     :     0.020248
      dyz     :     0.008459
      dx2y2   :     0.007098
      dxy     :     0.018702

  1 C s       :     2.886783  s :     2.886783
      pz      :     1.063139  p :     3.184256
      px      :     1.068848
      py      :     1.052269
      dz2     :     0.021033  d :     0.098960
      dxz     :     0.022016
      dyz     :     0.013615
      dx2y2   :     0.019795
      dxy     :     0.022500

  2 H s       :     0.870270  s :     0.870270

  3 C s       :     2.906229  s :     2.906229
      pz      :     1.100679  p :     3.218379
      px      :     1.056233
      py      :     1.061467
      dz2     :     0.011545  d :     0.087310
      dxz     :     0.013106
      dyz     :     0.025361
      dx2y2   :     0.017176
      dxy     :     0.020122

  4 C s       :     2.905566  s :     2.905566
      pz      :     1.080596  p :     3.221429
      px      :     1.061537
      py      :     1.079295
      dz2     :     0.021460  d :     0.088720
      dxz     :     0.011189
      dyz     :     0.018970
      dx2y2   :     0.014535
      dxy     :     0.022566

  5 C s       :     2.870307  s :     2.870307
      pz      :     1.074146  p :     3.160509
      px      :     1.038309
      py      :     1.048054
      dz2     :     0.023546  d :     0.104312
      dxz     :     0.012597
      dyz     :     0.022291
      dx2y2   :     0.022954
      dxy     :     0.022924

  6 H s       :     0.882358  s :     0.882358

  7 C s       :     2.917493  s :     2.917493
      pz      :     1.108923  p :     3.230697
      px      :     1.057464
      py      :     1.064310
      dz2     :     0.012778  d :     0.084557
      dxz     :     0.012640
      dyz     :     0.020670
      dx2y2   :     0.019807
      dxy     :     0.018662

  8 C s       :     2.885289  s :     2.885289
      pz      :     0.830990  p :     2.850939
      px      :     1.011421
      py      :     1.008527
      dz2     :     0.021956  d :     0.215104
      dxz     :     0.031608
      dyz     :     0.032640
      dx2y2   :     0.078139
      dxy     :     0.050761

  9 O s       :     3.553316  s :     3.553316
      pz      :     1.334702  p :     4.549700
      px      :     1.656046
      py      :     1.558952
      dz2     :     0.003952  d :     0.030430
      dxz     :     0.004209
      dyz     :     0.007926
      dx2y2   :     0.006083
      dxy     :     0.008260

 10 C s       :     2.868369  s :     2.868369
      pz      :     1.087251  p :     3.072395
      px      :     1.044487
      py      :     0.940657
      dz2     :     0.031030  d :     0.109157
      dxz     :     0.033594
      dyz     :     0.016887
      dx2y2   :     0.014963
      dxy     :     0.012683

 11 C s       :     2.949109  s :     2.949109
      pz      :     1.097698  p :     3.248720
      px      :     1.083762
      py      :     1.067261
      dz2     :     0.024514  d :     0.069481
      dxz     :     0.020676
      dyz     :     0.008587
      dx2y2   :     0.011348
      dxy     :     0.004355

 12 C s       :     2.937824  s :     2.937824
      pz      :     1.084175  p :     3.313122
      px      :     1.112790
      py      :     1.116157
      dz2     :     0.013828  d :     0.071552
      dxz     :     0.010261
      dyz     :     0.022392
      dx2y2   :     0.015235
      dxy     :     0.009836

 13 H s       :     0.882774  s :     0.882774

 14 H s       :     0.873819  s :     0.873819

 15 H s       :     0.874203  s :     0.874203

 16 H s       :     0.883167  s :     0.883167

 17 H s       :     0.875759  s :     0.875759

 18 H s       :     0.876818  s :     0.876818

 19 H s       :     0.878141  s :     0.878141

 20 H s       :     0.855403  s :     0.855403

 21 H s       :     0.856575  s :     0.856575

 22 H s       :     0.880544  s :     0.880544

 23 H s       :     0.880954  s :     0.880954

 24 H s       :     0.873108  s :     0.873108

 25 H s       :     0.871066  s :     0.871066

 26 H s       :     0.874890  s :     0.874890


---------------------------------
LOEWDIN BOND ORDERS (THRESH 0.050000)
---------------------------------
B(  0-C ,  1-C ) :   1.0693 B(  0-C ,  3-C ) :   0.0536 B(  0-C ,  8-C ) :   0.0740 
B(  0-C , 13-H ) :   0.9347 B(  0-C , 14-H ) :   0.9321 B(  0-C , 15-H ) :   0.9303 
B(  1-C ,  2-H ) :   0.8677 B(  1-C ,  3-C ) :   1.0334 B(  1-C ,  7-C ) :   0.0635 
B(  1-C ,  8-C ) :   1.0302 B(  1-C ,  9-O ) :   0.1100 B(  3-C ,  4-C ) :   1.0919 
B(  3-C ,  5-C ) :   0.0577 B(  3-C ,  8-C ) :   0.0550 B(  3-C , 16-H ) :   0.8984 
B(  3-C , 17-H ) :   0.9019 B(  4-C ,  5-C ) :   1.0486 B(  4-C ,  7-C ) :   0.0526 
B(  4-C , 10-C ) :   0.0531 B(  4-C , 18-H ) :   0.8990 B(  4-C , 19-H ) :   0.8942 
B(  5-C ,  6-H ) :   0.8577 B(  5-C ,  7-C ) :   1.0246 B(  5-C ,  8-C ) :   0.0547 
B(  5-C , 10-C ) :   1.0244 B(  5-C , 11-C ) :   0.0788 B(  5-C , 12-C ) :   0.0615 
B(  7-C ,  8-C ) :   1.0646 B(  7-C ,  9-O ) :   0.1123 B(  7-C , 10-C ) :   0.0608 
B(  7-C , 20-H ) :   0.8738 B(  7-C , 21-H ) :   0.8818 B(  8-C ,  9-O ) :   2.2595 
B( 10-C , 11-C ) :   1.9750 B( 10-C , 12-C ) :   1.1027 B( 11-C , 12-C ) :   0.0875 
B( 11-C , 22-H ) :   0.9161 B( 11-C , 23-H ) :   0.9139 B( 12-C , 24-H ) :   0.9215 
B( 12-C , 25-H ) :   0.9216 B( 12-C , 26-H ) :   0.9309 

------------------------------------------
LOEWDIN REDUCED ORBITAL POPULATIONS PER MO
-------------------------------------------
THRESHOLD FOR PRINTING IS 0.1%%
                      0         1         2         3         4         5   
                 -18.73111  -9.96861  -9.90868  -9.90342  -9.90169  -9.89573
                   2.00000   2.00000   2.00000   2.00000   2.00000   2.00000
                  --------  --------  --------  --------  --------  --------
 1 C  s               0.0       0.0       0.0       0.0      99.6       0.0
 5 C  s               0.0       0.0      99.6       0.0       0.0       0.0
 5 C  px              0.0       0.0       0.0       0.1       0.0       0.0
 7 C  s               0.0       0.0       0.0       0.0       0.0      99.6
 8 C  s               0.0      99.4       0.0       0.0       0.0       0.0
 8 C  px              0.0       0.0       0.0       0.0       0.0       0.1
 9 O  s              99.9       0.0       0.0       0.0       0.0       0.0
 9 O  py              0.0       0.2       0.0       0.0       0.0       0.0
10 C  s               0.0       0.0       0.0      99.5       0.0       0.0
10 C  px              0.0       0.0       0.1       0.0       0.0       0.0
11 C  pz              0.0       0.0       0.0       0.1       0.0       0.0

                      6         7         8         9        10        11   
                  -9.89486  -9.89285  -9.89119  -9.88497  -9.87146  -0.92923
                   2.00000   2.00000   2.00000   2.00000   2.00000   2.00000
                  --------  --------  --------  --------  --------  --------
 0 C  s               0.0       0.0      99.7       0.0       0.0       0.1
 0 C  pz              0.0       0.0       0.0       0.0       0.0       0.1
 1 C  s               0.0       0.0       0.0       0.0       0.0       1.4
 1 C  pz              0.0       0.0       0.1       0.0       0.0       0.1
 1 C  px              0.0       0.0       0.0       0.0       0.0       0.2
 1 C  py              0.1       0.0       0.0       0.0       0.0       1.6
 2 H  s               0.0       0.0       0.0       0.0       0.0       0.3
 3 C  s              99.6       0.0       0.0       0.0       0.0       0.1
 3 C  py              0.0       0.0       0.0       0.0       0.0       0.1
 4 C  s               0.0      99.6       0.0       0.0       0.0       0.0
 7 C  s               0.0       0.0       0.0       0.0       0.0       1.4
 7 C  pz              0.0       0.0       0.0       0.0       0.0       0.3
 7 C  px              0.0       0.0       0.0       0.0       0.0       1.6
 8 C  s               0.0       0.0       0.0       0.0       0.0      20.0
 8 C  pz              0.0       0.0       0.0       0.0       0.0       2.6
 8 C  px              0.0       0.0       0.0       0.0       0.0       2.9
 8 C  py              0.0       0.0       0.0       0.0       0.0       6.9
 8 C  dxz             0.0       0.0       0.0       0.0       0.0       0.3
 8 C  dyz             0.0       0.0       0.0       0.0       0.0       0.6
 8 C  dx2y2           0.0       0.0       0.0       0.0       0.0       0.1
 8 C  dxy             0.0       0.0       0.0       0.0       0.0       0.6
 9 O  s               0.0       0.0       0.0       0.0       0.0      50.5
 9 O  pz              0.0       0.0       0.0       0.0       0.0       1.5
 9 O  px              0.0       0.0       0.0       0.0       0.0       1.5
 9 O  py              0.0       0.0       0.0       0.0       0.0       3.7
 9 O  dxy             0.0       0.0       0.0       0.0       0.0       0.1
10 C  pz              0.0       0.0       0.0       0.1       0.1       0.0
11 C  s               0.0       0.0       0.0       0.0      99.6       0.0
12 C  s               0.0       0.0       0.0      99.7       0.0       0.0
20 H  s               0.0       0.0       0.0       0.0       0.0       0.2
21 H  s               0.0       0.0       0.0       0.0       0.0       0.3

                     12        13        14        15        16        17   
                  -0.77451  -0.73028  -0.68410  -0.66585  -0.61845  -0.60212
                   2.00000   2.00000   2.00000   2.00000   2.00000   2.00000
                  --------  --------  --------  --------  --------  --------
 0 C  s               1.9       7.0      10.6       3.4       2.6      13.7
 0 C  pz              0.6       1.4       0.7       0.0       0.1       1.2
 0 C  px              0.2       0.2       0.0       0.0       0.0       0.2
 0 C  py              0.0       0.0       0.0       0.1       0.0       0.0
 1 C  s               6.3      13.3       7.2       0.4       0.0       1.6
 1 C  pz              0.0       0.4       1.3       1.4       0.8       5.0
 1 C  px              1.0       0.1       0.9       0.2       0.5       2.2
 1 C  py              0.1       0.2       0.0       3.3       0.2       0.0
 1 C  dz2             0.0       0.0       0.0       0.0       0.0       0.2
 1 C  dxy             0.0       0.0       0.0       0.1       0.0       0.0
 2 H  s               0.8       2.3       1.7       0.0       0.0       0.4
 3 C  s               7.7       7.1       0.0      11.7       1.7       3.2
 3 C  pz              0.0       0.1       0.3       0.3       0.0       0.2
 3 C  px              0.4       0.5       2.7       2.0       0.0       1.2
 3 C  py              1.2       0.9       0.1       0.2       0.0       0.1
 4 C  s              11.0       0.3       4.6      12.8       0.0       1.9
 4 C  pz              1.2       0.0       0.2       0.0       0.0       0.5
 4 C  px              0.2       2.3       0.0       0.8       1.3       2.5
 4 C  py              0.7       0.4       0.4       1.1       0.2       0.2
 5 C  s              16.5       3.8       3.8       0.1       0.4       6.9
 5 C  pz              0.5       0.0       0.4       1.0       0.9       0.2
 5 C  px              0.1       3.3       3.8       0.2       0.4       0.2
 5 C  py              0.0       0.4       0.0       6.8       0.1       1.5
 5 C  dxy             0.0       0.0       0.0       0.1       0.0       0.0
 6 H  s               3.1       0.6       0.6       0.0       0.0       2.8
 7 C  s               8.0       0.3       6.9      16.4       0.2       2.4
 7 C  pz              0.0       0.0       0.0       0.1       0.0       0.3
 7 C  px              0.1       1.2       0.0       0.4       0.1       2.2
 7 C  py              2.2       0.0       0.3       0.1       0.1       1.0
 8 C  s               1.7       0.9       0.0       3.4       0.1       3.3
 8 C  pz              1.1       0.4       0.0       2.6       0.0       0.3
 8 C  px              1.5       0.3       4.2       4.0       0.2       1.7
 8 C  py              3.0       3.7       1.0       0.5       0.0       1.5
 8 C  dx2y2           0.0       0.0       0.1       0.1       0.0       0.0
 8 C  dxy             0.1       0.1       0.0       0.1       0.0       0.1
 9 O  s               1.8       0.8       0.0       2.1       0.0       1.5
 9 O  px              0.0       0.0       0.1       0.2       0.0       0.2
 9 O  py              0.0       0.1       0.0       0.1       0.0       0.2
10 C  s               7.6      15.3       6.6       0.1       1.0       0.1
10 C  pz              0.0       0.0       0.1       0.2      17.7       2.9
10 C  px              1.1       0.0       4.7       0.3       0.0       5.6
10 C  py              0.0       0.0       0.2       0.2       1.0       0.1
10 C  dz2             0.0       0.1       0.1       0.0       0.0       0.1
10 C  dxz             0.0       0.0       0.0       0.0       0.3       0.0
11 C  s               2.2       6.9       5.9       0.6      15.1       8.0
11 C  pz              0.7       1.7       1.1       0.0       0.2       0.1
11 C  px              0.5       0.6       0.0       0.0       0.4       0.1
12 C  s               1.9       7.4       9.3       0.0      22.9       0.1
12 C  pz              0.6       1.2       0.6       0.0       1.1       0.2
12 C  px              0.3       0.3       0.0       0.0       0.0       0.3
12 C  py              0.1       0.1       0.0       0.0       0.1       0.0
13 H  s               0.5       1.3       2.0       0.9       0.7       4.2
14 H  s               0.3       1.2       2.2       0.9       0.8       4.2
15 H  s               0.3       1.3       2.3       0.6       0.7       4.3
16 H  s               1.4       1.4       0.0       2.5       0.4       0.4
17 H  s               1.1       1.3       0.0       2.9       0.5       1.2
18 H  s               1.7       0.0       0.8       3.3       0.1       0.7
19 H  s               2.0       0.0       1.0       2.5       0.1       0.2
20 H  s               1.3       0.1       1.3       4.4       0.1       0.6
21 H  s               1.3       0.2       1.3       3.4       0.0       0.7
22 H  s               0.3       1.1       1.3       0.1       2.9       2.5
23 H  s               0.4       1.0       0.7       0.2       4.5       1.7
24 H  s               0.4       1.4       1.7       0.0       7.0       0.1
25 H  s               0.3       1.3       1.8       0.0       6.8       0.1
26 H  s               0.3       1.4       2.2       0.0       5.5       0.0

                     18        19        20        21        22        23   
                  -0.55650  -0.54307  -0.47834  -0.46137  -0.43961  -0.41887
                   2.00000   2.00000   2.00000   2.00000   2.00000   2.00000
                  --------  --------  --------  --------  --------  --------
 0 C  s               6.5       0.0       0.0       0.0       0.3       0.1
 0 C  pz              4.0       0.0       0.7       1.2       1.9       2.2
 0 C  px              0.1       0.0       2.2       0.8       0.1       0.1
 0 C  py              0.1       1.2       0.0       0.7       2.2       3.7
 0 C  dz2             0.1       0.0       0.0       0.0       0.0       0.0
 1 C  s               7.3       0.1       1.1       1.2       0.2       0.3
 1 C  pz              3.3       0.0       1.4       0.6       0.1       1.4
 1 C  px              0.1       0.0       6.0       4.5       4.1       0.2
 1 C  py              1.8      10.0       0.3       2.1       2.6       2.3
 1 C  dxy             0.0       0.2       0.0       0.0       0.0       0.0
 2 H  s               3.5       0.0       3.9       3.7       1.3       0.0
 3 C  s               1.8       9.2       0.1       0.4       0.0       0.0
 3 C  pz              0.1       0.9       4.3       0.0       0.2       7.5
 3 C  px              1.8       4.5       1.1       1.2       0.7       1.7
 3 C  py              2.6       2.7       0.0       0.8       4.1       0.5
 4 C  s               1.7       9.0       1.1       0.0       0.6       0.1
 4 C  pz              1.1       2.2       9.0       0.0       0.0       1.9
 4 C  px              0.8       1.9       0.8       0.3       1.8       7.4
 4 C  py              1.6       0.3       0.0       1.9      13.8       0.2
 5 C  s               5.0       1.4       1.3       0.9       0.2       0.0
 5 C  pz              0.9       4.2       5.6       0.1       6.5       1.6
 5 C  px              1.3       1.2       6.4       3.6       1.0       2.9
 5 C  py              0.3       2.6       3.3       0.8       1.1       4.6
 5 C  dx2y2           0.0       0.0       0.0       0.2       0.0       0.0
 6 H  s               2.1       1.3       6.7       0.2       1.8       0.1
 7 C  s               4.1       0.7       1.0       0.6       0.4       0.1
 7 C  pz              0.1       1.0       1.4       0.2      12.4       5.4
 7 C  px              0.4       3.8       3.8       7.0       0.2       3.4
 7 C  py              3.8       0.2       4.4       0.1       5.8       1.9
 7 C  dx2y2           0.0       0.0       0.0       0.2       0.0       0.1
 8 C  s               0.4       3.6       0.5       4.2       0.0       0.8
 8 C  pz              0.1       0.4       0.9       1.4       4.6       0.0
 8 C  px              5.6       0.0       0.1       0.9       3.3       3.6
 8 C  py              6.3       3.1       0.1       0.0       0.5       1.9
 9 O  s               0.1       1.6       0.0       1.8       0.4       1.1
 9 O  pz              0.0       0.2       0.1       1.1       2.3       0.5
 9 O  px              0.6       0.0       0.0       1.2       0.5       4.4
 9 O  py              0.8       0.8       0.0       0.7       0.1       0.0
10 C  s               0.7       1.1       2.0       7.7       0.1       0.1
10 C  pz              0.3       0.0       0.0       0.5       0.5       0.7
10 C  px              4.3       2.2       1.3       0.2       0.1       2.6
10 C  py              0.3       0.0       0.3       0.2       0.4       3.1
11 C  s               1.4       0.1       2.8       3.0       0.3       0.0
11 C  pz              0.1       0.2       1.6      11.8       1.1       2.4
11 C  px              0.5       0.2       3.7       2.5       0.4       4.4
11 C  py              0.0       0.0       0.0       0.0       0.2       1.5
11 C  dxz             0.0       0.0       0.1       0.2       0.0       0.0
12 C  s               1.0       2.0       0.1       1.0       0.1       0.3
12 C  pz              0.1       0.6       0.6       6.5       0.1       5.5
12 C  px              0.7       0.9       0.5       1.0       0.8       0.0
12 C  py              0.1       0.1       0.0       1.4       0.1       0.4
12 C  dz2             0.0       0.0       0.0       0.1       0.0       0.0
13 H  s               3.1       0.0       1.0       0.8       0.6       0.5
14 H  s               2.3       0.1       0.1       0.1       0.1       2.0
15 H  s               3.1       0.2       0.2       0.1       1.1       0.3
16 H  s               1.3       5.8       1.1       0.6       0.2       2.2
17 H  s               0.8       4.4       0.7       0.1       0.3       0.8
18 H  s               0.9       3.4       1.1       0.1       7.0       1.1
19 H  s               0.8       5.4       4.0       0.3       0.2       0.8
20 H  s               2.2       0.7       0.3       0.3       8.8       1.1
21 H  s               2.3       0.6       4.5       0.8       0.1       0.5
22 H  s               0.9       0.2       3.9       4.0       0.4       1.8
23 H  s               0.5       0.2       1.1       6.2       0.6       2.4
24 H  s               0.3       0.5       0.0       2.2       0.0       0.2
25 H  s               0.2       0.7       0.3       1.1       0.0       2.6
26 H  s               0.8       1.3       0.4       1.5       0.4       0.0

                     24        25        26        27        28        29   
                  -0.41610  -0.40246  -0.39016  -0.37978  -0.36969  -0.36413
                   2.00000   2.00000   2.00000   2.00000   2.00000   2.00000
                  --------  --------  --------  --------  --------  --------
 0 C  s               0.3       0.1       0.0       0.0       0.0       0.0
 0 C  pz              5.9       0.4       0.1       0.1       0.0       9.7
 0 C  px              0.1      14.8       2.9       0.7       1.2       7.2
 0 C  py              2.2       0.5       4.8       3.2       4.9       5.3
 0 C  dxz             0.0       0.0       0.0       0.0       0.0       0.2
 1 C  s               1.4       0.2       0.4       0.1       0.1       0.0
 1 C  pz              1.8       5.3       0.0       0.3       0.2       5.2
 1 C  px              1.6       6.0       1.2       0.2       0.4       0.7
 1 C  py              2.0       0.2       5.0       0.0       1.7       0.0
 1 C  dyz             0.0       0.0       0.0       0.1       0.0       0.1
 2 H  s               0.9       3.5       0.0       0.2       0.1       0.2
 3 C  s               0.8       0.0       0.3       0.1       0.0       0.1
 3 C  pz              6.6       3.2       1.8       3.8       1.0       0.1
 3 C  px              0.2       0.3       1.6       1.6       1.6       0.2
 3 C  py              1.7       0.5       8.4       0.2       0.0       0.5
 4 C  s               0.9       0.0       0.2       0.3       0.0       0.0
 4 C  pz              2.5       0.8       7.0       0.0       0.5       0.0
 4 C  px              1.0       0.0       0.0       0.0       0.3       0.7
 4 C  py              0.1       0.0       0.5       1.9       0.7       0.8
 5 C  s               0.0       0.7       0.4       0.2       0.2       0.0
 5 C  pz              0.3       1.8       3.2       0.3       0.2       0.5
 5 C  px              3.2       0.5       0.6       0.5       0.3       0.0
 5 C  py              1.7       2.4       0.4       0.2       0.1       0.2
 6 H  s               0.0       2.7       0.8       0.0       0.3       0.7
 7 C  s               0.5       0.0       0.0       0.1       0.3       0.1
 7 C  pz              0.5       2.7       2.1       3.3       6.2       1.8
 7 C  px              0.0       1.5       3.4       2.0       5.8       2.9
 7 C  py              0.9       0.1       0.6       0.7       1.5       2.3
 8 C  s               1.9       0.7       0.2       0.3       0.4       0.1
 8 C  pz              0.3       2.4       0.1       2.8       1.1       4.8
 8 C  px              0.1       2.4       2.6       0.2       0.5       3.6
 8 C  py              0.7       0.9       0.3       0.3       1.9       0.9
 9 O  s               1.7       2.8       1.2       1.3       0.5       2.4
 9 O  pz              0.3       0.1       0.6       0.0       2.9       0.1
 9 O  px              0.5       4.9       0.1       1.5       1.4       0.3
 9 O  py              3.4       2.9       4.2       4.2       0.1      13.8
10 C  s               0.1       0.0       0.2       0.0       0.0       0.1
10 C  pz              0.1       1.7       4.5       5.9       1.6       2.0
10 C  px              7.8       1.3       0.0       0.3       0.0       0.2
10 C  py              0.1       0.8       1.3       4.8       1.5       0.4
11 C  s               0.5       0.0       0.0       0.1       0.0       0.0
11 C  pz             11.2       0.5       0.6       1.6       0.2       0.7
11 C  px              1.1       6.1       0.9       8.1       2.0       0.9
11 C  py              0.6       0.0       0.4       1.1       0.1       0.1
12 C  pz              4.5       0.8       0.1       3.8       0.5       0.3
12 C  px              4.6       0.5       5.0      10.8       0.0       6.6
12 C  py              0.0       3.6       7.4       5.6      24.3       0.1
12 C  dyz             0.0       0.0       0.0       0.1       0.2       0.0
13 H  s               1.1       2.1       1.2       0.1       0.3       9.3
14 H  s               2.1       1.6       3.3       1.8       0.8       4.1
15 H  s               0.0       4.1       0.4       0.4       3.0       0.6
16 H  s               0.0       0.5       4.7       0.6       0.5       0.2
17 H  s               5.3       1.5       0.1       3.3       0.6       0.0
18 H  s               0.9       0.0       0.0       1.2       0.1       0.7
19 H  s               0.3       0.3       4.3       0.0       0.5       0.1
20 H  s               1.1       1.3       1.3       1.0       0.9       2.4
21 H  s               0.3       0.0       0.9       2.2       8.2       0.7
22 H  s               0.1       2.8       0.4       4.8       0.9       0.5
23 H  s               6.8       0.9       0.3       0.0       0.0       0.1
24 H  s               1.7       2.7       1.1       2.9       7.6       0.6
25 H  s               1.1       0.1       1.3       4.6       8.5       0.1
26 H  s               1.7       0.0       3.8       3.0       0.6       2.8

                     30        31        32        33        34        35   
                  -0.35637  -0.35094  -0.34480  -0.32721  -0.31813  -0.31283
                   2.00000   2.00000   2.00000   2.00000   2.00000   2.00000
                  --------  --------  --------  --------  --------  --------
 0 C  s               0.0       0.0       0.0       0.0       0.1       0.2
 0 C  pz              1.8       1.5       0.4       0.4       6.5       2.4
 0 C  px              7.6       5.8       0.5       2.2       2.2       0.3
 0 C  py              0.0       8.8       8.1       0.0       0.5       7.2
 0 C  dz2             0.1       0.0       0.0       0.0       0.1       0.0
 0 C  dxy             0.0       0.1       0.2       0.0       0.0       0.2
 1 C  s               0.0       0.4       0.1       0.0       0.0       0.1
 1 C  pz              4.5       1.2       0.4       0.2       4.3       3.2
 1 C  px              0.6       0.0       0.0       1.5       4.5       0.2
 1 C  py              0.0       0.4       2.7       0.0       0.0       1.1
 1 C  dz2             0.0       0.0       0.0       0.0       0.2       0.0
 1 C  dyz             0.0       0.1       0.1       0.0       0.0       0.0
 1 C  dx2y2           0.1       0.0       0.0       0.0       0.1       0.0
 1 C  dxy             0.0       0.0       0.4       0.0       0.0       0.0
 2 H  s               0.3       1.0       0.0       1.1       0.4       1.3
 3 C  s               0.1       0.0       0.4       0.1       0.3       0.0
 3 C  pz              0.1       3.1       0.0       0.1       0.2      13.6
 3 C  px              5.8       3.2       0.1       1.0       2.0       2.6
 3 C  py              7.4       0.0       7.4       2.0       0.8       0.6
 3 C  dz2             0.2       0.0       0.0       0.0       0.0       0.0
 3 C  dyz             0.0       0.1       0.0       0.0       0.0       0.3
 4 C  s               0.0       0.1       0.2       0.0       0.0       0.0
 4 C  pz              6.5       0.8       0.5       0.3       3.7       0.8
 4 C  px              4.0       3.3       3.6       1.6       2.8       4.3
 4 C  py              1.2       1.3       7.3       0.3       1.6       3.3
 4 C  dx2y2           0.1       0.0       0.1       0.1       0.0       0.1
 5 C  s               1.0       0.1       0.0       0.0       0.2       0.2
 5 C  pz              0.6       0.4       0.1       2.2      10.4       0.7
 5 C  px              0.1       0.7       0.0       1.8       4.9       0.7
 5 C  py              2.5       4.1       3.0       0.0       1.3       0.0
 5 C  dyz             0.0       0.0       0.0       0.0       0.2       0.1
 5 C  dxy             0.1       0.0       0.2       0.0       0.0       0.0
 6 H  s               0.1       1.3       0.2       0.3       6.1       0.5
 7 C  s               0.0       0.0       0.5       0.0       0.0       0.0
 7 C  pz              0.2       4.4       0.0       0.0       0.8       4.4
 7 C  px              0.1       0.9       0.7       0.0       0.2       0.9
 7 C  py              3.6       1.2       7.6       1.1       2.2       0.3
 7 C  dyz             0.0       0.1       0.0       0.0       0.2       0.2
 7 C  dxy             0.1       0.1       0.0       0.0       0.0       0.0
 8 C  s               0.2       0.2       0.9       0.0       0.2       0.0
 8 C  pz              1.7       0.3       0.8       0.0       3.7       3.5
 8 C  px              0.4       4.1       1.5       0.0       1.3       0.5
 8 C  py              1.6       0.3       8.9       0.1       0.6       0.1
 8 C  dz2             0.0       0.0       0.0       0.0       0.1       0.1
 8 C  dxz             0.0       0.0       0.0       0.0       0.0       0.1
 8 C  dyz             0.0       0.0       0.0       0.0       0.2       0.0
 8 C  dx2y2           0.0       0.0       0.1       0.0       0.0       0.0
 8 C  dxy             0.1       0.2       0.0       0.0       0.0       0.0
 9 O  s               0.8       1.2       3.5       0.0       0.2       0.0
 9 O  pz              5.4       4.4      12.5       0.0       3.9       6.0
 9 O  px              0.4       0.3       4.9       0.0       5.6       1.0
 9 O  py              0.8       6.1       2.4       0.1       1.1       2.1
10 C  s               0.2       0.1       0.0       0.1       0.0       0.0
10 C  pz              1.4       0.0       0.0       4.4       1.3       1.8
10 C  px              0.3       0.2       0.0       1.3       3.3       1.1
10 C  py              0.1       0.0       0.0       0.1       0.4       0.1
10 C  dz2             0.2       0.1       0.0       0.0       0.2       0.0
10 C  dxz             0.1       0.0       0.0       0.3       0.1       0.1
10 C  dx2y2           0.1       0.0       0.0       0.0       0.0       0.0
11 C  s               0.2       0.0       0.0       0.3       0.2       0.1
11 C  pz              0.2       0.0       0.1      11.2       0.4       0.4
11 C  px              5.5       0.5       0.0       2.3       7.1       0.1
11 C  py              0.2       0.0       0.1       0.9       0.0       0.3
11 C  dz2             0.1       0.0       0.0       0.1       0.2       0.1
11 C  dxz             0.0       0.0       0.0       0.2       0.0       0.0
12 C  pz              1.6       0.7       0.1      13.3       0.1       2.6
12 C  px              4.8       0.6       0.1      12.5       0.1       0.7
12 C  py              0.8       7.0       0.1       0.0       0.0       0.3
12 C  dx2y2           0.1       0.0       0.0       0.4       0.0       0.0
12 C  dxy             0.1       0.0       0.0       0.2       0.0       0.0
13 H  s               0.8       4.7       0.1       1.7       0.1       0.2
14 H  s               1.8       0.8       2.1       0.4       0.4       4.9
15 H  s               1.7       6.9       5.2       0.4       2.3       2.4
16 H  s               1.0       1.8       1.3       0.1       0.0       7.9
17 H  s               3.5       2.1       0.6       0.8       0.0       2.3
18 H  s               0.0       1.7       6.2       0.1       0.0       0.0
19 H  s               3.6       1.2       0.4       0.1       1.5       2.7
20 H  s               1.3       1.1       0.6       0.0       1.7       3.0
21 H  s               0.6       1.5       1.3       0.3       0.0       2.9
22 H  s               2.9       0.3       0.0       2.0       4.6       0.3
23 H  s               0.3       0.1       0.1       8.5       0.7       0.8
24 H  s               3.1       1.0       0.2       5.3       0.0       0.1
25 H  s               0.1       3.7       0.0       4.6       0.1       0.2
26 H  s               2.8       1.3       0.1      10.6       0.2       0.3

                     36        37        38        39        40        41   
                  -0.30252  -0.29472  -0.27852  -0.27549  -0.22259  -0.18709
                   2.00000   2.00000   2.00000   2.00000   2.00000   2.00000
                  --------  --------  --------  --------  --------  --------
 0 C  s               0.1       0.1       0.3       0.2       0.0       0.0
 0 C  pz              3.2       0.0       2.8       2.8       0.0       0.3
 0 C  px              3.5       0.0       2.6       0.1       0.0       0.1
 0 C  py              0.8       1.2       0.4       0.0       0.0       0.1
 0 C  dxz             0.3       0.0       0.0       0.1       0.0       0.0
 1 C  s               0.1       0.3       0.1       0.0       0.0       1.1
 1 C  pz              3.3       0.0       2.2       4.4       0.0       0.8
 1 C  px              7.6       0.2       4.5       3.1       0.1       1.0
 1 C  py              0.2       5.5       2.0       0.0       0.2       6.7
[...]
 3 C  px              0.0       0.7       0.0       0.0       0.0       0.0
 3 C  dz2             0.0       0.2       0.0       0.0       0.0       0.0
 3 C  dxz             1.0       0.1       0.8       0.0       0.0       0.0
 3 C  dyz             0.1       0.2       0.0       0.0       0.0       0.0
 3 C  dx2y2           1.4       1.0       0.1       0.1       0.0       0.0
 3 C  dxy             0.4       1.2       0.6       0.0       0.1       0.0
 4 C  pz              0.0       0.3       0.0       0.0       0.0       0.0
 4 C  px              0.0       0.7       0.1       0.0       0.0       0.0
 4 C  py              0.0       0.7       0.0       0.0       0.0       0.0
 4 C  dz2             0.1       1.4       0.3       0.0       0.0       0.0
 4 C  dxz             0.2       1.2       1.1       0.0       0.0       0.0
 4 C  dyz             0.0       3.5       0.2       0.0       0.0       0.0
 4 C  dx2y2           0.1       4.1       0.1       0.0       0.0       0.0
 4 C  dxy             0.7       0.0       1.1       0.0       0.0       0.0
 5 C  s               0.1       0.0       0.6       0.0       0.0       0.0
 5 C  px              0.3       1.1       1.8       0.0       0.1       0.0
 5 C  py              0.2       0.5       0.0       0.0       0.1       0.0
 5 C  dz2             0.7       1.5       3.5       0.0       0.0       0.0
 5 C  dxz             0.0       8.6       1.4       0.0       0.0       0.0
 5 C  dyz             0.4       3.4       0.0       0.0       0.0       0.0
 5 C  dx2y2           1.8       1.6       9.0       0.0       0.3       0.1
 5 C  dxy             0.5       2.7       3.2       0.0       0.3       0.0
 6 H  s               0.1       0.0       0.1       0.0       0.0       0.0
 7 C  s               0.4       0.0       0.1       0.0       0.2       0.0
 7 C  px              0.3       0.1       0.1       0.0       0.6       0.0
 7 C  py              0.0       0.1       0.1       0.0       0.0       0.0
 7 C  dz2             0.3       0.2       0.0       0.0       0.1       0.0
 7 C  dxz             3.7       0.2       0.0       0.2       0.1       0.0
 7 C  dyz             0.4       0.2       0.1       0.3       0.4       0.0
 7 C  dx2y2           4.3       0.3       0.0       0.1       1.1       0.0
 7 C  dxy             4.0       0.0       1.3       0.0       2.4       0.2
 8 C  s               0.9       0.0       0.0       0.0       0.0       6.9
 8 C  pz              0.1       0.0       0.0       0.8       0.0       1.5
 8 C  px              0.1       0.0       0.1       0.1       0.4       1.6
 8 C  py              0.0       0.0       0.0       0.1       0.2       3.9
 8 C  dz2             3.5       0.0       0.0       9.1       0.1       0.1
 8 C  dxz             0.0       0.1       0.0       1.3       4.7       0.7
 8 C  dyz             0.8       0.0       0.2       5.0       1.2       1.9
 8 C  dx2y2           2.6       0.0       0.2       0.2      18.0       0.5
 8 C  dxy            18.0       0.1       0.7       2.9       3.0       2.7
 9 O  s               1.5       0.1       0.2       0.0       0.0       6.6
 9 O  pz              0.3       0.0       0.0       1.1       0.0       0.9
 9 O  px              0.2       0.0       0.0       0.1       1.0       1.0
 9 O  py              0.6       0.0       0.1       0.2       0.5       2.3
 9 O  dz2            12.9       0.0       0.1      38.2       0.2       1.8
 9 O  dxz             4.6       0.0       0.0       5.8      10.7       9.9
 9 O  dyz             4.2       0.0       0.6      18.9       2.7      24.4
 9 O  dx2y2           0.4       0.3       0.5       0.9      40.1       5.5
 9 O  dxy             4.7       0.1       0.2      13.2       6.7      26.7
10 C  s               0.1       1.2       0.3       0.0       0.0       0.0
10 C  pz              0.0       2.2       0.3       0.0       0.0       0.0
10 C  px              0.0       1.5       1.0       0.0       0.0       0.0
10 C  dz2             3.1       9.7      17.0       0.0       0.0       0.0
10 C  dxz             0.2      20.2      10.6       0.0       0.0       0.0
10 C  dyz             0.1       0.1       2.4       0.0       0.0       0.0
10 C  dx2y2           0.4       0.0      11.9       0.0       0.1       0.0
10 C  dxy             0.6       2.8       0.2       0.0       0.0       0.0
11 C  s               0.0       3.1       0.1       0.0       0.0       0.0
11 C  pz              0.0       3.3       0.3       0.0       0.0       0.0
11 C  px              0.1       1.4       0.1       0.0       0.0       0.0
11 C  dz2             0.8       2.5       9.9       0.0       0.0       0.0
11 C  dxz             0.6       8.1       1.9       0.0       0.0       0.0
11 C  dyz             0.0       0.0       1.2       0.0       0.0       0.0
11 C  dx2y2           0.6       0.6       2.8       0.0       0.0       0.0
11 C  dxy             0.0       0.0       0.2       0.0       0.0       0.0
12 C  s               0.1       0.0       0.7       0.0       0.0       0.0
12 C  pz              0.1       0.1       0.8       0.0       0.0       0.0
12 C  px              0.1       0.0       0.5       0.0       0.0       0.0
12 C  py              0.0       0.0       0.1       0.0       0.0       0.0
12 C  dz2             0.1       2.8       0.9       0.0       0.0       0.0
12 C  dxz             0.8       0.6       4.0       0.0       0.0       0.0
12 C  dyz             0.1       0.0       0.7       0.0       0.0       0.0
12 C  dx2y2           0.0       1.4       0.0       0.0       0.0       0.0
12 C  dxy             0.1       0.3       0.3       0.0       0.0       0.0
20 H  s               0.1       0.0       0.0       0.0       0.0       0.0
21 H  s               0.2       0.0       0.0       0.0       0.0       0.0
22 H  s               0.1       0.0       0.7       0.0       0.0       0.0
23 H  s               0.1       0.1       0.8       0.0       0.0       0.0
26 H  s               0.0       0.1       0.1       0.0       0.0       0.0



                      *****************************
                      * MAYER POPULATION ANALYSIS *
                      *****************************

  NA   - Mulliken gross atomic population
  ZA   - Total nuclear charge
  QA   - Mulliken gross atomic charge
  VA   - Mayer's total valence
  BVA  - Mayer's bonded valence
  FA   - Mayer's free valence

  ATOM       NA         ZA         QA         VA         BVA        FA
  0 C      6.2785     6.0000    -0.2785     3.9738     3.9738    -0.0000
  1 C      6.1356     6.0000    -0.1356     3.9916     3.9916     0.0000
  2 H      0.9261     1.0000     0.0739     0.9744     0.9744    -0.0000
  3 C      6.0748     6.0000    -0.0748     4.0657     4.0657    -0.0000
  4 C      6.1425     6.0000    -0.1425     4.1926     4.1926     0.0000
  5 C      6.1577     6.0000    -0.1577     4.1113     4.1113     0.0000
  6 H      0.9387     1.0000     0.0613     0.9626     0.9626     0.0000
  7 C      6.1094     6.0000    -0.1094     3.8001     3.8001    -0.0000
  8 C      6.0080     6.0000    -0.0080     4.3924     4.3924    -0.0000
  9 O      8.1602     8.0000    -0.1602     2.3189     2.3189    -0.0000
 10 C      6.0363     6.0000    -0.0363     4.2854     4.2854     0.0000
 11 C      6.2341     6.0000    -0.2341     3.9605     3.9605     0.0000
 12 C      6.2148     6.0000    -0.2148     3.9243     3.9243     0.0000
 13 H      0.8896     1.0000     0.1104     0.9658     0.9658     0.0000
 14 H      0.8818     1.0000     0.1182     0.9540     0.9540     0.0000
 15 H      0.8821     1.0000     0.1179     0.9495     0.9495    -0.0000
 16 H      0.9270     1.0000     0.0730     0.9647     0.9647    -0.0000
 17 H      0.9106     1.0000     0.0894     0.9450     0.9450     0.0000
 18 H      0.9056     1.0000     0.0944     0.9536     0.9536     0.0000
 19 H      0.9025     1.0000     0.0975     0.9445     0.9445     0.0000
 20 H      0.8834     1.0000     0.1166     0.9601     0.9601    -0.0000
 21 H      0.8945     1.0000     0.1055     0.9921     0.9921    -0.0000
 22 H      0.9172     1.0000     0.0828     0.9495     0.9495    -0.0000
 23 H      0.9072     1.0000     0.0928     0.9482     0.9482    -0.0000
 24 H      0.8904     1.0000     0.1096     0.9567     0.9567     0.0000
 25 H      0.8904     1.0000     0.1096     0.9539     0.9539     0.0000
 26 H      0.9012     1.0000     0.0988     0.9699     0.9699     0.0000

  Mayer bond orders larger than 0.100000
B(  0-C ,  1-C ) :   1.0829 B(  0-C , 13-H ) :   0.9455 B(  0-C , 14-H ) :   0.9447 
B(  0-C , 15-H ) :   0.9430 B(  1-C ,  2-H ) :   0.8734 B(  1-C ,  3-C ) :   1.0253 
B(  1-C ,  8-C ) :   1.0171 B(  3-C ,  4-C ) :   1.1818 B(  3-C , 16-H ) :   0.9060 
B(  3-C , 17-H ) :   0.9091 B(  4-C ,  5-C ) :   1.1356 B(  4-C , 18-H ) :   0.9176 
B(  4-C , 19-H ) :   0.8792 B(  5-C ,  6-H ) :   0.8625 B(  5-C ,  7-C ) :   1.0405 
B(  5-C , 10-C ) :   1.0008 B(  7-C ,  8-C ) :   1.0076 B(  7-C , 20-H ) :   0.8765 
B(  7-C , 21-H ) :   0.8854 B(  8-C ,  9-O ) :   2.1898 B( 10-C , 11-C ) :   2.0474 
B( 10-C , 12-C ) :   1.1238 B( 11-C , 22-H ) :   0.8996 B( 11-C , 23-H ) :   0.9030 
B( 12-C , 24-H ) :   0.9329 B( 12-C , 25-H ) :   0.9280 B( 12-C , 26-H ) :   0.9383 


-------
TIMINGS
-------

Total SCF time: 0 days 0 hours 0 min 11 sec 

Total time                  ....      11.310 sec
Sum of individual times     ....      10.763 sec  ( 95.2%)

SCF preparation             ....       0.207 sec  (  1.8%)
Fock matrix formation       ....       9.740 sec  ( 86.1%)
  Startup                   ....       0.061 sec  (  0.6% of F)
  Split-RI-J                ....       4.265 sec  ( 43.8% of F)
  XC integration            ....       4.978 sec  ( 51.1% of F)
    Basis function eval.    ....       1.659 sec  ( 33.3% of XC)
    Density eval.           ....       0.949 sec  ( 19.1% of XC)
    XC-Functional eval.     ....       0.323 sec  (  6.5% of XC)
    XC-Potential eval.      ....       1.227 sec  ( 24.7% of XC)
Diagonalization             ....       0.000 sec  (  0.0%)
Density matrix formation    ....       0.170 sec  (  1.5%)
Total Energy calculation    ....       0.031 sec  (  0.3%)
Population analysis         ....       0.113 sec  (  1.0%)
Orbital Transformation      ....       0.051 sec  (  0.4%)
Orbital Orthonormalization  ....       0.000 sec  (  0.0%)
DIIS solution               ....       0.360 sec  (  3.2%)
  MO trafo                  ....       0.000 sec  (  0.0 % of DIIS)
  Orb grad                  ....       0.000 sec  (  0.0 % of DIIS)
  Energy W gradient         ....       0.000 sec  (  0.0 % of DIIS)
  DIIS error                ....       0.007 sec  (  1.9 % of DIIS)
  DIIS work                 ....       0.313 sec  ( 86.9 % of DIIS)
  Form Q                    ....       0.000 sec  (  0.0 % of DIIS)
  Form QpQm                 ....       0.000 sec  (  0.0 % of DIIS)
  Exp/Cayley                ....       0.000 sec  (  0.0 % of DIIS)
  Orb update                ....       0.000 sec  (  0.0 % of DIIS)
  Wake-sleep                ....       0.014 sec  (  4.0 % of DIIS)
SOSCF solution              ....       0.091 sec  (  0.8%)
  MO trafo                  ....       0.057 sec  ( 62.6 % of SOSCF)
  Orb grad                  ....       0.001 sec  (  1.4 % of SOSCF)
  Rot update                ....       0.012 sec  ( 12.8 % of SOSCF)
  Step                      ....       0.021 sec  ( 23.1 % of SOSCF)
Finished LeanSCF after  11.4 sec

Maximum memory used throughout the entire LEANSCF-calculation: 18.5 MB


-------------------------------------------------------------------------------
                          DFT DISPERSION CORRECTION                            
                                                                               
                                DFTD4 V3.4.0                                   
-------------------------------------------------------------------------------
The PBE functional is recognized
Active option DFTDOPT                   ...         5   

-------------------------   ----------------
Dispersion correction           -0.028594365
-------------------------   ----------------

------------------   -----------------
gCP correction             0.114131047
------------------   -----------------

-------------------------   --------------------
FINAL SINGLE POINT ENERGY      -464.821714083590
-------------------------   --------------------


------------------------------------------------------------------------------
                              ORCA PROPERTY CALCULATIONS
------------------------------------------------------------------------------

GBWName                                 ... sp.gbw
Number of atoms                         ...     27
Number of basis functions               ...    186
Max core memory                         ...   1024 MB

Electric properties:
Dipole moment                           ... YES
Quadrupole moment                       ...  NO
Static polarizability (Dipole/Dipole)   ...  NO
Static polarizability (Dipole/Quad.)    ...  NO
Static polarizability (Quad./Quad.)     ...  NO
Static polarizability (Velocity)        ...  NO

Atomic electric properties:
Dipole moment                           ...  NO
Quadrupole moment                       ...  NO
Static polarizability                   ...  NO

Choice of electric origin               ... Center of mass
Position of electric origin             ...     0.000015     0.000016    -0.000012

General magnetic properties:
Magnetizability                         ...  NO

EPR properties:
g-Tensor (aka g-matrix)                 ...  NO
Zero-Field splitting spin-orbit         ...  NO
Zero-field splitting spin-spin          ...  NO
Hyperfine couplings                     ...  NO (   0 nuclei)
Quadrupole couplings                    ...  NO (   0 nuclei)
Contact density                         ...  NO (   0 nuclei)

NMR properties:
Chemical shifts                         ...  NO (   0 nuclei)
Spin-rotation constants                 ...  NO (   0 nuclei)
Spin-spin couplings                     ...  NO (   0 nuclei,    0 pairs)

Choice of magnetic origin               ... GIAO
Position of magnetic origin             ...     0.000000     0.000000     0.000000

Properties with geometric perturbations:
SCF Hessian                             ...  NO
IR spectrum                             ...  NO
VCD spectrum                            ...  NO
X-ray spectroscopy properties:
SCF XES/XAS/RIXS spectra                ...  NO


-------------
DIPOLE MOMENT
-------------

Method             : SCF
Type of density    : Electron Density
Multiplicity       :   1
Irrep              :   0
Energy             :  -464.9072507652307422 Eh
Relativity type    : 
Basis              : AO
                                X                 Y                 Z
Electronic contribution:     -3.889256789      -4.315549304       4.446990353
Nuclear contribution   :      4.290115038       5.091603973      -5.117441300
                        -----------------------------------------
Total Dipole Moment    :      0.400858249       0.776054669      -0.670450946
                        -----------------------------------------
Magnitude (a.u.)       :      1.101114280
Magnitude (Debye)      :      2.798810073



--------------------
Rotational spectrum 
--------------------
 
Rotational constants in cm-1:             0.060764             0.023604             0.022363 
Rotational constants in MHz :          1821.651638           707.635373           670.423319 

Dipole components along the rotational axes: 
x,y,z [a.u.] :    -0.449275    -0.800883     0.607611 
x,y,z [Debye]:    -1.141966    -2.035683     1.544424 

 

Dipole moment calculation done in   0.0 sec 

Maximum memory used throughout the entire PROP-calculation: 11.9 MB

--------------------------------
SUGGESTED CITATIONS FOR THIS RUN
--------------------------------

Below you find a list of papers that are relevant to this ORCA run
We neither can nor want to force you to cite these papers, but we appreciate if you do
You receive ORCA, which is the product of decades of hard work by many enthusiastic individuals, for free
The only thing we kindly ask in return is that you cite our papers,
We deeply appreciate it, if you show your appreciation for ORCA by not just citing the generic ORCA reference.

Please note that relegating all ORCA citations to the supporting information does *not* help us.
SI sections are not indexed - citations you put there will not count into any citation statistics
But we need these citations in order to attract the funding resources that allow us to do what we are doing

Therefore, if you are a happy ORCA user, please consider citing a few of the papers listed below in the main body of your paper

In addition to the list printed below, the program has created the file sp.bibtex that contains the list in bibtex format
You can import this file easily into all common literature databanks and citation aid programs


List of essential papers. We consider these as the minimum necessary citations

  1. Neese,F.
     Software update: the ORCA program system, version 5.0
     WIRES Comput. Molec. Sci., 2022 12(1)e1606
     doi.org/10.1002/wcms.1606

List of papers to cite with high priority. The work reported in these papers was absolutely
necessary for this run to complete.
Our perspective: the developers of density functionals and basis sets usually get cited in chemistry papers
Good! But without the algorithms to do something with them, the functionals or basis sets would not do anything.
Hence, in our opinion, the algorithm design and method developments papers are equally worthy of getting cited

  1. Neese,F.
     An improvement of the resolution of the identity approximation for the formation of the Coulomb matrix
     J. Comp. Chem., 2003 24(14)1740-1747
     doi.org/10.1002/jcc.10318
  2. Neese,F.
     The SHARK Integral Generation and Digestion System
     J. Comp. Chem., 2022  1-16
     doi.org/10.1002/jcc.26942
  3. Caldeweyher,E.; Bannwarth,C.; Grimme,S.
     Extension of the D3 dispersion coefficient model
     J. Chem. Phys., 2017 147 034112-XXXX
     doi.org/10.1063/1.4993215
  4. Caldeweyher,E.; Ehlert,S.; Hansen,A.; Neugebauer,H.; Spicher,S.; Bannwarth,C.; Grimme,S.
     A generally applicable atomic-charge dependent London dispersion correction
     J. Chem. Phys., 2019 150 154122-XXXX
     doi.org/10.1063/1.5090222
  5. Caldeweyher,E.; Mewes,J.; Ehlert,S.; Grimme,S.
     Extension and evaluation of the D4 London-dispersion model for periodic systems
     Phys. Chem. Chem. Phys., 2020 22(16)8499-8512
     doi.org/10.1039/D0CP00502A

List of suggested additional citations. These are papers that are important in the 'surrounding' of 
of this run, or papers that preceded the highly important papers. If you like your results we are grateful for a citation.

  1. Neese,F.
     The ORCA program system
     WIRES Comput. Molec. Sci., 2012 2(1)73-78
     doi.org/10.1002/wcms.81
  2. Neese,F.
     Software update: the ORCA program system, version 4.0
     WIRES Comput. Molec. Sci., 2018 8(1)1-6
     doi.org/10.1002/wcms.1327
  3. Neese,F.; Wennmohs,F.; Becker,U.; Riplinger,C.
     The ORCA quantum chemistry program package
     J. Chem. Phys., 2020 152 Art. No. L224108
     doi.org/10.1063/5.0004608

List of optional additional citations

  1. Neese,F.
     Approximate second-order SCF convergence for spin unrestricted wavefunctions
     Chem. Phys. Lett., 2000 325(1-3)93-98
     doi.org/10.1016/s0009-2614(00)00662-x

Timings for individual modules:

Sum of individual times          ...       13.951 sec (=   0.233 min)
Startup calculation              ...        1.193 sec (=   0.020 min)   8.6 %
SCF iterations                   ...       12.644 sec (=   0.211 min)  90.6 %
Property calculations            ...        0.113 sec (=   0.002 min)   0.8 %
                             ****ORCA TERMINATED NORMALLY****
TOTAL RUN TIME: 0 days 0 hours 0 minutes 14 seconds 755 msec
