
                                 *****************
                                 * O   R   C   A *
                                 *****************

                                            #,                                       
                                            ###                                      
                                            ####                                     
                                            #####                                    
                                            ######                                   
                                           ########,                                 
                                     ,,################,,,,,                         
                               ,,#################################,,                 
                          ,,##########################################,,             
                       ,#########################################, ''#####,          
                    ,#############################################,,   '####,        
                  ,##################################################,,,,####,       
                ,###########''''           ''''###############################       
              ,#####''   ,,,,##########,,,,          '''####'''          '####       
            ,##' ,,,,###########################,,,                        '##       
           ' ,,###''''                  '''############,,,                           
         ,,##''                                '''############,,,,        ,,,,,,###''
      ,#''                                            '''#######################'''  
     '                                                          ''''####''''         
             ,#######,   #######,   ,#######,      ##                                
            ,#'     '#,  ##    ##  ,#'     '#,    #''#        ,####,   ,####,        
            ##       ##  ##   ,#'  ##            #'  '#       #'       #'  '#        
            ##       ##  #######   ##           ,######,      #####,   #    #        
            '#,     ,#'  ##    ##  '#,     ,#' ,#      #,     #,   #   #,  ,#        
             '#######'   ##     ##  '#######'  #'      '#     '####' # '####'        



                #########################################################
                #                        -***-                          #
                #          Department of theory and spectroscopy        #
                #                                                       #
                #                      Frank Neese                      #
                #                                                       #
                #     Directorship, Architecture, Infrastructure        #
                #                    SHARK, DRIVERS                     #
                #        Core code/Algorithms in most modules           #
                #                                                       #
                #        Max Planck Institute fuer Kohlenforschung      #
                #                Kaiser Wilhelm Platz 1                 #
                #                 D-45470 Muelheim/Ruhr                 #
                #                      Germany                          #
                #                                                       #
                #                  All rights reserved                  #
                #                        -***-                          #
                #########################################################


                         Program Version 6.0.0  -   RELEASE  -


 With contributions from (in alphabetic order):
   Daniel Aravena         : Magnetic Suceptibility
   Michael Atanasov       : Ab Initio Ligand Field Theory (pilot matlab implementation)
   Alexander A. Auer      : GIAO ZORA, VPT2 properties, NMR spectrum
   Ute Becker             : All parallelization in ORCA, NUMFREQ, NUMCALC
   Giovanni Bistoni       : ED, misc. LED, open-shell LED, HFLD
   Martin Brehm           : Molecular dynamics
   Dmytro Bykov           : pre 5.0 version of the SCF Hessian
   Marcos Casanova-Páez   : Triplet and SCS-CIS(D). UHF-(DLPNO)-IP/EA/STEOM-CCSD. UHF-CVS-IP/STEOM-CCSD
   Vijay G. Chilkuri      : MRCI spin determinant printing, contributions to CSF-ICE
   Pauline Colinet        : FMM embedding
   Dipayan Datta          : RHF DLPNO-CCSD density
   Achintya Kumar Dutta   : EOM-CC, STEOM-CC
   Nicolas Foglia         : Exact transition moments, OPA infrastructure, MCD improvements
   Dmitry Ganyushin       : Spin-Orbit,Spin-Spin,Magnetic field MRCI
   Miquel Garcia          : C-PCM and meta-GGA Hessian, CCSD/C-PCM, Gaussian charge scheme
   Tiago L. C. Gouveia    : GS-ROHF, GS-ROCIS
   Yang Guo               : DLPNO-NEVPT2, F12-NEVPT2, CIM, IAO-localization
   Andreas Hansen         : Spin unrestricted coupled pair/coupled cluster methods
   Ingolf Harden          : AUTO-CI MPn and infrastructure 
   Benjamin Helmich-Paris : MC-RPA, TRAH-(SCF,CASSCF), AVAS, COSX integrals, SCF dyn. polar.
   Lee Huntington         : MR-EOM, pCC
   Robert Izsak           : Overlap fitted RIJCOSX, COSX-SCS-MP3, EOM
   Riya Kayal             : Wick's Theorem for AUTO-CI, AUTO-CI UHF-CCSDT
   Emily Kempfer          : AUTO-CI, RHF CISDT and CCSDT
   Christian Kollmar      : KDIIS, OOCD, Brueckner-CCSD(T), CCSD density, CASPT2, CASPT2-K, improved NEVPT2
   Axel Koslowski         : Symmetry handling
   Simone Kossmann        : Meta GGA functionals, TD-DFT gradient, OOMP2, (MP2 Hessian; deprecated post 5.0)
   Lucas Lang             : DCDCAS
   Marvin Lechner         : AUTO-CI (C++ implementation), FIC-MRCC
   Spencer Leger          : CASSCF response
   Dagmar Lenk            : GEPOL surface, SMD, ORCA-2-JSON
   Dimitrios Liakos       : Extrapolation schemes; Compound Job, initial MDCI parallelization
   Dimitrios Manganas     : Further ROCIS development; embedding schemes. LFT, Crystal Embedding
   Dimitrios Pantazis     : SARC Basis sets
   Anastasios Papadopoulos: AUTO-CI, single reference methods and gradients
   Taras Petrenko         : pre 6.0 DFT Hessian and TD-DFT gradient, (ASA, deprecated), ECA, 1-Electron XAS/XES, NRVS
   Peter Pinski           : DLPNO-MP2, DLPNO-MP2 Gradient
   Christoph Reimann      : Effective Core Potentials
   Marius Retegan         : Local ZFS, SOC
   Christoph Riplinger    : Optimizer, TS searches, QM/MM, DLPNO-CCSD(T), (RO)-DLPNO pert. Triples
   Michael Roemelt        : Original ROCIS implementation
   Masaaki Saitow         : Open-shell DLPNO-CCSD energy and density
   Barbara Sandhoefer     : DKH picture change effects
   Kantharuban Sivalingam : CASSCF convergence/infrastructure, NEVPT2 and variants, FIC-MRCI
   Bernardo de Souza      : ESD, SOC TD-DFT
   Georgi Stoychev        : AutoAux, RI-MP2 NMR, DLPNO-MP2 response, X2C
   Van Anh Tran           : RI-MP2 g-tensors
   Willem Van den Heuvel  : Paramagnetic NMR
   Zikuan Wang            : NOTCH, Electric field optimization 
   Frank Wennmohs         : Technical directorship and infrastructure
   Hang Xu                : AUTO-CI-Response properties 


 We gratefully acknowledge several colleagues who have allowed us to
 interface, adapt or use parts of their codes:
   Stefan Grimme, W. Hujo, H. Kruse, P. Pracht,  : VdW corrections, initial TS optimization,
                  C. Bannwarth, S. Ehlert,         DFT functionals, gCP, sTDA/sTD-DF
                  L. Wittmann, M. Mueller
   Ed Valeev, F. Pavosevic, A. Kumar             : LibInt (2-el integral package), F12 methods
   Garnet Chan, S. Sharma, J. Yang, R. Olivares  : DMRG
   Ulf Ekstrom                                   : XCFun DFT Library
   Mihaly Kallay                                 : mrcc  (arbitrary order and MRCC methods)
   Frank Weinhold                                : gennbo (NPA and NBO analysis)
   Simon Mueller                                 : openCOSMO-RS
   Christopher J. Cramer and Donald G. Truhlar   : smd solvation model
   Lars Goerigk                                  : TD-DFT with DH, B97 family of functionals
   V. Asgeirsson, H. Jonsson                     : NEB implementation
   FAccTs GmbH                                   : IRC, NEB, NEB-TS, DLPNO-Multilevel, CI-OPT
                                                   MM, QMMM, 2- and 3-layer-ONIOM, Crystal-QMMM,
                                                   LR-CPCM, SF, NACMEs, symmetry and pop. for TD-DFT,
                                                   nearIR, NL-DFT gradient (VV10), updates on ESD,
                                                   ML-optimized integration grids, MBIS, APM,
                                                   GOAT, DOCKER, SOLVATOR, interface openCOSMO-RS
   S Lehtola, MJT Oliveira, MAL Marques          : LibXC Library
   Liviu Ungur et al                             : ANISO software


 Your calculation uses the libint2 library for the computation of 2-el integrals
 For citations please refer to: http://libint.valeyev.net

 Your ORCA version has been built with support for libXC version: 6.2.2
 For citations please refer to: https://libxc.gitlab.io

 This ORCA versions uses:
   CBLAS   interface :  Fast vector & matrix operations
   LAPACKE interface :  Fast linear algebra routines
   SCALAPACK package :  Parallel linear algebra routines
   Shared memory     :  Shared parallel matrices
   BLAS/LAPACK       :  OpenBLAS 0.3.27  USE64BITINT DYNAMIC_ARCH NO_AFFINITY SkylakeX SINGLE_THREADED
        Core in use  :  SkylakeX
   Copyright (c) 2011-2014, The OpenBLAS Project


Your calculation utilizes the geometrical counterpoise correction gCP
Please cite in your paper:
H.Kruse, S. Grimme J.Chem.Phys., 136, (2012), 154101 
   

Your calculation utilizes the DFT-NL dispersion correction.
Cite in your paper:
Vydrov, O. A.; Van Voorhis, T. J. Chem. Phys. 2010, 133, 244103
Hujo, W.; Grimme, S. J. Chem. Theory Comput. 2011, 7, 3866 
   

================================================================================

----- Orbital basis set information -----
Your calculation utilizes the basis: def2-TZVP
   F. Weigend and R. Ahlrichs, Phys. Chem. Chem. Phys. 7, 3297 (2005).

----- AuxJ basis set information -----
Your calculation utilizes the auxiliary basis: def2/J
   F. Weigend, Phys. Chem. Chem. Phys. 8, 1057 (2006).

================================================================================
                                        WARNINGS
                       Please study these warnings very carefully!
================================================================================


================================================================================
                                       INPUT FILE
================================================================================
NAME = sp_gas.inp
|  1> ! wb97x-v def2-tzvp def2/J RIJCOSX DEFGRID2 scfconv7 GCP(DFT/TZ) printgap
|  2> %output
|  3>     printlevel normal
|  4> end
|  5> * xyz 0 1
|  6> C -2.7385499641968725 0.7256224352056092 0.7647443674588392
|  7> C -1.7691457436714515 -0.1193638795648665 -0.00482942969966558
|  8> O -2.1412352344459293 -0.8592510407088385 -0.9128670651395656
|  9> C -0.3130704010577763 -0.0008900705128593704 0.3750353792770676
| 10> C 0.309455577330891 1.1484126767988796 -0.4540696295461143
| 11> C 1.7816986167767186 1.3378926827366135 -0.08574939692869596
| 12> C 2.572617145170226 0.041055426744806035 -0.2642203470800048
| 13> C 1.9445104977308965 -1.1023057877220823 0.5347864476966945
| 14> C 0.47479206741109475 -1.2948485905728069 0.15797482956109032
| 15> H -2.3374312744699175 1.7310020940556603 0.927211069376292
| 16> H -3.7092665572696855 0.7713778753006769 0.2682478717134466
| 17> H -2.8607955352604373 0.27360438186537017 1.757697398572593
| 18> H -0.2625868249139808 0.29036971505442916 1.433284798259262
| 19> H 0.2229928181063685 0.8933034204997884 -1.5189825205939285
| 20> H -0.24789471309408756 2.0776626349840233 -0.2917556249851211
| 21> H 2.212519715987663 2.1360469999529363 -0.7014248898619148
| 22> H 1.850089231002692 1.6652364196669704 0.9605680970458378
| 23> H 2.5861042016802984 -0.22896560871686267 -1.3292948425262743
| 24> H 3.6143671318503205 0.19024226301833644 0.04243362949428594
| 25> H 2.497025475848359 -2.03360017080237 0.36526711866273764
| 26> H 2.0176464932351057 -0.8778135072355854 1.608014137072813
| 27> H 0.40231658895422645 -1.5843002786007643 -0.897726104174067
| 28> H 0.02868968127363697 -2.104364871247802 0.7475621481837242
| 29> *
| 30> 
| 31>                          ****END OF INPUT****
================================================================================

                       ****************************
                       * Single Point Calculation *
                       ****************************

---------------------------------
CARTESIAN COORDINATES (ANGSTROEM)
---------------------------------
  C     -2.738550    0.725622    0.764744
  C     -1.769146   -0.119364   -0.004829
  O     -2.141235   -0.859251   -0.912867
  C     -0.313070   -0.000890    0.375035
  C      0.309456    1.148413   -0.454070
  C      1.781699    1.337893   -0.085749
  C      2.572617    0.041055   -0.264220
  C      1.944510   -1.102306    0.534786
  C      0.474792   -1.294849    0.157975
  H     -2.337431    1.731002    0.927211
  H     -3.709267    0.771378    0.268248
  H     -2.860796    0.273604    1.757697
  H     -0.262587    0.290370    1.433285
  H      0.222993    0.893303   -1.518983
  H     -0.247895    2.077663   -0.291756
  H      2.212520    2.136047   -0.701425
  H      1.850089    1.665236    0.960568
  H      2.586104   -0.228966   -1.329295
  H      3.614367    0.190242    0.042434
  H      2.497025   -2.033600    0.365267
  H      2.017646   -0.877814    1.608014
  H      0.402317   -1.584300   -0.897726
  H      0.028690   -2.104365    0.747562

----------------------------
CARTESIAN COORDINATES (A.U.)
----------------------------
  NO LB      ZA    FRAG     MASS         X           Y           Z
   0 C     6.0000    0    12.011   -5.175109    1.371228    1.445157
   1 C     6.0000    0    12.011   -3.343201   -0.225565   -0.009126
   2 O     8.0000    0    15.999   -4.046348   -1.623749   -1.725069
   3 C     6.0000    0    12.011   -0.591617   -0.001682    0.708714
   4 C     6.0000    0    12.011    0.584786    2.170185   -0.858067
   5 C     6.0000    0    12.011    3.366922    2.528251   -0.162043
   6 C     6.0000    0    12.011    4.861542    0.077584   -0.499304
   7 C     6.0000    0    12.011    3.674592   -2.083056    1.010600
   8 C     6.0000    0    12.011    0.897227   -2.446909    0.298529
   9 H     1.0000    0     1.008   -4.417105    3.271120    1.752175
  10 H     1.0000    0     1.008   -7.009498    1.457693    0.506915
  11 H     1.0000    0     1.008   -5.406120    0.517037    3.321567
  12 H     1.0000    0     1.008   -0.496217    0.548719    2.708516
  13 H     1.0000    0     1.008    0.421395    1.688099   -2.870461
  14 H     1.0000    0     1.008   -0.468453    3.926213   -0.551338
  15 H     1.0000    0     1.008    4.181056    4.036544   -1.325501
  16 H     1.0000    0     1.008    3.496162    3.146841    1.815211
  17 H     1.0000    0     1.008    4.887029   -0.432682   -2.512003
  18 H     1.0000    0     1.008    6.830164    0.359506    0.080188
  19 H     1.0000    0     1.008    4.718694   -3.842947    0.690255
  20 H     1.0000    0     1.008    3.812799   -1.658827    3.038706
  21 H     1.0000    0     1.008    0.760268   -2.993894   -1.696456
  22 H     1.0000    0     1.008    0.054216   -3.976673    1.412688

--------------------------------
INTERNAL COORDINATES (ANGSTROEM)
--------------------------------
 C      0   0   0     0.000000000000     0.00000000     0.00000000
 C      1   0   0     1.498662818714     0.00000000     0.00000000
 O      2   1   0     1.228989807828   121.53400663     0.00000000
 C      2   1   3     1.509466369250   116.77492356   179.06692078
 C      4   2   1     1.547853518393   108.14604708   271.60329977
 C      5   4   2     1.529399239441   110.49644069   178.64166630
 C      6   5   4     1.529441357860   111.38611429    56.07463572
 C      7   6   5     1.529772756132   111.12858782   304.62408583
 C      8   7   6     1.529422110117   111.09836560    55.63649086
 H      1   2   3     1.094568358263   110.91970350   222.51411186
 H      1   2   3     1.091280456460   111.43186941   346.45441946
 H      1   2   3     1.097825132791   107.71793305   106.27326692
 H      4   2   1     1.098759612893   107.90881481    27.60176850
 H      5   4   2     1.098451640675   108.37236165   298.93294373
 H      5   4   2     1.095669049988   110.23044938    56.31408773
 H      6   5   4     1.096226913652   109.46707782   178.45192799
 H      6   5   4     1.098458691266   109.04126935   295.28183366
 H      7   6   5     1.098852556595   109.13582795    65.01335053
 H      7   6   5     1.096146161884   110.08533498   182.20865122
 H      8   7   6     1.096046911367   110.32231805   177.69380531
 H      8   7   6     1.098891865053   109.27437736   294.97434907
 H      9   8   7     1.097059449697   109.49881385    63.05999371
 H      9   8   7     1.096328944193   110.57801443   180.97322744

---------------------------
INTERNAL COORDINATES (A.U.)
---------------------------
 C      0   0   0     0.000000000000     0.00000000     0.00000000
 C      1   0   0     2.832062294459     0.00000000     0.00000000
 O      2   1   0     2.322454158176   121.53400663     0.00000000
 C      2   1   3     2.852478046248   116.77492356   179.06692078
 C      4   2   1     2.925019245190   108.14604708   271.60329977
 C      5   4   2     2.890145711971   110.49644069   178.64166630
 C      6   5   4     2.890225304248   111.38611429    56.07463572
 C      7   6   5     2.890851556224   111.12858782   304.62408583
 C      8   7   6     2.890188931284   111.09836560    55.63649086
 H      1   2   3     2.068434431972   110.91970350   222.51411186
 H      1   2   3     2.062221198011   111.43186941   346.45441946
 H      1   2   3     2.074588843911   107.71793305   106.27326692
 H      4   2   1     2.076354755381   107.90881481    27.60176850
 H      5   4   2     2.075772772233   108.37236165   298.93294373
 H      5   4   2     2.070514437890   110.23044938    56.31408773
 H      6   5   4     2.071568647436   109.46707782   178.45192799
 H      6   5   4     2.075786095919   109.04126935   295.28183366
 H      7   6   5     2.076530393524   109.13582795    65.01335053
 H      7   6   5     2.071416048711   110.08533498   182.20865122
 H      8   7   6     2.071228492414   110.32231805   177.69380531
 H      8   7   6     2.076604675744   109.27437736   294.97434907
 H      9   8   7     2.073141912557   109.49881385    63.05999371
 H      9   8   7     2.071761457216   110.57801443   180.97322744

---------------------
BASIS SET INFORMATION
---------------------
There are 3 groups of distinct atoms

 Group   1 Type C   : 11s6p2d1f contracted to 5s3p2d1f pattern {62111/411/11/1}
 Group   2 Type O   : 11s6p2d1f contracted to 5s3p2d1f pattern {62111/411/11/1}
 Group   3 Type H   : 5s1p contracted to 3s1p pattern {311/1}

Atom   0C    basis set group =>   1
Atom   1C    basis set group =>   1
Atom   2O    basis set group =>   2
Atom   3C    basis set group =>   1
Atom   4C    basis set group =>   1
Atom   5C    basis set group =>   1
Atom   6C    basis set group =>   1
Atom   7C    basis set group =>   1
Atom   8C    basis set group =>   1
Atom   9H    basis set group =>   3
Atom  10H    basis set group =>   3
Atom  11H    basis set group =>   3
Atom  12H    basis set group =>   3
Atom  13H    basis set group =>   3
Atom  14H    basis set group =>   3
Atom  15H    basis set group =>   3
Atom  16H    basis set group =>   3
Atom  17H    basis set group =>   3
Atom  18H    basis set group =>   3
Atom  19H    basis set group =>   3
Atom  20H    basis set group =>   3
Atom  21H    basis set group =>   3
Atom  22H    basis set group =>   3
---------------------------------
AUXILIARY/J BASIS SET INFORMATION
---------------------------------
There are 3 groups of distinct atoms

 Group   1 Type C   : 12s5p4d2f1g contracted to 6s4p3d1f1g pattern {711111/2111/211/2/1}
 Group   2 Type O   : 12s5p4d2f1g contracted to 6s4p3d1f1g pattern {711111/2111/211/2/1}
 Group   3 Type H   : 5s2p1d contracted to 3s1p1d pattern {311/2/1}

Atom   0C    basis set group =>   1
Atom   1C    basis set group =>   1
Atom   2O    basis set group =>   2
Atom   3C    basis set group =>   1
Atom   4C    basis set group =>   1
Atom   5C    basis set group =>   1
Atom   6C    basis set group =>   1
Atom   7C    basis set group =>   1
Atom   8C    basis set group =>   1
Atom   9H    basis set group =>   3
Atom  10H    basis set group =>   3
Atom  11H    basis set group =>   3
Atom  12H    basis set group =>   3
Atom  13H    basis set group =>   3
Atom  14H    basis set group =>   3
Atom  15H    basis set group =>   3
Atom  16H    basis set group =>   3
Atom  17H    basis set group =>   3
Atom  18H    basis set group =>   3
Atom  19H    basis set group =>   3
Atom  20H    basis set group =>   3
Atom  21H    basis set group =>   3
Atom  22H    basis set group =>   3

Checking for AutoStart:
The File: sp_gas.gbw exists
Trying to determine its content:
     ... Fine, the file contains calculation information
     ... Fine, the calculation information was read
     ... Fine, the file contains a basis set
     ... Fine, the basis set was read
     ... Fine, the file contains a geometry
     ... Fine, the geometry was read
     ... Fine, the file contains a set of orbitals
     ... Fine, the orbitals can be read
     => possible old guess file was deleted
     => GBW file was renamed to GES file
     => GES file is set as startup file
     => Guess is set to MORead
     ... now leaving AutoStart

------------------------------------------------------------------------------
                             ORCA STARTUP CALCULATIONS
                           -- RI-GTO INTEGRALS CHOSEN --
------------------------------------------------------------------------------
------------------------------------------------------------------------------
                   ___                                                        
                  /   \      - P O W E R E D   B Y -                         
                 /     \                                                     
                 |  |  |   _    _      __       _____    __    __             
                 |  |  |  | |  | |    /  \     |  _  \  |  |  /  |          
                  \  \/   | |  | |   /    \    | | | |  |  | /  /          
                 / \  \   | |__| |  /  /\  \   | |_| |  |  |/  /          
                |  |  |   |  __  | /  /__\  \  |    /   |      \           
                |  |  |   | |  | | |   __   |  |    \   |  |\   \          
                \     /   | |  | | |  |  |  |  | |\  \  |  | \   \       
                 \___/    |_|  |_| |__|  |__|  |_| \__\ |__|  \__/        
                                                                              
                      - O R C A' S   B I G   F R I E N D -                    
                                      &                                       
                       - I N T E G R A L  F E E D E R -                       
                                                                              
 v1 FN, 2020, v2 2021, v3 2022-2024                                           
------------------------------------------------------------------------------


----------------------
SHARK INTEGRAL PACKAGE
----------------------

Number of atoms                             ...     23
Number of basis functions                   ...    363
Number of shells                            ...    155
Maximum angular momentum                    ...      3
Integral batch strategy                     ... SHARK/LIBINT Hybrid
RI-J (if used) integral strategy            ... SPLIT-RIJ (Revised 2003 algorithm where possible)
Printlevel                                  ...      1
Contraction scheme used                     ... SEGMENTED contraction
Prescreening option                         ... SCHWARTZ
   Thresh                                   ... 3.000e-11
   Tcut                                     ... 1.000e-12
   Tpresel                                  ... 1.000e-12 
Coulomb Range Separation                    ... NOT USED
Exchange Range Separation                   ... Long Range
   Mu parameter                             ... 3.000e-01
   Scaling (regular/separated)              ... 1.670e-01 8.330e-01
Multipole approximations                    ... NOT USED
Finite Nucleus Model                        ... NOT USED
CABS basis                                  ... NOT available
Auxiliary Coulomb fitting basis             ... AVAILABLE
   # of basis functions in Aux-J            ...    595
   # of shells in Aux-J                     ...    205
   Maximum angular momentum in Aux-J        ...      4
Auxiliary J/K fitting basis                 ... NOT available
Auxiliary Correlation fitting basis         ... NOT available
Auxiliary 'external' fitting basis          ... NOT available

Checking pre-screening integrals            ... done (  0.0 sec) Dimension = 155
Check shell pair data                       ... done (  0.0 sec)
Shell pair information
Shell pair cut-off parameter TPreSel        ...   1.0e-12
Total number of shell pairs                 ...     12090
Shell pairs after pre-screening             ...     10958
Total number of primitive shell pairs       ...     35220
Primitive shell pairs kept                  ...     23997
          la=0 lb=0:   3364 shell pairs
          la=1 lb=0:   3247 shell pairs
          la=1 lb=1:    808 shell pairs
          la=2 lb=0:   1434 shell pairs
          la=2 lb=1:    697 shell pairs
          la=2 lb=2:    164 shell pairs
          la=3 lb=0:    711 shell pairs
          la=3 lb=1:    339 shell pairs
          la=3 lb=2:    152 shell pairs
          la=3 lb=3:     42 shell pairs

Calculating one electron integrals          ... done (  0.1 sec)
Calculating RI/J V-Matrix + Cholesky decomp.... done (  0.1 sec)
Calculating Nuclear repulsion               ... done (  0.0 sec) ENN=    471.416957141246 Eh

Diagonalization of the overlap matrix:
Smallest eigenvalue                        ... 8.860e-05
Time for diagonalization                   ...    0.012 sec
Threshold for overlap eigenvalues          ... 1.000e-07
Number of eigenvalues below threshold      ... 0
Time for construction of square roots      ...    0.026 sec
Total time needed                          ...    0.065 sec

-------------------
DFT GRID GENERATION
-------------------

General Integration Accuracy     IntAcc      ... 4.388
Radial Grid Type                 RadialGrid  ... OptM3 with GC (2021)
Angular Grid (max. ang.)         AngularGrid ... 4 (Lebedev-302)
Angular grid pruning method      GridPruning ... 4 (adaptive)
Weight generation scheme         WeightScheme... mBecke (2022)
Basis function cutoff            BFCut       ... 1.0000e-11
Integration weight cutoff        WCut        ... 1.0000e-14
Partially contracted basis set               ... off
Rotationally invariant grid construction     ... off
Angular grids for H and He will be reduced by one unit

Total number of grid points                  ...    98420
Total number of batches                      ...     1550
Average number of points per batch           ...       63
Average number of grid points per atom       ...     4279

--------------------
COSX GRID GENERATION
--------------------

GRIDX 1
-------
General Integration Accuracy     IntAcc      ... 3.816
Radial Grid Type                 RadialGrid  ... OptM3 with GC (2021)
Angular Grid (max. ang.)         AngularGrid ... 1 (Lebedev-50)
Angular grid pruning method      GridPruning ... 4 (adaptive)
Weight generation scheme         WeightScheme... mBecke (2022)
Basis function cutoff            BFCut       ... 1.0000e-11
Integration weight cutoff        WCut        ... 1.0000e-14
Partially contracted basis set               ... on
Rotationally invariant grid construction     ... off
Angular grids for H and He will be reduced by one unit

Total number of grid points                  ...    12618
Total number of batches                      ...      116
Average number of points per batch           ...      108
Average number of grid points per atom       ...      549
UseSFitting                                  ... on

GRIDX 2
-------
General Integration Accuracy     IntAcc      ... 4.020
Radial Grid Type                 RadialGrid  ... OptM3 with GC (2021)
Angular Grid (max. ang.)         AngularGrid ... 2 (Lebedev-110)
Angular grid pruning method      GridPruning ... 4 (adaptive)
Weight generation scheme         WeightScheme... mBecke (2022)
Basis function cutoff            BFCut       ... 1.0000e-11
Integration weight cutoff        WCut        ... 1.0000e-14
Partially contracted basis set               ... on
Rotationally invariant grid construction     ... off
Angular grids for H and He will be reduced by one unit

Total number of grid points                  ...    26424
Total number of batches                      ...      218
Average number of points per batch           ...      121
Average number of grid points per atom       ...     1149
UseSFitting                                  ... on

GRIDX 3
-------
General Integration Accuracy     IntAcc      ... 4.338
Radial Grid Type                 RadialGrid  ... OptM3 with GC (2021)
Angular Grid (max. ang.)         AngularGrid ... 3 (Lebedev-194)
Angular grid pruning method      GridPruning ... 4 (adaptive)
Weight generation scheme         WeightScheme... mBecke (2022)
Basis function cutoff            BFCut       ... 1.0000e-11
Integration weight cutoff        WCut        ... 1.0000e-14
Partially contracted basis set               ... on
Rotationally invariant grid construction     ... off
Angular grids for H and He will be reduced by one unit

Total number of grid points                  ...    57583
Total number of batches                      ...      462
Average number of points per batch           ...      124
Average number of grid points per atom       ...     2504
UseSFitting                                  ... on
Initializing property integral containers    ... done (  0.0 sec)

SHARK setup successfully completed in   3.3 seconds

Maximum memory used throughout the entire STARTUP-calculation: 60.0 MB
-------------------------------------------------------------------------------
                                 ORCA GUESS
                   Start orbitals & Density for SCF / CASSCF
-------------------------------------------------------------------------------

------------
SCF SETTINGS
------------
Hamiltonian:
 Density Functional     Method          .... DFT(GTOs)
 Exchange Functional    Exchange        .... WB97X-V
 Correlation Functional Correlation     .... WB97X-V
 Gradients option       PostSCFGGA      .... off
 Hybrid DFT is turned on
   Fraction HF Exchange ScalHFX         ....  0.167000
   Scaling of DF-GGA-X  ScalDFX         ....  0.000000
   Scaling of DF-GGA-C  ScalDFC         ....  1.000000
   Scaling of DF-LDA-C  ScalLDAC        ....  1.000000
   Perturbative correction              ....  0.000000
 Long-range corrected/Screened/Range-Separated Hybrid DFT is turned on
   Amount of maximum screened exact exchange              ....  0.833000
   Range separation parameter mu (erf(mu*r12)/r12)        ....  0.300000
   NL short-range parameter             ....  6.000000
   NL long-range parameter              ....  0.010000
 RI-approximation to the Coulomb term is turned on
   Number of AuxJ basis functions       .... 595
   RIJ-COSX (HFX calculated with COS-X)).... on


General Settings:
 Integral files         IntName         .... sp_gas
 Hartree-Fock type      HFTyp           .... RHF
 Total Charge           Charge          ....    0
 Multiplicity           Mult            ....    1
 Number of Electrons    NEL             ....   70
 Basis Dimension        Dim             ....  363
 Nuclear Repulsion      ENuc            ....    471.4169571412 Eh

Convergence Acceleration:
 AO-DIIS                CNVDIIS         .... on
   Start iteration      DIISMaxIt       ....    12
   Startup error        DIISStart       ....  0.200000
   # of expansion vecs  DIISMaxEq       ....     5
   Bias factor          DIISBfac        ....   1.050
   Max. coefficient     DIISMaxC        ....  10.000
 MO-DIIS                CNVKDIIS        .... off
 Trust-Rad. Augm. Hess. CNVTRAH         .... auto
   Auto Start mean grad. ratio tolernc. ....  1.125000
   Auto Start start iteration           ....     1
   Auto Start num. interpolation iter.  ....    10
   Max. Number of Micro iterations      ....    24
   Max. Number of Macro iterations      .... Maxiter - #DIIS iter
   Number of Davidson start vectors     ....     2
   Converg. threshold    (grad. norm)   ....   1.000e-04
   Grad. Scal. Fac. for Micro threshold ....   0.100
   Minimum threshold for Micro iter.    ....   1.000e-02
   NR start threshold (gradient norm)   ....   1.000e-04
   Initial trust radius                 ....   0.400
   Minimum AH scaling param. (alpha)    ....   1.000
   Maximum AH scaling param. (alpha)    .... 1000.000
   Quad. conv. algorithm                .... NR
   White noise on init. David. guess    .... on
   Maximum white noise                  ....   0.010
   Pseudo random numbers                .... off
   Inactive MOs                         .... canonical
   Orbital update algorithm             .... Taylor
   Preconditioner                       .... Diag
   Full preconditioner red. dimension   ....   250
 SOSCF                  CNVSOSCF        .... on
   Start iteration      SOSCFMaxIt      ....   150
   Startup grad/error   SOSCFStart      ....  0.003300
   Hessian update       SOSCFHessUp     .... L-BFGS
 Level Shifting         CNVShift        .... on
   Level shift para.    LevelShift      ....    0.2500
   Turn off err/grad.   ShiftErr        ....    0.0010
 Zerner damping         CNVZerner       .... off
 Static damping         CNVDamp         .... on
   Fraction old density DampFac         ....    0.7000
   Max. Damping (<1)    DampMax         ....    0.9800
   Min. Damping (>=0)   DampMin         ....    0.0000
   Turn off err/grad.   DampErr         ....    0.1000

SCF Procedure:
 Maximum # iterations   MaxIter         ....   125
 SCF integral mode      SCFMode         .... Direct
   Integral package                     .... SHARK and LIBINT hybrid scheme
 Reset frequency        DirectResetFreq ....    20
 Integral Threshold     Thresh          ....  3.000e-11 Eh
 Primitive CutOff       TCut            ....  1.000e-12 Eh

Convergence Tolerance:
 Convergence Check Mode ConvCheckMode   .... Total+1el-Energy
 Convergence forced     ConvForced      .... 0
 Energy Change          TolE            ....  1.000e-07 Eh
 1-El. energy change                    ....  1.000e-04 Eh
 Orbital Gradient       TolG            ....  1.000e-04
 Orbital Rotation angle TolX            ....  1.000e-04
 DIIS Error             TolErr          ....  1.000e-07

---------------------
INITIAL GUESS: MOREAD
---------------------
Guess MOs are being read from file: sp_gas.ges
Input Geometry matches current geometry (good)
Atom 0: N(Shells)= 11 and 9 - projection required
Input basis set needs projection
NBasis(read)= 246
NBasis(calc)= 363
Basis set overlap was calculated
Using GuessMode=FMatrix for the initial guess
C*T matrix was formed
Effective Fockian was calculated
Effective Fockian was diagonalized
Initial density was built
                      ------------------
                      INITIAL GUESS DONE (   0.1 sec)
                      ------------------
             **** ENERGY FILE WAS UPDATED (sp_gas.en.tmp) ****
Finished Guess after   0.5 sec
Maximum memory used throughout the entire GUESS-calculation: 36.9 MB

-------------------------------------------------------------------------------------------
                                      ORCA LEAN-SCF
                              memory conserving SCF solver
-------------------------------------------------------------------------------------------

----------------------------------------D-I-I-S--------------------------------------------
Iteration    Energy (Eh)           Delta-E    RMSDP     MaxDP     DIISErr   Damp  Time(sec)
-------------------------------------------------------------------------------------------
               ***  Starting incremental Fock matrix formation  ***
    1    -388.7970142494997390     0.00e+00  8.88e-04  2.63e-02  4.79e-02  0.700  26.5
    2    -388.8035971520781686    -6.58e-03  7.74e-04  2.47e-02  3.43e-02  0.700  12.9
                               ***Turning on AO-DIIS***
    3    -388.8084594316924267    -4.86e-03  6.19e-04  1.88e-02  2.43e-02  0.700  12.9
    4    -388.8119739263745487    -3.51e-03  1.56e-03  4.66e-02  1.59e-02  0.000  12.6
                              *** Initializing SOSCF ***
---------------------------------------S-O-S-C-F--------------------------------------
Iteration    Energy (Eh)           Delta-E    RMSDP     MaxDP     MaxGrad    Time(sec)
--------------------------------------------------------------------------------------
    5    -388.8211340124217941    -9.16e-03  8.44e-05  3.29e-03  2.13e-03    13.5
               *** Restarting incremental Fock matrix formation ***
    6    -388.8211968524761915    -6.28e-05  6.92e-05  6.34e-03  6.50e-04    26.3
    7    -388.8212085427226157    -1.17e-05  3.61e-05  2.64e-03  8.14e-04    20.0
    8    -388.8212140594234825    -5.52e-06  1.25e-05  6.20e-04  1.82e-04    19.5
    9    -388.8212145685125734    -5.09e-07  2.43e-06  1.05e-04  1.61e-05    18.2
                  *** Gradient check signals convergence ***

               *****************************************************
               *                     SUCCESS                       *
               *           SCF CONVERGED AFTER   9 CYCLES          *
               *****************************************************


------------------
NL GRID GENERATION
------------------

General Integration Accuracy     IntAcc      ... 4.004
Radial Grid Type                 RadialGrid  ... OptM3 with GC (2021)
Angular Grid (max. ang.)         AngularGrid ... 2 (Lebedev-110)
Angular grid pruning method      GridPruning ... 4 (adaptive)
Weight generation scheme         WeightScheme... mBecke (2022)
Basis function cutoff            BFCut       ... 1.0000e-10
Integration weight cutoff        WCut        ... 1.0000e-14
Partially contracted basis set               ... off
Rotationally invariant grid construction     ... off
Angular grids for H and He will be reduced by one unit

Total number of grid points                  ...    29592
Total number of batches                      ...      474
Average number of points per batch           ...       62
Average number of grid points per atom       ...     1287
Final grid set up in    0.3 sec

-------------------------------------------------------------------------------
                    post-SCF DFT-NL dispersion correction                      
-------------------------------------------------------------------------------

SCF Energy:     -388.821214569 
NL    Energy:      0.262177243 
SC+NL Energy:   -388.559037325 
NL done in  :              3.3 sec
-------------------------------------------------------------------------------
Recomputing exchange energy using gridx3       ... done (   48.008 sec)
Old exchange energy                            :    -18.253613740 Eh
New exchange energy                            :    -18.253607136 Eh
Exchange energy change after final integration :      0.000006604 Eh
Total energy after final integration           :   -388.559030721 Eh
             **** ENERGY FILE WAS UPDATED (sp_gas.en.tmp) ****

----------------
TOTAL SCF ENERGY
----------------

Total Energy       :       -388.55903072132350 Eh          -10573.22876 eV

Components:
Nuclear Repulsion  :        471.41695714124603 Eh           12827.90756 eV
Electronic Energy  :       -860.23817170975860 Eh          -23408.27071 eV
One Electron Energy:      -1459.32987342570686 Eh          -39710.38469 eV
Two Electron Energy:        599.09170171594826 Eh           16302.11399 eV

Virial components:
Potential Energy   :       -775.45751989188443 Eh          -21101.27188 eV
Kinetic Energy     :        386.89848917056094 Eh           10528.04313 eV
Virial Ratio       :          2.00429193082227

DFT components:
N(Alpha)           :       35.000008485811 electrons
N(Beta)            :       35.000008485811 electrons
N(Total)           :       70.000016971622 electrons
E(X)               :      -36.426308050203 Eh       
E(C)               :       -2.848701443855 Eh       
NL Energy, E(C,NL) :        0.262177243182 Eh       
E(XC)              :      -39.012832250876 Eh       

---------------
SCF CONVERGENCE
---------------

  Last Energy change         ...    5.0909e-07  Tolerance :   1.0000e-07
  Last MAX-Density change    ...    1.0530e-04  Tolerance :   1.0000e-05
  Last RMS-Density change    ...    2.4334e-06  Tolerance :   1.0000e-06
  Last DIIS Error            ...    2.1299e-03  Tolerance :   1.0000e-07
  Last Orbital Gradient      ...    1.6104e-05  Tolerance :   1.0000e-04
  Last Orbital Rotation      ...    3.7222e-05  Tolerance :   1.0000e-04


----------------
ORBITAL ENERGIES
----------------

  NO   OCC          E(Eh)            E(eV) 
   0   2.0000     -21.655064      -589.2643 
   1   2.0000     -12.133324      -330.1645 
   2   2.0000     -12.056962      -328.0866 
   3   2.0000     -12.052740      -327.9717 
   4   2.0000     -12.051365      -327.9343 
   5   2.0000     -12.045818      -327.7834 
   6   2.0000     -12.042321      -327.6882 
   7   2.0000     -12.041361      -327.6621 
   8   2.0000     -12.040226      -327.6312 
   9   2.0000      -1.697423       -46.1892 
  10   2.0000      -1.352754       -36.8103 
  11   2.0000      -1.287881       -35.0450 
  12   2.0000      -1.253964       -34.1221 
  13   2.0000      -1.240664       -33.7602 
  14   2.0000      -1.132359       -30.8131 
  15   2.0000      -1.102109       -29.9899 
  16   2.0000      -1.071806       -29.1653 
  17   2.0000      -1.024501       -27.8781 
  18   2.0000      -0.968856       -26.3639 
  19   2.0000      -0.956440       -26.0261 
  20   2.0000      -0.910079       -24.7645 
  21   2.0000      -0.900274       -24.4977 
  22   2.0000      -0.877204       -23.8699 
  23   2.0000      -0.875128       -23.8134 
  24   2.0000      -0.860185       -23.4068 
  25   2.0000      -0.844026       -22.9671 
  26   2.0000      -0.834089       -22.6967 
  27   2.0000      -0.829534       -22.5728 
  28   2.0000      -0.824924       -22.4473 
  29   2.0000      -0.805076       -21.9072 
  30   2.0000      -0.784979       -21.3604 
  31   2.0000      -0.780193       -21.2301 
  32   2.0000      -0.758512       -20.6401 
  33   2.0000      -0.754278       -20.5250 
  34   2.0000      -0.740600       -20.1527 
  35   0.0000      -0.308897        -8.4055 
  36   0.0000      -0.061432        -1.6717 
  37   0.0000      -0.047797        -1.3006 
  38   0.0000      -0.035687        -0.9711 
  39   0.0000      -0.027011        -0.7350 
  40   0.0000      -0.021674        -0.5898 
  41   0.0000      -0.014065        -0.3827 
  42   0.0000      -0.009822        -0.2673 
  43   0.0000       0.006781         0.1845 
  44   0.0000       0.012104         0.3294 
  45   0.0000       0.020211         0.5500 
*Only the first 10 virtual orbitals were printed.

                    ********************************
                    * MULLIKEN POPULATION ANALYSIS *
                    ********************************

-----------------------
MULLIKEN ATOMIC CHARGES
-----------------------
   0 C :   -0.367608
   1 C :    0.219314
   2 O :   -0.322408
   3 C :   -0.035745
   4 C :   -0.241805
   5 C :   -0.173333
   6 C :   -0.184737
   7 C :   -0.168413
   8 C :   -0.214948
   9 H :    0.123040
  10 H :    0.139147
  11 H :    0.132105
  12 H :    0.079848
  13 H :    0.117936
  14 H :    0.098233
  15 H :    0.103900
  16 H :    0.090024
  17 H :    0.091497
  18 H :    0.103289
  19 H :    0.104025
  20 H :    0.086428
  21 H :    0.117701
  22 H :    0.102508
Sum of atomic charges:   -0.0000000

--------------------------------
MULLIKEN REDUCED ORBITAL CHARGES
--------------------------------
  0 C s       :     3.239198  s :     3.239198
      pz      :     1.045071  p :     3.079091
      px      :     1.022995
      py      :     1.011024
      dz2     :     0.009947  d :     0.046222
      dxz     :     0.007877
      dyz     :     0.007445
      dx2y2   :     0.012567
      dxy     :     0.008385
      f0      :     0.000282  f :     0.003097
      f+1     :     0.000238
      f-1     :     0.000637
      f+2     :     0.000731
      f-2     :     0.000388
      f+3     :     0.000563
      f-3     :     0.000258

  1 C s       :     3.153122  s :     3.153122
      pz      :     0.740189  p :     2.398971
      px      :     0.926088
      py      :     0.732694
      dz2     :     0.046943  d :     0.211155
      dxz     :     0.056504
      dyz     :     0.025620
      dx2y2   :     0.040851
      dxy     :     0.041238
      f0      :     0.002259  f :     0.017438
      f+1     :     0.002516
      f-1     :     0.002436
      f+2     :     0.003487
      f-2     :     0.002710
      f+3     :     0.001448
      f-3     :     0.002583

  2 O s       :     3.800974  s :     3.800974
      pz      :     1.343046  p :     4.487804
      px      :     1.767030
      py      :     1.377727
      dz2     :     0.009848  d :     0.031835
      dxz     :     0.005420
      dyz     :     0.007733
      dx2y2   :     0.004502
      dxy     :     0.004332
      f0      :     0.000337  f :     0.001795
      f+1     :     0.000207
      f-1     :     0.000326
      f+2     :     0.000308
      f-2     :     0.000314
      f+3     :     0.000159
      f-3     :     0.000145

  3 C s       :     3.080394  s :     3.080394
      pz      :     0.934788  p :     2.826212
      px      :     0.929786
      py      :     0.961638
      dz2     :     0.029647  d :     0.121691
      dxz     :     0.011848
      dyz     :     0.023342
      dx2y2   :     0.034965
      dxy     :     0.021889
      f0      :     0.001015  f :     0.007448
      f+1     :     0.000658
      f-1     :     0.001039
      f+2     :     0.000814
      f-2     :     0.000863
      f+3     :     0.001288
      f-3     :     0.001771

  4 C s       :     3.204831  s :     3.204831
      pz      :     0.997301  p :     2.939092
      px      :     0.956640
      py      :     0.985151
      dz2     :     0.026368  d :     0.092420
      dxz     :     0.015307
      dyz     :     0.007922
      dx2y2   :     0.015586
      dxy     :     0.027237
      f0      :     0.000787  f :     0.005462
      f+1     :     0.000589
      f-1     :     0.000837
      f+2     :     0.000761
      f-2     :     0.000390
      f+3     :     0.001018
      f-3     :     0.001080

  5 C s       :     3.171070  s :     3.171070
      pz      :     1.017645  p :     2.901972
      px      :     0.911127
      py      :     0.973199
      dz2     :     0.016460  d :     0.094792
      dxz     :     0.013774
      dyz     :     0.017389
      dx2y2   :     0.022097
      dxy     :     0.025072
      f0      :     0.000870  f :     0.005499
      f+1     :     0.000496
      f-1     :     0.000520
      f+2     :     0.000509
      f-2     :     0.000567
      f+3     :     0.001037
      f-3     :     0.001501

  6 C s       :     3.176605  s :     3.176605
      pz      :     0.992104  p :     2.908318
      px      :     1.002115
      py      :     0.914099
      dz2     :     0.024368  d :     0.094351
      dxz     :     0.005751
      dyz     :     0.018687
      dx2y2   :     0.029290
      dxy     :     0.016255
      f0      :     0.000886  f :     0.005462
      f+1     :     0.000243
      f-1     :     0.000961
      f+2     :     0.000469
      f-2     :     0.000717
      f+3     :     0.000932
      f-3     :     0.001254

  7 C s       :     3.164224  s :     3.164224
      pz      :     0.980313  p :     2.904905
      px      :     0.928106
      py      :     0.996486
      dz2     :     0.027383  d :     0.093814
      dxz     :     0.013723
      dyz     :     0.007394
      dx2y2   :     0.018021
      dxy     :     0.027292
      f0      :     0.000808  f :     0.005470
      f+1     :     0.000595
      f-1     :     0.000794
      f+2     :     0.000751
      f-2     :     0.000387
      f+3     :     0.001036
      f-3     :     0.001099

  8 C s       :     3.184016  s :     3.184016
      pz      :     1.052850  p :     2.933664
      px      :     0.938849
      py      :     0.941965
      dz2     :     0.016530  d :     0.091741
      dxz     :     0.014689
      dyz     :     0.016126
      dx2y2   :     0.019356
      dxy     :     0.025039
      f0      :     0.000914  f :     0.005527
      f+1     :     0.000519
      f-1     :     0.000469
      f+2     :     0.000535
      f-2     :     0.000582
      f+3     :     0.001032
      f-3     :     0.001475

  9 H s       :     0.855637  s :     0.855637
      pz      :     0.004641  p :     0.021323
      px      :     0.004992
      py      :     0.011690

 10 H s       :     0.839559  s :     0.839559
      pz      :     0.005748  p :     0.021295
      px      :     0.011655
      py      :     0.003892

 11 H s       :     0.846406  s :     0.846406
      pz      :     0.011517  p :     0.021489
      px      :     0.004343
      py      :     0.005629

 12 H s       :     0.898527  s :     0.898527
      pz      :     0.012594  p :     0.021625
      px      :     0.004210
      py      :     0.004821

 13 H s       :     0.861042  s :     0.861042
      pz      :     0.012576  p :     0.021022
      px      :     0.004123
      py      :     0.004324

 14 H s       :     0.880471  s :     0.880471
      pz      :     0.004177  p :     0.021296
      px      :     0.006535
      py      :     0.010584

 15 H s       :     0.874991  s :     0.874991
      pz      :     0.006520  p :     0.021108
      px      :     0.005551
      py      :     0.009037

 16 H s       :     0.889127  s :     0.889127
      pz      :     0.011716  p :     0.020849
      px      :     0.004094
      py      :     0.005040

 17 H s       :     0.887628  s :     0.887628
      pz      :     0.012256  p :     0.020874
      px      :     0.004068
      py      :     0.004551

 18 H s       :     0.875606  s :     0.875606
      pz      :     0.004587  p :     0.021105
      px      :     0.012208
      py      :     0.004310

 19 H s       :     0.874848  s :     0.874848
      pz      :     0.004174  p :     0.021127
      px      :     0.006442
      py      :     0.010511

 20 H s       :     0.892733  s :     0.892733
      pz      :     0.012373  p :     0.020838
      px      :     0.004165
      py      :     0.004300

 21 H s       :     0.860833  s :     0.860833
      pz      :     0.012449  p :     0.021466
      px      :     0.004235
      py      :     0.004782

 22 H s       :     0.876318  s :     0.876318
      pz      :     0.006234  p :     0.021174
      px      :     0.005666
      py      :     0.009274


------------------------
MULLIKEN OVERLAP CHARGES
------------------------
B(  0-C ,  1-C ) :   0.7255 B(  0-C ,  2-O ) :  -0.1888 B(  0-C ,  3-C ) :  -0.3293 
B(  0-C ,  9-H ) :   0.7610 B(  0-C , 10-H ) :   0.8164 B(  0-C , 11-H ) :   0.7619 
B(  1-C ,  2-O ) :   1.4375 B(  1-C ,  3-C ) :   0.2023 B(  1-C ,  8-C ) :  -0.0590 
B(  1-C ,  9-H ) :  -0.0886 B(  1-C , 10-H ) :  -0.0873 B(  1-C , 11-H ) :  -0.0520 
B(  2-O ,  3-C ) :  -0.2724 B(  3-C ,  4-C ) :   0.5429 B(  3-C ,  7-C ) :  -0.0555 
B(  3-C ,  8-C ) :   0.5850 B(  3-C ,  9-H ) :   0.0559 B(  3-C , 12-H ) :   0.7839 
B(  3-C , 13-H ) :  -0.1040 B(  3-C , 14-H ) :  -0.0708 B(  3-C , 21-H ) :  -0.0857 
B(  3-C , 22-H ) :  -0.0842 B(  4-C ,  5-C ) :   0.6401 B(  4-C ,  6-C ) :  -0.0586 
B(  4-C , 12-H ) :  -0.0886 B(  4-C , 13-H ) :   0.8406 B(  4-C , 14-H ) :   0.8095 
B(  4-C , 15-H ) :  -0.0831 B(  4-C , 16-H ) :  -0.0827 B(  5-C ,  6-C ) :   0.6789 
B(  5-C ,  7-C ) :  -0.0700 B(  5-C , 13-H ) :  -0.0761 B(  5-C , 14-H ) :  -0.0666 
B(  5-C , 15-H ) :   0.8431 B(  5-C , 16-H ) :   0.8347 B(  5-C , 17-H ) :  -0.0856 
B(  5-C , 18-H ) :  -0.0754 B(  6-C ,  7-C ) :   0.6759 B(  6-C ,  8-C ) :  -0.0673 
B(  6-C , 15-H ) :  -0.0698 B(  6-C , 16-H ) :  -0.0859 B(  6-C , 17-H ) :   0.8304 
B(  6-C , 18-H ) :   0.8374 B(  6-C , 19-H ) :  -0.0666 B(  6-C , 20-H ) :  -0.0895 
B(  7-C ,  8-C ) :   0.6398 B(  7-C , 17-H ) :  -0.0842 B(  7-C , 18-H ) :  -0.0738 
B(  7-C , 19-H ) :   0.8474 B(  7-C , 20-H ) :   0.8241 B(  7-C , 21-H ) :  -0.0778 
B(  7-C , 22-H ) :  -0.0779 B(  8-C , 12-H ) :  -0.0972 B(  8-C , 19-H ) :  -0.0898 
B(  8-C , 20-H ) :  -0.0726 B(  8-C , 21-H ) :   0.8366 B(  8-C , 22-H ) :   0.8442 



                     *******************************
                     * LOEWDIN POPULATION ANALYSIS *
                     *******************************

----------------------
LOEWDIN ATOMIC CHARGES
----------------------
   0 C :   -0.258953
   1 C :   -0.316179
   2 O :    0.107358
   3 C :   -0.225030
   4 C :   -0.219242
   5 C :   -0.257467
   6 C :   -0.259189
   7 C :   -0.257901
   8 C :   -0.224777
   9 H :    0.129965
  10 H :    0.130115
  11 H :    0.138848
  12 H :    0.157083
  13 H :    0.143590
  14 H :    0.132561
  15 H :    0.132869
  16 H :    0.133597
  17 H :    0.135149
  18 H :    0.131481
  19 H :    0.132537
  20 H :    0.132445
  21 H :    0.144599
  22 H :    0.136540

-------------------------------
LOEWDIN REDUCED ORBITAL CHARGES
-------------------------------
  0 C s       :     2.826554  s :     2.826554
      pz      :     1.066096  p :     3.177692
      px      :     1.054846
      py      :     1.056751
      dz2     :     0.050442  d :     0.231039
      dxz     :     0.040653
      dyz     :     0.037099
      dx2y2   :     0.062303
      dxy     :     0.040541
      f0      :     0.002734  f :     0.023669
      f+1     :     0.002047
      f-1     :     0.005037
      f+2     :     0.003942
      f-2     :     0.003469
      f+3     :     0.004012
      f-3     :     0.002427

  1 C s       :     2.767480  s :     2.767480
      pz      :     0.850561  p :     2.673937
      px      :     1.008903
      py      :     0.814474
      dz2     :     0.146116  d :     0.766628
      dxz     :     0.195394
      dyz     :     0.124961
      dx2y2   :     0.145571
      dxy     :     0.154586
      f0      :     0.013172  f :     0.108135
      f+1     :     0.016160
      f-1     :     0.015452
      f+2     :     0.020678
      f-2     :     0.016557
      f+3     :     0.009663
      f-3     :     0.016454

  2 O s       :     3.405477  s :     3.405477
      pz      :     1.391654  p :     4.414858
      px      :     1.643998
      py      :     1.379206
      dz2     :     0.012642  d :     0.066694
      dxz     :     0.014816
      dyz     :     0.020528
      dx2y2   :     0.008823
      dxy     :     0.009886
      f0      :     0.000531  f :     0.005613
      f+1     :     0.000601
      f-1     :     0.001261
      f+2     :     0.001181
      f-2     :     0.001304
      f+3     :     0.000319
      f-3     :     0.000415

  3 C s       :     2.724558  s :     2.724558
      pz      :     0.980843  p :     2.960875
      px      :     0.978550
      py      :     1.001482
      dz2     :     0.118601  d :     0.489197
      dxz     :     0.053804
      dyz     :     0.084025
      dx2y2   :     0.131786
      dxy     :     0.100982
      f0      :     0.005683  f :     0.050400
      f+1     :     0.004587
      f-1     :     0.006272
      f+2     :     0.007596
      f-2     :     0.007474
      f+3     :     0.007774
      f-3     :     0.011014

  4 C s       :     2.769526  s :     2.769526
      pz      :     1.020205  p :     3.020095
      px      :     1.005196
      py      :     0.994694
      dz2     :     0.107385  d :     0.391802
      dxz     :     0.058681
      dyz     :     0.039451
      dx2y2   :     0.077270
      dxy     :     0.109015
      f0      :     0.003988  f :     0.037819
      f+1     :     0.004431
      f-1     :     0.004967
      f+2     :     0.007028
      f-2     :     0.004562
      f+3     :     0.006262
      f-3     :     0.006580

  5 C s       :     2.771569  s :     2.771569
      pz      :     1.022898  p :     3.047513
      px      :     1.012272
      py      :     1.012343
      dz2     :     0.072118  d :     0.399830
      dxz     :     0.059229
      dyz     :     0.074270
      dx2y2   :     0.093264
      dxy     :     0.100950
      f0      :     0.005211  f :     0.038555
      f+1     :     0.003899
      f-1     :     0.002689
      f+2     :     0.005285
      f-2     :     0.005841
      f+3     :     0.006078
      f-3     :     0.009553

  6 C s       :     2.772008  s :     2.772008
      pz      :     1.023678  p :     3.050074
      px      :     1.007157
      py      :     1.019239
      dz2     :     0.101197  d :     0.398556
      dxz     :     0.029471
      dyz     :     0.077896
      dx2y2   :     0.114809
      dxy     :     0.075183
      f0      :     0.004820  f :     0.038550
      f+1     :     0.002388
      f-1     :     0.005958
      f+2     :     0.005203
      f-2     :     0.006549
      f+3     :     0.005648
      f-3     :     0.007984

  7 C s       :     2.771058  s :     2.771058
      pz      :     1.020262  p :     3.048526
      px      :     1.014238
      py      :     1.014026
      dz2     :     0.111884  d :     0.399719
      dxz     :     0.059628
      dyz     :     0.038992
      dx2y2   :     0.080253
      dxy     :     0.108962
      f0      :     0.004238  f :     0.038598
      f+1     :     0.004471
      f-1     :     0.004989
      f+2     :     0.007201
      f-2     :     0.004643
      f+3     :     0.006401
      f-3     :     0.006654

  8 C s       :     2.766003  s :     2.766003
      pz      :     1.032776  p :     3.030020
      px      :     1.003602
      py      :     0.993641
      dz2     :     0.073956  d :     0.390286
      dxz     :     0.058763
      dyz     :     0.066680
      dx2y2   :     0.087937
      dxy     :     0.102950
      f0      :     0.005168  f :     0.038469
      f+1     :     0.003950
      f-1     :     0.002494
      f+2     :     0.005335
      f-2     :     0.005900
      f+3     :     0.006258
      f-3     :     0.009364

  9 H s       :     0.809112  s :     0.809112
      pz      :     0.013964  p :     0.060923
      px      :     0.015722
      py      :     0.031238

 10 H s       :     0.808835  s :     0.808835
      pz      :     0.017629  p :     0.061050
      px      :     0.031397
      py      :     0.012024

 11 H s       :     0.800470  s :     0.800470
      pz      :     0.030515  p :     0.060682
      px      :     0.013008
      py      :     0.017160

 12 H s       :     0.786774  s :     0.786774
      pz      :     0.029947  p :     0.056144
      px      :     0.011988
      py      :     0.014208

 13 H s       :     0.798238  s :     0.798238
      pz      :     0.032340  p :     0.058172
      px      :     0.012349
      py      :     0.013483

 14 H s       :     0.809076  s :     0.809076
      pz      :     0.013322  p :     0.058362
      px      :     0.017773
      py      :     0.027267

 15 H s       :     0.809320  s :     0.809320
      pz      :     0.019387  p :     0.057811
      px      :     0.015502
      py      :     0.022922

 16 H s       :     0.809044  s :     0.809044
      pz      :     0.030919  p :     0.057359
      px      :     0.012428
      py      :     0.014012

 17 H s       :     0.807401  s :     0.807401
      pz      :     0.031353  p :     0.057450
      px      :     0.012405
      py      :     0.013692

 18 H s       :     0.810745  s :     0.810745
      pz      :     0.014453  p :     0.057774
      px      :     0.030451
      py      :     0.012870

 19 H s       :     0.809672  s :     0.809672
      pz      :     0.013216  p :     0.057791
      px      :     0.017463
      py      :     0.027112

 20 H s       :     0.810263  s :     0.810263
      pz      :     0.031208  p :     0.057292
      px      :     0.012547
      py      :     0.013537

 21 H s       :     0.796651  s :     0.796651
      pz      :     0.032873  p :     0.058750
      px      :     0.012495
      py      :     0.013382

 22 H s       :     0.805613  s :     0.805613
      pz      :     0.018814  p :     0.057847
      px      :     0.015727
      py      :     0.023306


---------------------------------
LOEWDIN BOND ORDERS (THRESH 0.050000)
---------------------------------
B(  0-C ,  1-C ) :   1.2554 B(  0-C ,  2-O ) :   0.1805 B(  0-C ,  3-C ) :   0.1445 
B(  0-C ,  9-H ) :   0.8849 B(  0-C , 10-H ) :   0.8973 B(  0-C , 11-H ) :   0.8762 
B(  1-C ,  2-O ) :   2.6036 B(  1-C ,  3-C ) :   1.1078 B(  1-C ,  4-C ) :   0.1580 
B(  1-C ,  8-C ) :   0.1378 B(  1-C ,  9-H ) :   0.0873 B(  1-C , 10-H ) :   0.0845 
B(  1-C , 11-H ) :   0.0965 B(  1-C , 12-H ) :   0.0779 B(  2-O ,  3-C ) :   0.1670 
B(  3-C ,  4-C ) :   1.1000 B(  3-C ,  5-C ) :   0.1355 B(  3-C ,  7-C ) :   0.1407 
B(  3-C ,  8-C ) :   1.1314 B(  3-C , 12-H ) :   0.7781 B(  3-C , 13-H ) :   0.0698 
B(  3-C , 14-H ) :   0.0710 B(  3-C , 21-H ) :   0.0734 B(  3-C , 22-H ) :   0.0754 
B(  4-C ,  5-C ) :   1.2028 B(  4-C ,  6-C ) :   0.1380 B(  4-C ,  8-C ) :   0.1290 
B(  4-C , 12-H ) :   0.0670 B(  4-C , 13-H ) :   0.8375 B(  4-C , 14-H ) :   0.8463 
B(  4-C , 15-H ) :   0.0770 B(  4-C , 16-H ) :   0.0741 B(  5-C ,  6-C ) :   1.2071 
B(  5-C ,  7-C ) :   0.1388 B(  5-C , 13-H ) :   0.0720 B(  5-C , 14-H ) :   0.0750 
B(  5-C , 15-H ) :   0.8503 B(  5-C , 16-H ) :   0.8440 B(  5-C , 17-H ) :   0.0736 
B(  5-C , 18-H ) :   0.0763 B(  6-C ,  7-C ) :   1.2068 B(  6-C ,  8-C ) :   0.1388 
B(  6-C , 15-H ) :   0.0752 B(  6-C , 16-H ) :   0.0729 B(  6-C , 17-H ) :   0.8439 
B(  6-C , 18-H ) :   0.8523 B(  6-C , 19-H ) :   0.0756 B(  6-C , 20-H ) :   0.0731 
B(  7-C ,  8-C ) :   1.2014 B(  7-C , 17-H ) :   0.0733 B(  7-C , 18-H ) :   0.0756 
B(  7-C , 19-H ) :   0.8511 B(  7-C , 20-H ) :   0.8443 B(  7-C , 21-H ) :   0.0728 
B(  7-C , 22-H ) :   0.0750 B(  8-C , 12-H ) :   0.0666 B(  8-C , 19-H ) :   0.0760 
B(  8-C , 20-H ) :   0.0735 B(  8-C , 21-H ) :   0.8326 B(  8-C , 22-H ) :   0.8446 


------------------------------------------
LOEWDIN REDUCED ORBITAL POPULATIONS PER MO
-------------------------------------------
THRESHOLD FOR PRINTING IS 0.1%%
                      0         1         2         3         4         5   
                 -21.65506 -12.13332 -12.05696 -12.05274 -12.05137 -12.04582
                   2.00000   2.00000   2.00000   2.00000   2.00000   2.00000
                  --------  --------  --------  --------  --------  --------
 0 C  s               0.0       0.0       0.2       0.0      99.3       0.0
 1 C  s               0.0      99.1       0.0       0.0       0.0       0.0
 2 O  s              99.7       0.0       0.0       0.0       0.0       0.0
 2 O  dyz             0.0       0.1       0.0       0.0       0.0       0.0
 3 C  s               0.0       0.0      97.4       1.6       0.2       0.0
 4 C  s               0.0       0.0       1.6      97.1       0.0       0.7
 5 C  s               0.0       0.0       0.0       0.7       0.0      96.6
 6 C  s               0.0       0.0       0.0       0.0       0.0       2.2
 8 C  s               0.0       0.0       0.1       0.0       0.0       0.0

                      6         7         8         9        10        11   
                 -12.04232 -12.04136 -12.04023  -1.69742  -1.35275  -1.28788
                   2.00000   2.00000   2.00000   2.00000   2.00000   2.00000
                  --------  --------  --------  --------  --------  --------
 0 C  s               0.0       0.0       0.0       0.5       0.9      10.4
 0 C  pz              0.0       0.0       0.0       0.7       0.0       0.2
 0 C  px              0.0       0.0       0.0       0.3       0.5       1.2
 0 C  py              0.0       0.0       0.0       0.7       0.1       0.4
 0 C  dxz             0.0       0.0       0.0       0.1       0.0       0.1
 0 C  dyz             0.0       0.0       0.0       0.3       0.0       0.0
 0 C  dxy             0.0       0.0       0.0       0.1       0.0       0.2
 1 C  s               0.0       0.0       0.0      13.5       2.8       8.3
 1 C  pz              0.0       0.0       0.0       9.0       0.9       4.0
 1 C  px              0.0       0.0       0.0       1.5       3.0       0.3
 1 C  py              0.0       0.0       0.0       5.9       0.5       3.0
 1 C  dz2             0.0       0.0       0.0       0.5       0.2       0.3
 1 C  dxz             0.0       0.0       0.0       0.7       0.0       0.1
 1 C  dyz             0.0       0.0       0.0       2.8       0.0       0.0
 1 C  dx2y2           0.0       0.0       0.0       0.3       0.5       0.5
 1 C  dxy             0.0       0.0       0.0       0.5       0.0       0.3
 1 C  f+1             0.0       0.0       0.0       0.1       0.0       0.0
 1 C  f-1             0.0       0.0       0.0       0.4       0.0       0.0
 1 C  f+2             0.0       0.0       0.0       0.1       0.0       0.0
 1 C  f-2             0.0       0.0       0.0       0.3       0.0       0.0
 2 O  s               0.0       0.0       0.0      52.5       0.7       2.2
 2 O  pz              0.0       0.0       0.0       2.6       0.3       1.3
 2 O  px              0.0       0.0       0.0       0.4       0.1       0.2
 2 O  py              0.0       0.0       0.0       1.7       0.1       0.8
 2 O  dyz             0.0       0.0       0.0       0.2       0.0       0.0
 3 C  s               0.0       0.0       0.1       0.5      14.8       6.6
 3 C  pz              0.0       0.0       0.0       0.4       0.6       0.0
 3 C  px              0.0       0.0       0.0       1.2       0.7       3.6
 3 C  py              0.0       0.0       0.0       0.1       0.0       0.1
 3 C  dz2             0.0       0.0       0.0       0.0       0.2       0.1
 3 C  dxz             0.0       0.0       0.0       0.3       0.1       0.0
 3 C  dx2y2           0.0       0.0       0.0       0.1       0.0       0.2
 3 C  dxy             0.0       0.0       0.1       0.1       0.0       0.0
 3 C  f+3             0.0       0.0       0.0       0.0       0.1       0.1
 4 C  s               0.0       0.0       0.0       0.0      10.7       0.1
 4 C  pz              0.0       0.0       0.0       0.0       1.0       0.1
 4 C  px              0.0       0.0       0.0       0.1       0.2       3.7
 4 C  py              0.0       0.0       0.0       0.1       1.5       0.6
 4 C  dz2             0.0       0.0       0.0       0.0       0.1       0.0
 4 C  dxz             0.0       0.0       0.0       0.0       0.0       0.2
 4 C  dyz             0.0       0.0       0.0       0.0       0.2       0.1
 4 C  dx2y2           0.0       0.0       0.0       0.0       0.0       0.2
 4 C  dxy             0.0       0.0       0.0       0.0       0.1       0.2
 5 C  s               1.1       1.0       0.0       0.0       7.7       5.1
 5 C  px              0.0       0.0       0.0       0.0       0.8       0.9
 5 C  py              0.0       0.0       0.0       0.0       1.5       1.2
 5 C  dz2             0.0       0.0       0.0       0.0       0.3       0.1
 5 C  dx2y2           0.0       0.0       0.0       0.0       0.0       0.2
 5 C  dxy             0.0       0.0       0.0       0.0       0.0       0.3
 6 C  s              56.3      36.3       4.6       0.0       6.4      10.8
 6 C  pz              0.0       0.0       0.0       0.0       0.3       0.3
 6 C  px              0.0       0.0       0.0       0.0       1.8       0.5
 6 C  dz2             0.0       0.0       0.0       0.0       0.1       0.0
 6 C  dx2y2           0.0       0.0       0.0       0.0       0.0       0.1
 7 C  s              39.1      36.5      23.8       0.0       6.8       5.7
 7 C  pz              0.0       0.0       0.0       0.0       0.5       0.5
 7 C  px              0.0       0.0       0.0       0.0       0.9       0.5
 7 C  py              0.0       0.0       0.0       0.0       0.8       1.0
 7 C  dz2             0.0       0.0       0.0       0.0       0.1       0.0
 7 C  dyz             0.0       0.0       0.0       0.0       0.1       0.2
 7 C  dx2y2           0.0       0.1       0.0       0.0       0.0       0.1
 7 C  dxy             0.0       0.0       0.0       0.0       0.0       0.1
 8 C  s               2.8      25.5      70.9       0.1       9.3       0.0
 8 C  px              0.0       0.0       0.0       0.3       0.1       3.5
 8 C  py              0.0       0.0       0.0       0.0       2.6       0.3
 8 C  dz2             0.0       0.0       0.0       0.0       0.3       0.0
 8 C  dx2y2           0.0       0.0       0.0       0.0       0.0       0.2
 8 C  dxy             0.0       0.0       0.0       0.0       0.1       0.5
 9 H  s               0.0       0.0       0.0       0.1       0.2       2.2
 9 H  py              0.0       0.0       0.0       0.0       0.0       0.2
10 H  s               0.0       0.0       0.0       0.1       0.1       1.9
10 H  px              0.0       0.0       0.0       0.0       0.0       0.2
11 H  s               0.0       0.0       0.0       0.1       0.2       2.2
11 H  pz              0.0       0.0       0.0       0.0       0.0       0.2
12 H  s               0.0       0.0       0.0       0.1       2.5       1.5
12 H  pz              0.0       0.0       0.0       0.0       0.2       0.2
13 H  s               0.0       0.0       0.0       0.0       1.6       0.0
13 H  pz              0.0       0.0       0.0       0.0       0.2       0.0
14 H  s               0.0       0.0       0.0       0.0       1.8       0.0
15 H  s               0.0       0.0       0.0       0.0       1.2       1.0
16 H  s               0.0       0.0       0.0       0.0       1.2       0.9
17 H  s               0.0       0.0       0.0       0.0       1.0       2.0
17 H  pz              0.0       0.0       0.0       0.0       0.1       0.2
18 H  s               0.0       0.0       0.0       0.0       1.0       2.0
18 H  px              0.0       0.0       0.0       0.0       0.1       0.2
19 H  s               0.0       0.0       0.0       0.0       1.1       1.1
20 H  s               0.0       0.0       0.0       0.0       1.1       1.0
20 H  pz              0.0       0.0       0.0       0.0       0.1       0.1
21 H  s               0.0       0.0       0.0       0.0       1.4       0.0
21 H  pz              0.0       0.0       0.0       0.0       0.1       0.0
22 H  s               0.0       0.0       0.0       0.0       1.5       0.0

                     12        13        14        15        16        17   
                  -1.25396  -1.24066  -1.13236  -1.10211  -1.07181  -1.02450
                   2.00000   2.00000   2.00000   2.00000   2.00000   2.00000
                  --------  --------  --------  --------  --------  --------
 0 C  s               0.1      20.6       5.0       0.1       1.7       0.2
 0 C  pz              0.0       0.1       0.2       0.0       1.1       0.0
 0 C  px              0.0       0.2       1.3       0.0       0.3       1.0
 0 C  py              0.0       0.2       0.3       0.0       0.9       0.1
 0 C  dxz             0.0       0.0       0.1       0.0       0.1       0.0
 0 C  dyz             0.0       0.0       0.0       0.0       0.2       0.0
 0 C  dxy             0.0       0.0       0.2       0.0       0.1       0.0
 1 C  s               0.0       2.4       3.4       0.0       4.2       0.3
 1 C  pz              0.0       2.4       0.1       0.1       2.0       1.7
 1 C  px              0.1       8.4       7.5       0.0       0.9       1.9
 1 C  py              0.3       2.8       0.2       0.6       1.1       0.4
 1 C  dxz             0.0       0.7       0.2       0.0       0.2       0.3
 1 C  dyz             0.0       0.1       0.3       0.0       0.9       0.1
 1 C  dx2y2           0.0       0.1       0.2       0.0       0.0       0.0
 1 C  dxy             0.1       0.7       0.1       0.5       0.0       0.0
 2 O  s               0.0       0.5       2.0       0.0      10.3       1.0
 2 O  pz              0.0       0.6       2.5       0.1      23.6       2.7
 2 O  px              0.0       0.2       2.8       0.0       2.9       0.0
 2 O  py              0.0       0.6       1.3       0.0      16.3       2.5
 2 O  dxz             0.0       0.0       0.1       0.0       0.1       0.0
 2 O  dyz             0.0       0.1       0.0       0.0       0.4       0.0
 3 C  s               0.2       4.8       3.1       0.0       2.5       0.8
 3 C  pz              0.4       0.4       0.3       0.6       0.6       3.9
 3 C  px              0.1       1.5       6.9       0.1       0.4       2.7
 3 C  py              7.3       0.0       0.0       9.6       0.1       0.3
 3 C  dz2             0.1       0.0       0.0       0.1       0.1       0.0
 3 C  dxz             0.1       0.0       0.4       0.0       0.1       0.1
 3 C  dyz             0.3       0.0       0.1       0.7       0.0       0.1
 3 C  dx2y2           0.0       0.6       0.6       0.0       0.2       0.7
 3 C  dxy             1.3       0.1       0.1       0.3       0.1       0.0
 4 C  s              10.6       3.3       4.1       6.3       0.2       2.0
 4 C  pz              0.0       0.1       0.3       0.3       0.4       3.2
 4 C  px              2.0       0.7       1.1       4.9       0.9       1.1
 4 C  py              0.8       0.4       1.2       0.0       1.4       0.2
 4 C  dz2             0.0       0.0       0.0       0.2       0.0       0.0
 4 C  dxz             0.1       0.0       0.2       0.2       0.1       0.0
 4 C  dyz             0.0       0.1       0.1       0.0       0.2       0.0
 4 C  dx2y2           0.6       0.2       0.0       0.2       0.1       0.3
 4 C  dxy             0.0       0.1       0.1       0.0       0.0       0.5
 5 C  s              12.5       0.7       0.3       7.3       0.9       3.6
 5 C  pz              0.2       0.0       0.0       0.1       0.0       2.4
 5 C  px              1.4       2.7       5.2       3.6       0.7       0.0
 5 C  py              0.2       0.7       1.7       0.5       1.5       3.6
 5 C  dz2             0.0       0.0       0.0       0.2       0.1       0.3
 5 C  dxz             0.0       0.0       0.2       0.1       0.1       0.0
 5 C  dyz             0.0       0.0       0.0       0.0       0.0       0.1
 5 C  dx2y2           0.4       0.4       0.3       0.2       0.0       0.1
 5 C  dxy             0.0       0.3       0.4       0.0       0.1       0.2
 6 C  s               0.1       7.1       7.3       0.0       2.2       3.9
 6 C  pz              0.4       0.1       0.1       0.6       0.3       4.0
 6 C  px              0.0       0.1       1.2       0.1       0.6       1.3
 6 C  py              6.9       0.0       0.0       9.7       0.0       0.1
 6 C  dz2             0.0       0.0       0.1       0.1       0.0       0.1
 6 C  dxz             0.1       0.0       0.0       0.0       0.0       0.1
 6 C  dyz             0.2       0.0       0.0       0.6       0.0       0.1
 6 C  dx2y2           0.0       0.1       0.0       0.0       0.1       0.6
 6 C  dxy             1.3       0.0       0.0       0.4       0.0       0.0
 7 C  s              10.6       2.4       0.6       6.8       1.2       3.8
 7 C  pz              0.0       0.2       0.3       0.2       0.4       4.8
 7 C  px              2.1       1.7       4.0       4.3       0.3       0.2
 7 C  py              0.6       0.7       2.3       0.0       1.3       0.8
 7 C  dz2             0.0       0.0       0.0       0.2       0.0       0.0
 7 C  dxz             0.0       0.1       0.3       0.1       0.1       0.0
 7 C  dyz             0.0       0.1       0.2       0.0       0.1       0.2
 7 C  dx2y2           0.6       0.2       0.3       0.1       0.0       0.1
 7 C  dxy             0.0       0.1       0.0       0.0       0.0       0.3
 8 C  s              13.3       1.4       4.0       6.6       0.1       2.1
 8 C  pz              0.2       0.0       0.0       0.1       0.0       2.6
 8 C  px              1.2       1.8       1.6       4.2       1.5       1.2
 8 C  py              0.1       0.6       1.0       0.3       1.3       0.2
 8 C  dz2             0.0       0.0       0.1       0.1       0.0       0.1
 8 C  dxz             0.0       0.0       0.1       0.2       0.1       0.1
 8 C  dx2y2           0.4       0.3       0.0       0.2       0.2       0.4
 8 C  dxy             0.0       0.3       0.2       0.0       0.0       0.1
 9 H  s               0.0       4.7       1.8       0.0       1.4       0.0
 9 H  py              0.0       0.4       0.1       0.0       0.1       0.0
10 H  s               0.0       4.6       2.3       0.0       0.7       0.4
10 H  px              0.0       0.4       0.2       0.0       0.0       0.0
11 H  s               0.0       5.0       1.9       0.0       1.1       0.1
11 H  pz              0.0       0.5       0.1       0.0       0.0       0.0
12 H  s               0.0       0.8       1.1       0.0       1.9       2.3
12 H  pz              0.0       0.1       0.1       0.0       0.1       0.1
13 H  s               2.1       0.7       1.4       2.8       0.1       3.1
13 H  pz              0.2       0.1       0.1       0.3       0.0       0.2
14 H  s               2.3       0.7       1.6       3.4       0.2       0.9
14 H  px              0.1       0.0       0.1       0.0       0.0       0.0
14 H  py              0.1       0.1       0.1       0.3       0.0       0.1
15 H  s               2.7       0.2       0.1       3.5       0.6       2.4
15 H  pz              0.1       0.0       0.0       0.2       0.0       0.1
15 H  py              0.2       0.0       0.0       0.2       0.0       0.0
16 H  s               2.6       0.1       0.1       3.1       0.5       4.4
16 H  pz              0.2       0.0       0.0       0.3       0.0       0.3
17 H  s               0.0       1.5       2.5       0.0       1.2       4.6
17 H  pz              0.0       0.2       0.2       0.0       0.1       0.3
18 H  s               0.0       1.6       3.0       0.0       1.2       2.3
18 H  px              0.0       0.2       0.3       0.0       0.1       0.1
19 H  s               2.2       0.5       0.3       3.3       0.7       2.5
19 H  px              0.1       0.0       0.1       0.0       0.0       0.0
19 H  py              0.1       0.1       0.0       0.3       0.0       0.1
20 H  s               2.1       0.5       0.2       2.8       0.6       4.4
20 H  pz              0.2       0.1       0.0       0.3       0.0       0.3
21 H  s               2.6       0.3       1.3       2.7       0.1       2.7
21 H  pz              0.3       0.0       0.1       0.3       0.0       0.2
22 H  s               2.8       0.3       1.4       3.2       0.1       0.9
22 H  pz              0.1       0.0       0.0       0.1       0.0       0.1
22 H  py              0.2       0.0       0.0       0.2       0.0       0.0

                     18        19        20        21        22        23   
                  -0.96886  -0.95644  -0.91008  -0.90027  -0.87720  -0.87513
                   2.00000   2.00000   2.00000   2.00000   2.00000   2.00000
[...]
 0 C  f-1             0.0       0.2       0.0       0.0       0.0       0.0
 0 C  f+2             0.0       0.3       0.0       0.0       0.0       0.0
 0 C  f-2             0.0       0.2       0.0       0.0       0.0       0.0
 0 C  f+3             0.0       0.1       0.0       0.0       0.0       0.0
 0 C  f-3             0.0       0.1       0.0       0.0       0.0       0.0
 1 C  s               0.0       0.1       1.5       0.0       0.1       4.1
 1 C  pz              0.0       0.0       0.2       0.8       0.1       1.1
 1 C  px              0.0       1.0       0.1       0.1       1.8       0.2
 1 C  py              0.0       0.0       0.2       1.0       0.2       0.7
 1 C  dz2             0.1       0.2       0.4       2.2       0.2       0.0
 1 C  dxz             0.2       2.1       0.3       0.0       1.8       0.1
 1 C  dyz             0.0       0.5       0.0       0.1       0.4       0.4
 1 C  dx2y2           0.1       1.0       0.8       0.5       0.9       0.0
 1 C  dxy             0.5       1.3       0.5       0.3       0.9       0.1
 1 C  f0              0.0       0.5       0.1       0.3       0.0       0.0
 1 C  f+1             0.1       1.9       0.1       0.1       0.1       0.3
 1 C  f-1             0.0       1.3       0.0       0.1       0.2       0.6
 1 C  f+2             0.0       4.6       0.2       0.1       0.5       0.4
 1 C  f-2             0.0       3.4       0.1       0.0       0.4       0.8
 1 C  f+3             0.1       0.6       0.0       0.0       0.0       0.3
 1 C  f-3             0.0       3.2       0.2       0.0       0.2       0.0
 2 O  s               0.0       0.0       0.2       0.0       0.0       1.8
 2 O  pz              0.0       0.1       0.0       1.0       0.1       1.3
 2 O  px              0.0       1.5       0.1       0.0       3.1       0.3
 2 O  py              0.1       0.2       0.0       1.2       0.3       0.9
 2 O  dz2             3.1       0.4      10.8      48.0       2.7       6.9
 2 O  dxz            35.0      15.0       0.0       1.0      24.3      13.1
 2 O  dyz             0.9       7.3      22.2       1.6       8.0      40.1
 2 O  dx2y2           9.5       2.3      43.9      10.3      14.3       3.4
 2 O  dxy            44.5      10.9       7.8       6.7      12.1       8.6
 2 O  f0              0.9       1.4       1.0      11.7       0.7       0.3
 2 O  f+1             1.8       3.3       0.5       2.4       2.6       1.5
 2 O  f-1             0.0       3.0       1.8       3.9       2.6       5.4
 2 O  f+2             0.1      11.5       0.1       2.7       8.8       1.4
 2 O  f-2             0.0       8.3       0.7       0.6       6.3       4.2
 2 O  f+3             0.2       0.5       1.7       2.1       0.5       0.6
 2 O  f-3             1.1       6.4       0.1       0.5       4.5       0.0
 3 C  s               0.0       0.1       1.2       0.0       0.1       0.0
 3 C  pz              0.0       0.0       0.4       0.0       0.0       0.0
 3 C  px              0.0       0.5       0.5       0.0       0.1       0.1
 3 C  py              0.0       0.1       0.1       0.0       0.0       0.0
 3 C  dz2             0.0       0.2       0.0       0.0       0.0       0.0
 3 C  dxz             0.0       0.4       0.2       0.0       0.0       0.0
 3 C  dx2y2           0.0       0.1       0.0       0.0       0.1       0.0
 3 C  dxy             0.1       0.3       0.1       0.0       0.0       0.0
 3 C  f0              0.0       0.2       0.1       0.0       0.0       0.0
 3 C  f+1             0.1       0.1       0.0       0.0       0.0       0.0
 3 C  f+2             0.0       0.3       0.1       0.0       0.0       0.0
 3 C  f-3             0.0       0.5       0.1       0.0       0.0       0.0
 4 C  s               0.2       0.0       0.0       0.0       0.0       0.0
10 H  s               0.0       0.1       0.0       0.0       0.0       0.0
12 H  s               0.0       0.1       0.0       0.0       0.0       0.0

                    354       355       356       357       358       359   
                  20.74169  20.84150  20.86946  20.90034  20.92488  21.01970
                   0.00000   0.00000   0.00000   0.00000   0.00000   0.00000
                  --------  --------  --------  --------  --------  --------
 0 C  s              93.9       0.4       0.3       1.4       0.0       0.4
 1 C  s               0.3       0.4       0.2       0.5       0.2       0.3
 1 C  px              0.1       0.0       0.0       0.0       0.0       0.0
 3 C  s               1.7       6.0       0.8       2.7      13.3       0.6
 4 C  s               1.5      32.5      23.4      12.1       0.5      24.1
 5 C  s               0.0      21.6      28.6      22.1       3.7      17.2
 6 C  s               0.0      21.3       0.1      30.3      40.4       0.1
 7 C  s               0.4       6.8      29.2      18.2      23.4      16.1
 8 C  s               0.5       9.3      16.2      11.1      17.1      40.1
 9 H  s               0.2       0.0       0.0       0.0       0.0       0.0
10 H  s               0.2       0.0       0.0       0.0       0.0       0.0
11 H  s               0.2       0.0       0.0       0.0       0.0       0.0
14 H  s               0.0       0.1       0.0       0.0       0.0       0.0
15 H  s               0.0       0.1       0.1       0.0       0.0       0.0
17 H  s               0.0       0.1       0.0       0.1       0.1       0.0
18 H  s               0.0       0.1       0.0       0.1       0.1       0.0
21 H  s               0.0       0.0       0.0       0.0       0.1       0.1

                    360       361       362   
                  21.12321  21.50809  41.56631
                   0.00000   0.00000   0.00000
                  --------  --------  --------
 0 C  s               1.4       0.5       0.0
 1 C  s               0.0      94.9       0.0
 1 C  pz              0.0       0.2       0.0
 1 C  py              0.0       0.2       0.0
 1 C  dyz             0.0       0.1       0.0
 2 O  s               0.0       1.1      99.8
 2 O  pz              0.0       0.4       0.0
 2 O  py              0.0       0.3       0.0
 3 C  s              73.5       0.1       0.0
 4 C  s               3.5       1.1       0.0
 5 C  s               5.5       0.0       0.0
 6 C  s               6.3       0.1       0.0
 7 C  s               4.4       0.0       0.0
 8 C  s               4.2       0.0       0.0
12 H  s               0.2       0.0       0.0


                      *****************************
                      * MAYER POPULATION ANALYSIS *
                      *****************************

  NA   - Mulliken gross atomic population
  ZA   - Total nuclear charge
  QA   - Mulliken gross atomic charge
  VA   - Mayer's total valence
  BVA  - Mayer's bonded valence
  FA   - Mayer's free valence

  ATOM       NA         ZA         QA         VA         BVA        FA
  0 C      6.3676     6.0000    -0.3676     3.8366     3.8366     0.0000
  1 C      5.7807     6.0000     0.2193     4.0438     4.0438     0.0000
  2 O      8.3224     8.0000    -0.3224     2.1607     2.1607     0.0000
  3 C      6.0357     6.0000    -0.0357     3.7274     3.7274     0.0000
  4 C      6.2418     6.0000    -0.2418     3.9747     3.9747    -0.0000
  5 C      6.1733     6.0000    -0.1733     3.9375     3.9375     0.0000
  6 C      6.1847     6.0000    -0.1847     3.9492     3.9492     0.0000
  7 C      6.1684     6.0000    -0.1684     3.9294     3.9294    -0.0000
  8 C      6.2149     6.0000    -0.2149     3.9805     3.9805    -0.0000
  9 H      0.8770     1.0000     0.1230     0.9720     0.9720    -0.0000
 10 H      0.8609     1.0000     0.1391     0.9920     0.9920    -0.0000
 11 H      0.8679     1.0000     0.1321     0.9737     0.9737     0.0000
 12 H      0.9202     1.0000     0.0798     0.9702     0.9702     0.0000
 13 H      0.8821     1.0000     0.1179     0.9824     0.9824    -0.0000
 14 H      0.9018     1.0000     0.0982     0.9741     0.9741    -0.0000
 15 H      0.8961     1.0000     0.1039     0.9725     0.9725    -0.0000
 16 H      0.9100     1.0000     0.0900     0.9774     0.9774     0.0000
 17 H      0.9085     1.0000     0.0915     0.9773     0.9773    -0.0000
 18 H      0.8967     1.0000     0.1033     0.9709     0.9709    -0.0000
 19 H      0.8960     1.0000     0.1040     0.9731     0.9731     0.0000
 20 H      0.9136     1.0000     0.0864     0.9762     0.9762     0.0000
 21 H      0.8823     1.0000     0.1177     0.9949     0.9949    -0.0000
 22 H      0.8975     1.0000     0.1025     0.9795     0.9795    -0.0000

  Mayer bond orders larger than 0.100000
B(  0-C ,  1-C ) :   0.9806 B(  0-C ,  9-H ) :   0.9593 B(  0-C , 10-H ) :   0.9843 
B(  0-C , 11-H ) :   0.9534 B(  1-C ,  2-O ) :   2.1342 B(  1-C ,  3-C ) :   0.8954 
B(  3-C ,  4-C ) :   0.9525 B(  3-C ,  8-C ) :   0.9739 B(  3-C , 12-H ) :   0.9555 
B(  4-C ,  5-C ) :   0.9872 B(  4-C , 13-H ) :   0.9748 B(  4-C , 14-H ) :   0.9655 
B(  5-C ,  6-C ) :   0.9919 B(  5-C , 15-H ) :   0.9767 B(  5-C , 16-H ) :   0.9752 
B(  6-C ,  7-C ) :   0.9880 B(  6-C , 17-H ) :   0.9732 B(  6-C , 18-H ) :   0.9763 
B(  7-C ,  8-C ) :   0.9835 B(  7-C , 19-H ) :   0.9775 B(  7-C , 20-H ) :   0.9730 
B(  8-C , 21-H ) :   0.9718 B(  8-C , 22-H ) :   0.9779 

-------
TIMINGS
-------

Total SCF time: 0 days 0 hours 3 min 34 sec 

Total time                  ....     214.793 sec
Sum of individual times     ....     210.874 sec  ( 98.2%)

SCF preparation             ....       0.306 sec  (  0.1%)
Fock matrix formation       ....     208.152 sec  ( 96.9%)
  Startup                   ....       0.090 sec  (  0.0% of F)
  Split-RI-J                ....       8.392 sec  (  4.0% of F)
  Chain of spheres X        ....     181.359 sec  ( 87.1% of F)
  XC integration            ....      20.915 sec  ( 10.0% of F)
    XC Preparation          ....       0.000 sec  (  0.0% of XC)
    Basis function eval.    ....       4.476 sec  ( 21.4% of XC)
    Density eval.           ....       4.347 sec  ( 20.8% of XC)
    XC-Functional eval.     ....       4.201 sec  ( 20.1% of XC)
    XC-Potential eval.      ....       6.662 sec  ( 31.9% of XC)
Diagonalization             ....       0.000 sec  (  0.0%)
Density matrix formation    ....       0.266 sec  (  0.1%)
Total Energy calculation    ....       0.100 sec  (  0.0%)
Population analysis         ....       0.240 sec  (  0.1%)
Orbital Transformation      ....       0.159 sec  (  0.1%)
Orbital Orthonormalization  ....       0.000 sec  (  0.0%)
DIIS solution               ....       1.025 sec  (  0.5%)
  MO trafo                  ....       0.000 sec  (  0.0 % of DIIS)
  Orb grad                  ....       0.000 sec  (  0.0 % of DIIS)
  Energy W gradient         ....       0.000 sec  (  0.0 % of DIIS)
  DIIS error                ....       0.020 sec  (  2.0 % of DIIS)
  DIIS work                 ....       0.910 sec  ( 88.8 % of DIIS)
  Form Q                    ....       0.000 sec  (  0.0 % of DIIS)
  Form QpQm                 ....       0.000 sec  (  0.0 % of DIIS)
  Exp/Cayley                ....       0.000 sec  (  0.0 % of DIIS)
  Orb update                ....       0.000 sec  (  0.0 % of DIIS)
  Wake-sleep                ....       0.021 sec  (  2.0 % of DIIS)
SOSCF solution              ....       0.361 sec  (  0.2%)
  MO trafo                  ....       0.126 sec  ( 35.0 % of SOSCF)
  Orb grad                  ....       0.004 sec  (  1.1 % of SOSCF)
  Rot update                ....       0.064 sec  ( 17.7 % of SOSCF)
  Step                      ....       0.167 sec  ( 46.2 % of SOSCF)
Grid generation             ....       0.265 sec  (  0.1%)
Finished LeanSCF after 214.9 sec

Maximum memory used throughout the entire LEANSCF-calculation: 54.2 MB
------------------   -----------------
gCP correction             0.015733527
------------------   -----------------

-------------------------   --------------------
FINAL SINGLE POINT ENERGY      -388.543297194823
-------------------------   --------------------


------------------------------------------------------------------------------
                              ORCA PROPERTY CALCULATIONS
------------------------------------------------------------------------------

GBWName                                 ... sp_gas.gbw
Number of atoms                         ...     23
Number of basis functions               ...    363
Max core memory                         ...   1024 MB

Electric properties:
Dipole moment                           ... YES
Quadrupole moment                       ...  NO
Static polarizability (Dipole/Dipole)   ...  NO
Static polarizability (Dipole/Quad.)    ...  NO
Static polarizability (Quad./Quad.)     ...  NO
Static polarizability (Velocity)        ...  NO

Atomic electric properties:
Dipole moment                           ...  NO
Quadrupole moment                       ...  NO
Static polarizability                   ...  NO

Choice of electric origin               ... Center of mass
Position of electric origin             ...    -0.015321    -0.025258     0.016298

General magnetic properties:
Magnetizability                         ...  NO

EPR properties:
g-Tensor (aka g-matrix)                 ...  NO
Zero-Field splitting spin-orbit         ...  NO
Zero-field splitting spin-spin          ...  NO
Hyperfine couplings                     ...  NO (   0 nuclei)
Quadrupole couplings                    ...  NO (   0 nuclei)
Contact density                         ...  NO (   0 nuclei)

NMR properties:
Chemical shifts                         ...  NO (   0 nuclei)
Spin-rotation constants                 ...  NO (   0 nuclei)
Spin-spin couplings                     ...  NO (   0 nuclei,    0 pairs)

Choice of magnetic origin               ... GIAO
Position of magnetic origin             ...     0.000000     0.000000     0.000000

Properties with geometric perturbations:
SCF Hessian                             ...  NO
IR spectrum                             ...  NO
VCD spectrum                            ...  NO
X-ray spectroscopy properties:
SCF XES/XAS/RIXS spectra                ...  NO


-------------
DIPOLE MOMENT
-------------

Method             : SCF
Type of density    : Electron Density
Multiplicity       :   1
Irrep              :   0
Energy             :  -388.5590307213234951 Eh
Relativity type    : 
Basis              : AO
                                X                 Y                 Z
Electronic contribution:     -5.214269621      -2.462843871      -2.224994360
Nuclear contribution   :      5.716923324       3.165022598       3.035778598
                        -----------------------------------------
Total Dipole Moment    :      0.502653703       0.702178727       0.810784238
                        -----------------------------------------
Magnitude (a.u.)       :      1.184519646
Magnitude (Debye)      :      3.010809666



--------------------
Rotational spectrum 
--------------------
 
Rotational constants in cm-1:             0.102941             0.035063             0.030402 
Rotational constants in MHz :          3086.087786          1051.174496           911.425543 

Dipole components along the rotational axes: 
x,y,z [a.u.] :    -0.502268     0.708555     0.805459 
x,y,z [Debye]:    -1.276663     1.801003     2.047314 

 

Dipole moment calculation done in   0.0 sec 

Maximum memory used throughout the entire PROP-calculation: 33.3 MB

--------------------------------
SUGGESTED CITATIONS FOR THIS RUN
--------------------------------

Below you find a list of papers that are relevant to this ORCA run
We neither can nor want to force you to cite these papers, but we appreciate if you do
You receive ORCA, which is the product of decades of hard work by many enthusiastic individuals, for free
The only thing we kindly ask in return is that you cite our papers,
We deeply appreciate it, if you show your appreciation for ORCA by not just citing the generic ORCA reference.

Please note that relegating all ORCA citations to the supporting information does *not* help us.
SI sections are not indexed - citations you put there will not count into any citation statistics
But we need these citations in order to attract the funding resources that allow us to do what we are doing

Therefore, if you are a happy ORCA user, please consider citing a few of the papers listed below in the main body of your paper

In addition to the list printed below, the program has created the file sp_gas.bibtex that contains the list in bibtex format
You can import this file easily into all common literature databanks and citation aid programs


List of essential papers. We consider these as the minimum necessary citations

  1. Neese,F.
     Software update: the ORCA program system, version 5.0
     WIRES Comput. Molec. Sci., 2022 12(1)e1606
     doi.org/10.1002/wcms.1606

List of papers to cite with high priority. The work reported in these papers was absolutely
necessary for this run to complete.
Our perspective: the developers of density functionals and basis sets usually get cited in chemistry papers
Good! But without the algorithms to do something with them, the functionals or basis sets would not do anything.
Hence, in our opinion, the algorithm design and method developments papers are equally worthy of getting cited

  1. Neese,F.
     An improvement of the resolution of the identity approximation for the formation of the Coulomb matrix
     J. Comp. Chem., 2003 24(14)1740-1747
     doi.org/10.1002/jcc.10318
  2. Neese,F.; Wennmohs,F.; Hansen,A.; Becker,U.
     Efficient, approximate and parallel Hartree-Fock and hybrid DFT calculations. A 'chain-of-spheres' algorithm for the Hartree-Fock exchange
     Chem. Phys., 2009 356(1-3)98-109
     doi.org/10.1016/j.chemphys.2008.10.036
  3. Helmich-Paris,B.; de Souza,B.; Neese,F.; Izsák,R.
     An improved chain of spheres for exchange algorithm
     J. Chem. Phys., 2021 155 104109
     doi.org/doi: 10.1063/5.0058766.
  4. Neese,F.
     The SHARK Integral Generation and Digestion System
     J. Comp. Chem., 2022  1-16
     doi.org/10.1002/jcc.26942

List of suggested additional citations. These are papers that are important in the 'surrounding' of 
of this run, or papers that preceded the highly important papers. If you like your results we are grateful for a citation.

  1. Izsak,R.; Neese,F.
     An overlap fitted chain of spheres exchange method
     J. Chem. Phys., 2011 135 144105
     doi.org/10.1063/1.3646921
  2. Izsak,R.; Hansen,A.; Neese,F.
     The resolution of identity and chain of spheres approximations for the LPNO-CCSD singles Fock term
     Molec. Phys., 2012 110 2413-2417
     doi.org/10.1080/00268976.2012.687466
  3. Neese,F.
     The ORCA program system
     WIRES Comput. Molec. Sci., 2012 2(1)73-78
     doi.org/10.1002/wcms.81
  4. Izsak,R.; Neese,F.; Klopper,W.
     Robust fitting techniques in the chain of spheres approximation to the Fock exchange: The role of the complementary space
     J. Chem. Phys., 2013 139 
     doi.org/10.1063/1.4819264
  5. Neese,F.
     Software update: the ORCA program system, version 4.0
     WIRES Comput. Molec. Sci., 2018 8(1)1-6
     doi.org/10.1002/wcms.1327
  6. Neese,F.; Wennmohs,F.; Becker,U.; Riplinger,C.
     The ORCA quantum chemistry program package
     J. Chem. Phys., 2020 152 Art. No. L224108
     doi.org/10.1063/5.0004608

List of optional additional citations

  1. Neese,F.
     Approximate second-order SCF convergence for spin unrestricted wavefunctions
     Chem. Phys. Lett., 2000 325(1-3)93-98
     doi.org/10.1016/s0009-2614(00)00662-x

Timings for individual modules:

Sum of individual times          ...      218.900 sec (=   3.648 min)
Startup calculation              ...        3.382 sec (=   0.056 min)   1.5 %
SCF iterations                   ...      215.401 sec (=   3.590 min)  98.4 %
Property calculations            ...        0.117 sec (=   0.002 min)   0.1 %
                             ****ORCA TERMINATED NORMALLY****
TOTAL RUN TIME: 0 days 0 hours 3 minutes 39 seconds 778 msec
