 Entering Gaussian System
 *********************************************
 Gaussian 98:
 frequency output generated by the xtb code
 *********************************************
                         Standard orientation:
 --------------------------------------------------------------------
  Center     Atomic     Atomic              Coordinates (Angstroms)
  Number     Number      Type              X           Y           Z
 --------------------------------------------------------------------
    1          6             0       -1.730737    1.226728    0.761200
    2          6             0       -1.483910    0.093519   -0.232150
    3          6             0       -2.694587   -0.843761   -0.231778
    4          6             0       -0.229518   -0.738510    0.073669
    5          6             0        1.165562   -0.089922   -0.068182
    6          6             0        1.246655    0.821695   -1.294276
    7          6             0        1.559158    0.695501    1.186410
    8          6             0        2.181306   -1.228712   -0.241618
    9          1             0       -1.675236    0.857574    1.782804
   10          1             0       -1.008446    2.028566    0.639551
   11          1             0       -2.721591    1.648552    0.603776
   12          1             0       -1.393012    0.520892   -1.235156
   13          1             0       -3.600205   -0.297800   -0.486115
   14          1             0       -2.565443   -1.645202   -0.955683
   15          1             0       -2.827992   -1.288699    0.752150
   16          1             0       -0.319744   -1.135448    1.088156
   17          1             0       -0.255168   -1.593902   -0.606958
   18          1             0        2.273157    1.149063   -1.445460
   19          1             0        0.626646    1.705266   -1.170136
   20          1             0        0.923377    0.291215   -2.187119
   21          1             0        1.519618    0.054057    2.064102
   22          1             0        0.903696    1.543211    1.352804
   23          1             0        2.575751    1.070700    1.085722
   24          1             0        3.194556   -0.834486   -0.275298
   25          1             0        1.997202   -1.772869   -1.165412
   26          1             0        2.114679   -1.928775    0.588332
 --------------------------------------------------------------------
     1 basis functions        1 primitive gaussians
     1 alpha electrons        1 beta electrons
 
 Harmonic frequencies (cm**-1), IR intensities (km*mol⁻¹),
 Raman scattering activities (A**4/amu), Raman depolarization ratios,
 reduced masses (AMU), force constants (mDyne/A) and normal coordinates:
                      1                      2                      3
                        a                      a                      a 
 Frequencies --    56.5158                99.9241               182.8821
 Red. masses --     8.1235                 6.9473                 4.0570
 Frc consts  --     0.0000                 0.0000                 0.0000
 IR Inten    --     0.0246                 0.0776                 0.2761
 Raman Activ --     0.0000                 0.0000                 0.0000
 Depolar     --     0.0000                 0.0000                 0.0000
 Atom AN      X      Y      Z        X      Y      Z        X      Y      Z
   1   6     0.10   0.22  -0.47    -0.25   0.02  -0.04    -0.22   0.02  -0.06
   2   6    -0.00  -0.12  -0.11     0.05   0.01   0.05    -0.09   0.02  -0.01
   3   6    -0.03  -0.09   0.30     0.08  -0.02  -0.30     0.07  -0.20   0.13
   4   6     0.00  -0.05   0.04     0.01   0.09   0.42    -0.01   0.16  -0.02
   5   6    -0.01  -0.01   0.05     0.03  -0.01   0.07     0.04   0.06  -0.02
   6   6    -0.08   0.21   0.21    -0.18  -0.02   0.04     0.20   0.12   0.04
   7   6     0.02  -0.24   0.19     0.34   0.00  -0.04     0.16  -0.02  -0.00
   8   6     0.01   0.05  -0.21    -0.07  -0.06  -0.15    -0.15  -0.11  -0.07
   9   1     0.01   0.15  -0.10    -0.25  -0.01  -0.01    -0.26  -0.03  -0.02
  10   1     0.05   0.03  -0.20    -0.00  -0.04   0.11     0.05  -0.07   0.12
  11   1     0.04   0.08  -0.18    -0.02   0.07  -0.16     0.01   0.12  -0.17
  12   1    -0.02  -0.13  -0.08     0.09   0.00   0.02    -0.05  -0.00  -0.01
  13   1    -0.01  -0.05   0.04     0.03  -0.01  -0.13    -0.03  -0.09   0.16
  14   1    -0.02  -0.10   0.17     0.07   0.02  -0.11     0.00   0.00  -0.03
  15   1     0.01   0.08   0.14    -0.04  -0.04  -0.11     0.14  -0.13   0.02
  16   1    -0.01   0.02   0.02     0.00   0.16   0.17     0.00   0.05  -0.00
  17   1     0.01  -0.04   0.04    -0.01  -0.06   0.23    -0.01   0.04   0.00
  18   1    -0.03   0.08   0.07    -0.05  -0.06  -0.07     0.05   0.10   0.11
  19   1    -0.04   0.05   0.11     0.00   0.02   0.06    -0.01  -0.01  -0.03
  20   1    -0.02   0.10   0.04    -0.15   0.01   0.04     0.17   0.03  -0.02
  21   1     0.09  -0.14   0.01     0.27  -0.03  -0.02    -0.29   0.08   0.05
  22   1    -0.04  -0.13   0.15     0.03  -0.07   0.10     0.27   0.21  -0.18
  23   1    -0.02   0.00   0.04     0.05   0.10  -0.13     0.17  -0.32   0.14
  24   1    -0.00   0.03  -0.04    -0.01  -0.04  -0.08    -0.03  -0.08  -0.14
  25   1     0.00   0.07  -0.10    -0.07   0.00  -0.05    -0.15  -0.09   0.03
  26   1     0.01  -0.04  -0.11     0.00  -0.03  -0.05    -0.00   0.03   0.03
                      4                      5                      6
                        a                      a                      a 
 Frequencies --   188.7779               221.6826               243.7526
 Red. masses --     5.2198                 2.1740                 2.8954
 Frc consts  --     0.0000                 0.0000                 0.0000
 IR Inten    --     0.1899                 0.0291                 0.1921
 Raman Activ --     0.0000                 0.0000                 0.0000
 Depolar     --     0.0000                 0.0000                 0.0000
 Atom AN      X      Y      Z        X      Y      Z        X      Y      Z
   1   6     0.26  -0.05  -0.03    -0.16  -0.07   0.08    -0.17  -0.00   0.05
   2   6     0.11  -0.10  -0.00    -0.03   0.01   0.02    -0.04   0.04   0.04
   3   6    -0.09   0.17  -0.17    -0.02  -0.02   0.01    -0.10   0.12   0.10
   4   6     0.01  -0.18   0.15     0.02   0.07  -0.00     0.00  -0.01  -0.11
   5   6    -0.06  -0.04   0.07     0.04   0.03  -0.03     0.04  -0.05  -0.06
   6   6    -0.33  -0.02   0.06     0.16   0.07   0.01     0.13  -0.07  -0.07
   7   6    -0.03   0.01   0.03     0.08   0.02  -0.04    -0.04  -0.11  -0.00
   8   6     0.13   0.15  -0.07    -0.09  -0.08  -0.07     0.19   0.06   0.03
   9   1     0.06  -0.01  -0.01     0.06  -0.02   0.02    -0.29  -0.06   0.01
  10   1     0.11  -0.05  -0.01    -0.13   0.05  -0.02     0.06  -0.08   0.19
  11   1     0.09   0.03  -0.01    -0.10  -0.12   0.10     0.03   0.12  -0.16
  12   1     0.08  -0.04  -0.00    -0.01   0.01   0.01    -0.02   0.02   0.01
  13   1     0.04   0.10  -0.17     0.07  -0.11  -0.49    -0.01   0.04  -0.04
  14   1    -0.01  -0.01   0.01     0.21  -0.30   0.37    -0.03  -0.02   0.09
  15   1    -0.15   0.12  -0.03    -0.30   0.39   0.14    -0.08   0.11   0.06
  16   1    -0.01  -0.02   0.05     0.01   0.01  -0.00     0.01  -0.04  -0.05
  17   1     0.01  -0.07   0.07     0.01   0.02  -0.00    -0.02   0.02  -0.07
  18   1    -0.13   0.09   0.03     0.05   0.01   0.03     0.00   0.17   0.14
  19   1    -0.18  -0.06   0.01     0.05   0.02   0.00    -0.15  -0.13  -0.14
  20   1    -0.03  -0.04   0.02     0.06   0.04  -0.01     0.28  -0.10  -0.06
  21   1    -0.27   0.09   0.06    -0.04   0.03   0.00     0.20  -0.11  -0.05
  22   1     0.17   0.17  -0.15     0.06   0.04  -0.05    -0.15  -0.17   0.14
  23   1     0.09  -0.24   0.11     0.05  -0.05   0.01    -0.09   0.17  -0.07
  24   1     0.00   0.12  -0.25    -0.01  -0.07   0.01     0.02   0.09  -0.24
  25   1    -0.08  -0.09   0.08    -0.03   0.01  -0.04    -0.06  -0.17   0.14
  26   1     0.24   0.14   0.08    -0.07  -0.04  -0.04     0.26   0.17   0.15
                      7                      8                      9
                        a                      a                      a 
 Frequencies --   245.9734               270.5598               288.2245
 Red. masses --     2.1433                 1.8071                 7.8491
 Frc consts  --     0.0000                 0.0000                 0.0000
 IR Inten    --     0.0949                 0.0148                 0.3135
 Raman Activ --     0.0000                 0.0000                 0.0000
 Depolar     --     0.0000                 0.0000                 0.0000
 Atom AN      X      Y      Z        X      Y      Z        X      Y      Z
   1   6     0.03  -0.08   0.02     0.09  -0.03   0.01    -0.29   0.24   0.03
   2   6     0.02  -0.06   0.02     0.00  -0.06   0.02     0.11   0.18   0.16
   3   6    -0.11   0.11   0.10    -0.07   0.03  -0.07     0.23   0.04   0.02
   4   6     0.03  -0.09  -0.07    -0.01  -0.03   0.14     0.05   0.02   0.13
   5   6     0.00   0.01  -0.02    -0.02   0.00   0.01     0.07  -0.13  -0.04
   6   6    -0.06  -0.05  -0.07    -0.01   0.01   0.02    -0.03  -0.23  -0.12
   7   6    -0.03   0.04  -0.01     0.07   0.09  -0.07    -0.30  -0.18   0.09
   8   6     0.13   0.11   0.05    -0.07  -0.03  -0.05     0.25   0.05  -0.23
   9   1    -0.38  -0.11  -0.00     0.07   0.00   0.00    -0.05   0.13   0.03
  10   1     0.23  -0.19   0.27     0.02  -0.01  -0.04    -0.18   0.15  -0.02
  11   1     0.16   0.23  -0.26     0.02  -0.01   0.04    -0.13  -0.06  -0.02
  12   1     0.01  -0.01   0.01     0.02  -0.03   0.00     0.05   0.05   0.05
  13   1     0.01   0.06  -0.06    -0.01   0.05   0.01     0.05  -0.02   0.00
  14   1    -0.04  -0.04   0.10    -0.04   0.04  -0.06     0.11   0.03  -0.01
  15   1    -0.09   0.12   0.06    -0.03  -0.03  -0.04     0.07  -0.01  -0.00
  16   1     0.02  -0.06  -0.04     0.01   0.05   0.06     0.02   0.02   0.05
  17   1     0.02   0.00  -0.06     0.00  -0.05   0.09    -0.04  -0.00   0.05
  18   1     0.00  -0.12  -0.11    -0.07   0.36   0.29    -0.02  -0.04  -0.04
  19   1     0.08   0.05   0.02    -0.34  -0.21  -0.19    -0.04  -0.08  -0.08
  20   1    -0.15   0.01   0.01     0.43  -0.13  -0.07     0.02  -0.12  -0.01
  21   1    -0.09   0.03   0.01     0.05   0.05  -0.00    -0.25  -0.05   0.02
  22   1     0.05   0.06  -0.04     0.02   0.03  -0.02    -0.08  -0.03  -0.08
  23   1     0.02  -0.05   0.03     0.01   0.03  -0.05    -0.06  -0.10   0.18
  24   1     0.05   0.03   0.33     0.00  -0.05   0.26     0.05   0.07   0.02
  25   1     0.25   0.21  -0.14     0.13   0.18  -0.16     0.14   0.11  -0.14
  26   1    -0.16  -0.13  -0.14    -0.22  -0.17  -0.17     0.07  -0.08  -0.15
                     10                     11                     12
                        a                      a                      a 
 Frequencies --   324.0865               339.8780               372.9282
 Red. masses --     7.5757                 7.7349                 7.7341
 Frc consts  --     0.0000                 0.0000                 0.0000
 IR Inten    --     0.0781                 0.1794                 0.4495
 Raman Activ --     0.0000                 0.0000                 0.0000
 Depolar     --     0.0000                 0.0000                 0.0000
 Atom AN      X      Y      Z        X      Y      Z        X      Y      Z
   1   6     0.17   0.11   0.06     0.24  -0.04   0.05    -0.20   0.05  -0.05
   2   6     0.12   0.20  -0.04     0.15  -0.08   0.09     0.18   0.01   0.06
   3   6     0.43  -0.15  -0.02     0.14  -0.03  -0.01     0.08   0.16   0.07
   4   6     0.01   0.08  -0.18     0.03  -0.09   0.20     0.09  -0.21  -0.09
   5   6    -0.06   0.04   0.01    -0.09   0.02  -0.06     0.09  -0.24  -0.05
   6   6    -0.39  -0.02  -0.05     0.24   0.09  -0.00    -0.15   0.22   0.29
   7   6    -0.04  -0.07   0.06    -0.46   0.17  -0.05    -0.06   0.16  -0.29
   8   6    -0.21  -0.10   0.16    -0.26  -0.08  -0.21     0.09  -0.29   0.06
   9   1    -0.05  -0.01   0.01    -0.07  -0.03   0.02    -0.10   0.04  -0.00
  10   1     0.12  -0.02   0.10     0.16  -0.08   0.08    -0.13   0.08   0.02
  11   1     0.09   0.11  -0.04     0.13   0.09  -0.08    -0.08  -0.08  -0.09
  12   1    -0.00   0.08  -0.01     0.08  -0.03   0.03     0.06   0.00   0.02
  13   1     0.07  -0.17  -0.11     0.05  -0.01  -0.03     0.04   0.09   0.05
  14   1     0.26  -0.09   0.07     0.06  -0.01   0.01    -0.03   0.05   0.00
  15   1     0.12   0.02   0.02     0.01  -0.00  -0.00     0.03   0.04   0.02
  16   1    -0.03  -0.06  -0.09     0.05   0.07   0.10     0.03  -0.13  -0.06
  17   1     0.01   0.08  -0.13    -0.01  -0.09   0.14    -0.01  -0.00  -0.10
  18   1    -0.16   0.12  -0.04     0.11  -0.05   0.07    -0.06   0.13   0.10
  19   1    -0.23  -0.08  -0.03     0.14   0.08  -0.02    -0.07   0.02   0.26
  20   1    -0.06  -0.07   0.00     0.08   0.08  -0.04    -0.06   0.20   0.01
  21   1     0.03  -0.06  -0.01    -0.09   0.06  -0.01     0.00   0.17   0.00
  22   1    -0.03  -0.04   0.08    -0.23  -0.02  -0.05    -0.06   0.04  -0.21
  23   1    -0.02   0.01   0.01    -0.17   0.16   0.02    -0.03   0.09  -0.12
  24   1    -0.04  -0.09   0.05    -0.06  -0.07  -0.15     0.03  -0.10   0.03
  25   1    -0.07  -0.06   0.06    -0.19  -0.02  -0.04     0.03  -0.10   0.03
  26   1    -0.12   0.01   0.07    -0.04  -0.01  -0.05    -0.01  -0.06   0.04
                     13                     14                     15
                        a                      a                      a 
 Frequencies --   420.6854               427.8143               460.6577
 Red. masses --     7.1233                 7.5185                 7.3134
 Frc consts  --     0.0000                 0.0000                 0.0000
 IR Inten    --     0.3832                 0.9069                 0.7723
 Raman Activ --     0.0000                 0.0000                 0.0000
 Depolar     --     0.0000                 0.0000                 0.0000
 Atom AN      X      Y      Z        X      Y      Z        X      Y      Z
   1   6     0.01  -0.06   0.02     0.11   0.37   0.08     0.12  -0.05   0.07
   2   6     0.03  -0.02  -0.01    -0.20  -0.04   0.39    -0.17   0.25  -0.32
   3   6    -0.00   0.03   0.01    -0.08  -0.28  -0.19     0.10  -0.09   0.03
   4   6     0.03   0.08   0.18    -0.11  -0.12  -0.01    -0.29   0.14   0.04
   5   6    -0.00   0.02  -0.36    -0.10  -0.09  -0.08    -0.11  -0.26   0.04
   6   6    -0.04   0.31  -0.21     0.10   0.07   0.05     0.03  -0.08   0.24
   7   6    -0.10  -0.34  -0.16     0.04  -0.05  -0.17    -0.04   0.02  -0.18
   8   6     0.07  -0.02   0.29     0.10   0.06   0.06     0.23   0.02  -0.04
   9   1     0.02  -0.03   0.00     0.00   0.26   0.08     0.05  -0.16  -0.03
  10   1    -0.01  -0.00   0.01     0.12   0.01  -0.11     0.09  -0.05   0.11
  11   1    -0.01  -0.03   0.03     0.08   0.19  -0.04     0.06   0.08   0.12
  12   1     0.02  -0.02  -0.01    -0.05  -0.00   0.11    -0.08   0.08  -0.09
  13   1     0.01   0.02   0.01    -0.02  -0.14  -0.17    -0.05  -0.16   0.02
  14   1    -0.02   0.00   0.01     0.16  -0.02  -0.09     0.09  -0.08   0.08
  15   1    -0.00   0.02   0.01    -0.15  -0.16  -0.11     0.14   0.04   0.06
  16   1     0.06   0.24   0.14     0.03  -0.14  -0.04    -0.17   0.21   0.07
  17   1    -0.04  -0.12   0.24    -0.06   0.04  -0.10    -0.10  -0.07   0.15
  18   1    -0.01   0.11  -0.03     0.05  -0.01   0.07     0.02  -0.03   0.12
  19   1    -0.02   0.07   0.03     0.07   0.04   0.04     0.03  -0.02   0.12
  20   1    -0.01   0.17  -0.11     0.04   0.09  -0.03     0.02   0.06   0.02
  21   1    -0.10  -0.19  -0.11     0.04   0.01  -0.03     0.03   0.09   0.01
  22   1    -0.00  -0.09   0.01     0.04   0.00  -0.04    -0.01   0.02  -0.11
  23   1    -0.01  -0.13   0.06     0.01  -0.04  -0.10    -0.02   0.01  -0.12
  24   1     0.02  -0.01   0.19     0.00   0.09   0.06     0.02   0.14   0.01
  25   1     0.15  -0.13   0.13     0.11  -0.01   0.02     0.14   0.02  -0.04
  26   1    -0.10   0.10   0.17     0.04   0.03   0.03     0.15  -0.03  -0.04
                     16                     17                     18
                        a                      a                      a 
 Frequencies --   519.8388               789.0685               864.0203
 Red. masses --     8.2516                 9.5224                 7.5326
 Frc consts  --     0.0000                 0.0000                 0.0000
 IR Inten    --     0.5421                 0.5328                 1.3061
 Raman Activ --     0.0000                 0.0000                 0.0000
 Depolar     --     0.0000                 0.0000                 0.0000
 Atom AN      X      Y      Z        X      Y      Z        X      Y      Z
   1   6    -0.10  -0.04  -0.04    -0.03   0.11   0.06     0.01  -0.30  -0.23
   2   6     0.23   0.02  -0.00    -0.06   0.09  -0.10    -0.05  -0.02   0.18
   3   6     0.26   0.14   0.07     0.01   0.02  -0.03     0.17   0.12   0.05
   4   6    -0.14  -0.31   0.03    -0.26  -0.45   0.05    -0.22   0.34   0.29
   5   6    -0.41   0.00   0.01    -0.02  -0.01   0.00    -0.13  -0.03   0.05
   6   6     0.10  -0.03   0.01     0.01   0.26  -0.36    -0.05   0.11  -0.15
   7   6     0.12  -0.12  -0.13     0.10   0.22   0.34    -0.01   0.01   0.01
   8   6    -0.22   0.33   0.07     0.19  -0.22  -0.03     0.13  -0.21  -0.02
   9   1    -0.03  -0.01  -0.01     0.00  -0.02  -0.00     0.06  -0.08  -0.06
  10   1    -0.11   0.07   0.02    -0.01   0.04   0.05     0.06  -0.15  -0.13
  11   1    -0.07  -0.12  -0.05    -0.02   0.03   0.05     0.03  -0.02  -0.01
  12   1     0.13  -0.00   0.00     0.06   0.03  -0.02     0.06  -0.08   0.03
  13   1     0.06   0.03   0.05    -0.08  -0.12   0.03     0.09   0.08  -0.01
  14   1     0.04   0.02   0.03     0.05  -0.03   0.04     0.06   0.07  -0.02
  15   1     0.12   0.06   0.04     0.12   0.04   0.02    -0.03  -0.01  -0.02
  16   1    -0.04  -0.13  -0.01    -0.11  -0.08   0.03    -0.07  -0.27  -0.06
  17   1    -0.04  -0.05  -0.04    -0.08  -0.14   0.04    -0.05   0.33  -0.23
  18   1     0.08  -0.12   0.14     0.01   0.05  -0.07     0.02  -0.02   0.04
  19   1     0.11   0.06  -0.09     0.02   0.09  -0.13     0.03   0.07  -0.07
  20   1     0.11   0.02  -0.04     0.02   0.08  -0.11     0.04   0.08  -0.09
  21   1     0.09  -0.04  -0.04     0.04   0.06   0.10    -0.01  -0.01  -0.00
  22   1     0.15   0.04   0.06     0.05   0.07   0.12    -0.01  -0.00   0.02
  23   1     0.06  -0.14  -0.18     0.03   0.05   0.08    -0.01   0.01   0.02
  24   1    -0.10   0.18   0.05     0.07  -0.10  -0.01    -0.01   0.06   0.01
  25   1     0.02   0.08   0.01     0.03  -0.06  -0.00     0.12  -0.06  -0.02
  26   1    -0.02   0.09   0.02     0.03  -0.06  -0.01     0.12  -0.08  -0.02
                     19                     20                     21
                        a                      a                      a 
 Frequencies --   894.5797               947.1744               950.7056
 Red. masses --     5.5127                 3.3710                 6.3592
 Frc consts  --     0.0000                 0.0000                 0.0000
 IR Inten    --     1.0573                 2.0795                 2.3171
 Raman Activ --     0.0000                 0.0000                 0.0000
 Depolar     --     0.0000                 0.0000                 0.0000
 Atom AN      X      Y      Z        X      Y      Z        X      Y      Z
   1   6    -0.04   0.20  -0.00     0.18   0.16  -0.13    -0.02   0.16   0.13
   2   6    -0.02   0.11  -0.19     0.15   0.08   0.01     0.16  -0.05  -0.10
   3   6    -0.19  -0.09  -0.10    -0.16  -0.10   0.20    -0.08  -0.19  -0.09
   4   6     0.13  -0.10   0.39     0.03   0.06  -0.02     0.21   0.17  -0.04
   5   6     0.12   0.07   0.04    -0.07  -0.07   0.01    -0.28   0.10   0.04
   6   6    -0.01   0.00   0.02     0.01   0.01  -0.10    -0.17   0.01   0.01
   7   6     0.01  -0.10  -0.21     0.01   0.01   0.08    -0.20   0.09  -0.02
   8   6    -0.03   0.10   0.01    -0.05  -0.05   0.02     0.21  -0.26   0.02
   9   1     0.07  -0.22  -0.10    -0.05  -0.32  -0.16    -0.01   0.04   0.04
  10   1     0.02   0.05   0.17    -0.15   0.28   0.38    -0.02   0.06   0.06
  11   1    -0.01   0.12   0.22    -0.06  -0.19  -0.00    -0.01   0.02   0.03
  12   1     0.21  -0.10  -0.08    -0.09  -0.22  -0.11     0.06   0.02  -0.01
  13   1    -0.15  -0.15   0.07     0.02  -0.01  -0.13     0.04   0.09   0.05
  14   1    -0.08  -0.11   0.06     0.17   0.15  -0.11    -0.25  -0.14   0.03
  15   1     0.14   0.06   0.04    -0.31  -0.27  -0.10    -0.01   0.07   0.03
  16   1     0.04  -0.36  -0.03     0.00   0.02  -0.01     0.06   0.05  -0.01
  17   1     0.09   0.19  -0.18    -0.00   0.02  -0.01     0.09   0.04  -0.00
  18   1     0.01  -0.02   0.02     0.00   0.01   0.01     0.04  -0.15   0.20
  19   1     0.01   0.02  -0.02    -0.00  -0.01   0.05     0.08   0.11  -0.13
  20   1     0.02  -0.01   0.01     0.00   0.08  -0.07     0.08   0.03  -0.06
  21   1    -0.08  -0.08  -0.10     0.03   0.04   0.05     0.07  -0.10  -0.08
  22   1    -0.08  -0.09  -0.09     0.02   0.02   0.01     0.17   0.14   0.28
  23   1    -0.01   0.03   0.08     0.00  -0.01  -0.02     0.01  -0.19  -0.20
  24   1     0.03  -0.07   0.00    -0.06   0.10  -0.00     0.05  -0.06  -0.05
  25   1    -0.06   0.02   0.02     0.04   0.01  -0.02     0.01  -0.01  -0.02
  26   1    -0.08   0.04   0.01     0.08  -0.05  -0.02     0.12  -0.14  -0.05
                     22                     23                     24
                        a                      a                      a 
 Frequencies --   960.4605               963.4112               966.7207
 Red. masses --     4.6532                 3.6325                 5.1907
 Frc consts  --     0.0000                 0.0000                 0.0000
 IR Inten    --     1.2144                 0.4678                 0.7752
 Raman Activ --     0.0000                 0.0000                 0.0000
 Depolar     --     0.0000                 0.0000                 0.0000
 Atom AN      X      Y      Z        X      Y      Z        X      Y      Z
   1   6     0.02  -0.06  -0.10     0.05   0.06   0.08     0.00  -0.02  -0.04
   2   6    -0.09   0.05   0.06     0.12  -0.03  -0.05    -0.04   0.02   0.02
   3   6     0.02   0.12   0.11    -0.05  -0.14  -0.06    -0.00   0.05   0.04
   4   6    -0.06  -0.09  -0.01     0.04   0.12  -0.01     0.01  -0.02  -0.03
   5   6     0.01   0.22   0.08    -0.08  -0.08   0.02    -0.05   0.06  -0.27
   6   6    -0.04   0.17   0.22    -0.08   0.17   0.02    -0.18  -0.26   0.19
   7   6    -0.13  -0.12  -0.16     0.11  -0.17   0.17     0.15   0.26   0.09
   8   6     0.27  -0.02  -0.07    -0.09  -0.05  -0.19     0.05   0.00  -0.25
   9   1     0.00  -0.08  -0.05    -0.03   0.06   0.04     0.00  -0.04  -0.02
  10   1    -0.01   0.00   0.02    -0.03   0.06   0.03    -0.00  -0.00   0.01
  11   1    -0.01  -0.05  -0.01     0.00  -0.03  -0.04    -0.00  -0.01   0.01
  12   1    -0.08  -0.04  -0.01     0.05   0.03   0.01    -0.02  -0.01  -0.00
  13   1    -0.03  -0.07  -0.06     0.03   0.06   0.04    -0.02  -0.03  -0.02
  14   1     0.22   0.13  -0.05    -0.17  -0.10   0.02     0.08   0.05  -0.01
  15   1    -0.06  -0.10  -0.04     0.00   0.05   0.03    -0.02  -0.04  -0.02
  16   1    -0.03   0.02   0.01    -0.01   0.01  -0.01     0.03   0.01   0.00
  17   1    -0.00  -0.05   0.03     0.02   0.04  -0.02    -0.00  -0.01   0.00
  18   1     0.03  -0.12  -0.05     0.03  -0.11  -0.01     0.04  -0.21   0.34
  19   1     0.03   0.12  -0.34     0.04   0.13  -0.29     0.09   0.03   0.06
  20   1     0.01  -0.31   0.26     0.04  -0.16   0.10     0.09   0.09  -0.09
  21   1     0.04  -0.00  -0.02     0.05   0.27   0.27    -0.10  -0.14  -0.13
  22   1     0.04   0.02  -0.01    -0.12  -0.08  -0.33    -0.02  -0.00   0.15
  23   1    -0.02  -0.10  -0.19    -0.04   0.13  -0.04     0.05   0.10   0.30
  24   1     0.19  -0.32  -0.01    -0.08   0.15   0.13     0.05  -0.08   0.10
  25   1    -0.08  -0.06   0.04     0.28  -0.25   0.03     0.18  -0.26   0.06
  26   1    -0.18   0.07   0.03    -0.07   0.18   0.11    -0.22   0.24   0.12
                     25                     26                     27
                        a                      a                      a 
 Frequencies --   985.5545              1010.4899              1034.1413
 Red. masses --     4.2536                 5.1742                 4.2613
 Frc consts  --     0.0000                 0.0000                 0.0000
 IR Inten    --     0.5274                 7.5775                 0.1985
 Raman Activ --     0.0000                 0.0000                 0.0000
 Depolar     --     0.0000                 0.0000                 0.0000
 Atom AN      X      Y      Z        X      Y      Z        X      Y      Z
   1   6    -0.30   0.18  -0.03    -0.07  -0.10  -0.11    -0.04  -0.04   0.02
   2   6    -0.14  -0.11  -0.05    -0.15   0.07   0.07    -0.07   0.03  -0.06
   3   6     0.30   0.01   0.08    -0.15   0.25  -0.02    -0.00   0.06   0.07
   4   6     0.11  -0.10  -0.05     0.40  -0.01  -0.02     0.20  -0.02  -0.05
   5   6    -0.02  -0.05  -0.04    -0.10  -0.05  -0.05     0.02  -0.09   0.15
   6   6     0.02   0.00  -0.00    -0.01  -0.02  -0.02    -0.29   0.02  -0.18
   7   6    -0.03  -0.01   0.09    -0.11  -0.02   0.14     0.14  -0.16  -0.02
   8   6    -0.04   0.02  -0.03    -0.11  -0.10  -0.03     0.04   0.10   0.18
   9   1     0.16  -0.20  -0.11     0.05  -0.05  -0.04    -0.00   0.06   0.03
  10   1     0.15  -0.16  -0.01     0.06  -0.10  -0.08     0.02  -0.05  -0.07
  11   1    -0.01   0.36   0.40     0.00   0.06   0.06     0.01   0.04  -0.01
  12   1    -0.10  -0.20  -0.09     0.06   0.02   0.03    -0.14   0.07  -0.00
  13   1     0.26   0.28  -0.05    -0.26  -0.31   0.00    -0.01  -0.02  -0.04
  14   1    -0.06   0.06  -0.06     0.29   0.08   0.03     0.10   0.07  -0.03
  15   1    -0.17  -0.03  -0.03     0.19  -0.00  -0.00    -0.05  -0.06  -0.02
  16   1     0.09   0.01   0.01     0.32   0.02   0.02    -0.08   0.05  -0.00
  17   1    -0.01  -0.06   0.03     0.09  -0.03   0.03     0.12  -0.04   0.03
  18   1     0.00   0.00  -0.02    -0.00   0.00   0.02     0.06  -0.22   0.34
  19   1    -0.01  -0.01   0.00    -0.00  -0.01   0.02     0.14   0.17  -0.15
  20   1    -0.01  -0.00   0.01     0.00   0.02  -0.02     0.14   0.19  -0.23
  21   1     0.05   0.07   0.08     0.11   0.11   0.13    -0.04   0.08   0.08
  22   1     0.03   0.03  -0.01     0.09   0.08   0.04    -0.13  -0.12  -0.25
  23   1    -0.01  -0.01  -0.07    -0.02  -0.08  -0.19    -0.01   0.11   0.09
  24   1    -0.01   0.02   0.02    -0.10   0.17   0.03     0.06  -0.11  -0.09
  25   1     0.03  -0.03   0.01     0.13  -0.06  -0.02    -0.23   0.20  -0.01
  26   1    -0.03   0.04   0.02     0.09  -0.02   0.01     0.03  -0.11  -0.07
                     28                     29                     30
                        a                      a                      a 
 Frequencies --  1039.9196              1114.6930              1142.8700
 Red. masses --     4.2550                 4.9723                 7.8498
 Frc consts  --     0.0000                 0.0000                 0.0000
 IR Inten    --     0.0729                 0.0451                 4.5664
 Raman Activ --     0.0000                 0.0000                 0.0000
 Depolar     --     0.0000                 0.0000                 0.0000
 Atom AN      X      Y      Z        X      Y      Z        X      Y      Z
   1   6     0.04  -0.05  -0.05    -0.01   0.00  -0.20    -0.12  -0.19  -0.14
   2   6     0.07   0.07   0.06     0.09   0.05   0.32     0.28   0.50   0.01
   3   6    -0.05  -0.08  -0.03    -0.04  -0.07  -0.11    -0.18  -0.24   0.14
   4   6    -0.05   0.12   0.06    -0.16   0.06  -0.23     0.15  -0.15   0.06
   5   6     0.05  -0.13  -0.07    -0.01  -0.03  -0.18     0.10  -0.15   0.02
   6   6     0.02  -0.16  -0.13    -0.09   0.03   0.12    -0.01   0.08   0.00
   7   6    -0.15  -0.10   0.22     0.12   0.02   0.05    -0.04   0.08  -0.03
   8   6     0.13   0.27  -0.09     0.04   0.02   0.17    -0.09   0.03  -0.02
   9   1     0.00  -0.02  -0.01     0.07  -0.21  -0.13     0.09  -0.01  -0.03
  10   1    -0.01   0.00   0.00     0.03  -0.01   0.07     0.10  -0.18  -0.18
  11   1     0.00  -0.04  -0.03    -0.01   0.02   0.10     0.02   0.10   0.03
  12   1     0.07   0.02   0.02     0.27  -0.06   0.08    -0.01   0.32   0.08
  13   1    -0.00   0.01   0.02    -0.04  -0.02   0.06     0.02   0.03  -0.04
  14   1    -0.09  -0.05   0.02    -0.11  -0.10   0.05    -0.09  -0.00  -0.04
  15   1     0.00   0.02   0.01     0.10   0.08   0.04    -0.24  -0.13  -0.02
  16   1     0.02  -0.03  -0.01     0.34   0.12   0.02    -0.12  -0.01   0.01
  17   1    -0.14   0.08  -0.05    -0.37  -0.05   0.04    -0.13  -0.02  -0.00
  18   1    -0.01   0.05   0.06     0.01  -0.09   0.05    -0.00   0.00  -0.03
  19   1    -0.00  -0.08   0.21     0.03   0.06  -0.12     0.01   0.04  -0.08
  20   1     0.01   0.19  -0.17     0.03  -0.09   0.07     0.01  -0.05   0.04
  21   1     0.17   0.20   0.23    -0.03   0.03   0.03    -0.00  -0.06  -0.07
  22   1     0.10   0.10  -0.01    -0.05  -0.04  -0.06     0.04   0.04   0.11
  23   1    -0.04  -0.10  -0.30     0.01   0.09   0.12     0.01  -0.04   0.02
  24   1     0.18  -0.31   0.00     0.02  -0.02  -0.07    -0.05   0.07   0.03
  25   1    -0.16  -0.00   0.06    -0.14   0.16  -0.02     0.03  -0.01   0.00
  26   1    -0.31   0.18   0.05     0.08  -0.13  -0.07    -0.01   0.03   0.02
                     31                     32                     33
                        a                      a                      a 
 Frequencies --  1185.4466              1223.1891              1227.1120
 Red. masses --     6.3784                 6.5806                 8.0653
 Frc consts  --     0.0000                 0.0000                 0.0000
 IR Inten    --     5.7553                14.8377                22.7984
 Raman Activ --     0.0000                 0.0000                 0.0000
 Depolar     --     0.0000                 0.0000                 0.0000
 Atom AN      X      Y      Z        X      Y      Z        X      Y      Z
   1   6    -0.21   0.03   0.18    -0.05   0.06  -0.24    -0.01  -0.07  -0.00
   2   6     0.45  -0.20  -0.14     0.10  -0.06   0.38     0.03   0.20  -0.12
   3   6    -0.20   0.07   0.14    -0.04  -0.00  -0.11    -0.02  -0.10   0.10
   4   6    -0.19   0.16  -0.14    -0.01  -0.01  -0.19    -0.01  -0.11   0.06
   5   6    -0.04   0.02   0.03    -0.08   0.19   0.37    -0.46   0.45  -0.11
   6   6     0.01  -0.02  -0.00     0.04  -0.06  -0.12     0.13  -0.15   0.03
   7   6     0.02  -0.01  -0.01     0.01  -0.07  -0.12     0.14  -0.14   0.04
   8   6     0.04   0.00  -0.01     0.03  -0.05  -0.12     0.17  -0.12   0.03
   9   1     0.07   0.13   0.08     0.08  -0.22  -0.14     0.01   0.04   0.02
  10   1     0.09  -0.14  -0.12     0.04  -0.01   0.10     0.00  -0.03  -0.06
  11   1     0.02   0.19   0.10    -0.02   0.05   0.14     0.02   0.03  -0.02
  12   1     0.39  -0.24  -0.09     0.03   0.17   0.18     0.04   0.16   0.02
  13   1    -0.13  -0.17  -0.06    -0.05  -0.03   0.07     0.05   0.05  -0.03
  14   1     0.21   0.10  -0.02    -0.04  -0.07   0.05    -0.03   0.03  -0.04
  15   1    -0.04  -0.16  -0.04     0.10   0.07   0.03    -0.12  -0.06  -0.01
  16   1    -0.16   0.09  -0.03    -0.31   0.16  -0.00     0.25  -0.04   0.03
  17   1     0.00   0.01  -0.01     0.25  -0.10   0.08     0.11  -0.01  -0.01
  18   1    -0.01   0.03  -0.03    -0.02   0.08   0.01    -0.03   0.11  -0.03
  19   1    -0.00  -0.01   0.03     0.00  -0.03   0.10    -0.06  -0.12   0.20
  20   1    -0.00   0.01  -0.01    -0.02   0.12  -0.09    -0.08   0.03   0.01
  21   1    -0.01   0.00   0.00    -0.04  -0.03  -0.04    -0.05   0.10   0.10
  22   1    -0.02  -0.02  -0.02    -0.04  -0.05  -0.07    -0.10  -0.09  -0.20
  23   1    -0.00   0.02   0.02    -0.01   0.01  -0.01    -0.03   0.13   0.05
  24   1     0.02  -0.03  -0.01     0.02  -0.03   0.05     0.07  -0.12  -0.05
  25   1    -0.01  -0.00   0.00     0.10  -0.11   0.01     0.00  -0.01  -0.00
  26   1    -0.02   0.01  -0.00    -0.03   0.07   0.04     0.06  -0.10  -0.04
                     34                     35                     36
                        a                      a                      a 
 Frequencies --  1270.4403              1295.0749              1311.2996
 Red. masses --     8.9951                 6.4740                 3.8378
 Frc consts  --     0.0000                 0.0000                 0.0000
 IR Inten    --    24.8243                11.8617                12.9529
 Raman Activ --     0.0000                 0.0000                 0.0000
 Depolar     --     0.0000                 0.0000                 0.0000
 Atom AN      X      Y      Z        X      Y      Z        X      Y      Z
   1   6     0.01  -0.01  -0.00    -0.06   0.06  -0.07    -0.05  -0.07   0.09
   2   6    -0.05   0.05  -0.02     0.25  -0.16   0.10     0.24   0.20   0.12
   3   6     0.03  -0.04   0.05    -0.05   0.07  -0.08    -0.01   0.05  -0.17
   4   6    -0.24  -0.13   0.00     0.02   0.01   0.14     0.05  -0.08  -0.00
   5   6     0.52   0.49  -0.10    -0.03   0.06  -0.54     0.00   0.21   0.18
   6   6    -0.16  -0.14   0.03     0.02  -0.00   0.13     0.01  -0.04  -0.05
   7   6    -0.15  -0.14   0.03     0.01  -0.02   0.14     0.00  -0.05  -0.04
   8   6    -0.14  -0.13   0.03     0.01  -0.02   0.14    -0.00  -0.05  -0.05
   9   1    -0.00   0.01   0.00     0.06  -0.05  -0.04     0.02   0.03   0.03
  10   1    -0.01   0.00  -0.00     0.04  -0.02   0.06     0.03  -0.08  -0.10
  11   1     0.00  -0.01  -0.01    -0.01   0.05   0.08     0.02   0.01  -0.07
  12   1     0.17   0.03   0.02    -0.38   0.13   0.05    -0.50  -0.47  -0.25
  13   1     0.04   0.04  -0.01    -0.08  -0.07   0.04    -0.10  -0.10   0.05
  14   1    -0.01   0.02  -0.02     0.02  -0.04   0.05    -0.10  -0.10   0.06
  15   1    -0.05  -0.02  -0.00     0.08   0.02  -0.00     0.07   0.05  -0.01
  16   1    -0.03  -0.01   0.01    -0.41  -0.05  -0.03     0.03   0.02   0.02
  17   1    -0.01  -0.03   0.01     0.13   0.06  -0.05    -0.34   0.01  -0.02
  18   1     0.01  -0.08   0.19     0.02  -0.07   0.03     0.01  -0.01   0.05
  19   1     0.09   0.04   0.07    -0.05  -0.04   0.00    -0.01  -0.02   0.04
  20   1     0.08   0.05  -0.07    -0.03  -0.10   0.10    -0.02   0.07  -0.04
  21   1     0.11   0.06   0.07     0.05   0.09   0.10    -0.02  -0.02  -0.02
  22   1     0.07   0.06  -0.08     0.05   0.05  -0.01    -0.02  -0.02  -0.06
  23   1    -0.04  -0.06  -0.20    -0.02   0.06  -0.01    -0.01   0.00  -0.03
  24   1    -0.10   0.16   0.00    -0.01   0.01  -0.10    -0.01   0.02   0.04
  25   1     0.13   0.02  -0.05    -0.05   0.11  -0.03     0.06  -0.05   0.00
  26   1     0.16  -0.03   0.01     0.05  -0.10  -0.05     0.03   0.01   0.01
                     37                     38                     39
                        a                      a                      a 
 Frequencies --  1349.8665              1374.3229              1402.4826
 Red. masses --     4.7527                 4.3319                 3.3334
 Frc consts  --     0.0000                 0.0000                 0.0000
 IR Inten    --     8.2672                 2.3054                 0.3697
 Raman Activ --     0.0000                 0.0000                 0.0000
 Depolar     --     0.0000                 0.0000                 0.0000
 Atom AN      X      Y      Z        X      Y      Z        X      Y      Z
   1   6    -0.04   0.08  -0.06    -0.07   0.04   0.04    -0.02   0.16   0.11
   2   6     0.24  -0.38  -0.20     0.21   0.13   0.05    -0.02  -0.06  -0.03
   3   6    -0.05   0.07   0.05    -0.05  -0.03  -0.04     0.10   0.09   0.02
   4   6    -0.14   0.04   0.07    -0.42   0.03  -0.01     0.03  -0.01   0.02
   5   6     0.07   0.05   0.19     0.11  -0.16   0.01    -0.02   0.06  -0.02
   6   6    -0.02  -0.01  -0.05    -0.03   0.02   0.01    -0.00  -0.18   0.22
   7   6    -0.01  -0.00  -0.05    -0.05  -0.00  -0.05    -0.00  -0.05  -0.04
   8   6    -0.00  -0.00  -0.05    -0.04   0.06   0.00     0.16  -0.19  -0.02
   9   1     0.02   0.02  -0.01     0.07  -0.09  -0.04     0.03  -0.21  -0.07
  10   1    -0.01   0.05   0.12     0.07  -0.09  -0.09     0.10  -0.10  -0.14
  11   1    -0.00   0.09   0.13    -0.01  -0.04  -0.08    -0.05  -0.16  -0.15
  12   1    -0.33   0.46   0.15    -0.23  -0.05  -0.05     0.01   0.06   0.03
  13   1    -0.02  -0.04  -0.07    -0.00   0.03   0.03    -0.07  -0.13  -0.00
  14   1     0.09   0.04   0.00    -0.00  -0.03   0.02    -0.13  -0.04   0.04
  15   1     0.05  -0.06  -0.02     0.02   0.02   0.01    -0.12  -0.08  -0.06
  16   1     0.34  -0.07   0.02     0.42  -0.04   0.03    -0.02  -0.00   0.00
  17   1    -0.34   0.05  -0.03     0.61  -0.04   0.04    -0.04   0.01  -0.01
  18   1    -0.00   0.02   0.03     0.00  -0.02  -0.02    -0.10   0.19  -0.25
  19   1     0.03   0.02  -0.00     0.01   0.02  -0.07     0.09   0.09  -0.29
  20   1     0.00   0.04  -0.03     0.02   0.03  -0.02     0.04   0.27  -0.17
  21   1    -0.01  -0.03  -0.03     0.06   0.04   0.03     0.00   0.05   0.04
  22   1    -0.02  -0.01  -0.00     0.05   0.03   0.09     0.04   0.02   0.04
  23   1     0.01  -0.03  -0.00     0.01  -0.01   0.08    -0.02   0.06   0.05
  24   1    -0.00   0.01   0.05     0.02  -0.05  -0.01    -0.10   0.27   0.01
  25   1     0.02  -0.04   0.01     0.02  -0.00   0.00    -0.21   0.18  -0.07
  26   1     0.01   0.03   0.02     0.01   0.01   0.00    -0.21   0.15   0.12
                     40                     41                     42
                        a                      a                      a 
 Frequencies --  1405.1559              1408.8085              1421.6020
 Red. masses --     3.3190                 3.2601                 3.0674
 Frc consts  --     0.0000                 0.0000                 0.0000
 IR Inten    --     0.7271                 1.2004                 0.2537
 Raman Activ --     0.0000                 0.0000                 0.0000
 Depolar     --     0.0000                 0.0000                 0.0000
 Atom AN      X      Y      Z        X      Y      Z        X      Y      Z
   1   6    -0.01   0.07   0.05    -0.02   0.18   0.14     0.05  -0.22  -0.19
   2   6    -0.03  -0.03  -0.02    -0.03  -0.09  -0.04    -0.01   0.04   0.03
   3   6     0.07   0.05   0.02     0.21   0.17   0.02     0.24   0.18  -0.02
   4   6     0.03   0.00  -0.01     0.02   0.03   0.00    -0.07  -0.01  -0.01
   5   6    -0.01   0.02   0.08     0.01  -0.03  -0.01     0.01  -0.04  -0.00
   6   6     0.01   0.13  -0.22    -0.00   0.04  -0.05    -0.01   0.00   0.02
   7   6    -0.07  -0.17  -0.27     0.03   0.06   0.09    -0.01   0.01  -0.01
   8   6     0.06  -0.08  -0.03    -0.14   0.17   0.02     0.03  -0.03  -0.00
   9   1     0.03  -0.07  -0.02     0.04  -0.27  -0.10    -0.08   0.33   0.11
  10   1     0.06  -0.06  -0.04     0.10  -0.11  -0.19    -0.14   0.15   0.25
  11   1    -0.03  -0.10  -0.07    -0.04  -0.16  -0.19     0.05   0.21   0.28
  12   1     0.05   0.03   0.01     0.05   0.10   0.05     0.01  -0.04  -0.01
  13   1    -0.04  -0.08  -0.01    -0.15  -0.26   0.01    -0.19  -0.29   0.08
  14   1    -0.09  -0.02   0.02    -0.27  -0.10   0.08    -0.31  -0.15   0.12
  15   1    -0.08  -0.05  -0.03    -0.25  -0.17  -0.12    -0.32  -0.18  -0.13
  16   1    -0.01   0.00  -0.00    -0.01  -0.03  -0.01     0.07   0.05   0.02
  17   1    -0.07  -0.00   0.00    -0.04  -0.01   0.02     0.14   0.02  -0.03
  18   1     0.08  -0.12   0.26     0.02  -0.03   0.06    -0.00  -0.01  -0.04
  19   1    -0.06  -0.08   0.28    -0.01  -0.01   0.07     0.01   0.01  -0.02
  20   1    -0.06  -0.25   0.16    -0.01  -0.07   0.04     0.03   0.01  -0.02
  21   1     0.09   0.30   0.21    -0.04  -0.09  -0.07     0.02   0.00   0.00
  22   1     0.19   0.07   0.31    -0.08  -0.04  -0.10     0.01   0.01   0.01
  23   1    -0.03   0.16   0.34     0.01  -0.06  -0.12     0.01  -0.01   0.02
  24   1    -0.04   0.10   0.04     0.09  -0.25  -0.02    -0.02   0.05  -0.00
  25   1    -0.10   0.06  -0.02     0.19  -0.17   0.07    -0.04   0.04  -0.02
  26   1    -0.07   0.07   0.06     0.19  -0.15  -0.12    -0.05   0.04   0.03
                     43                     44                     45
                        a                      a                      a 
 Frequencies --  1429.7065              1481.4777              1487.9105
 Red. masses --     2.9924                 1.8363                 1.6027
 Frc consts  --     0.0000                 0.0000                 0.0000
 IR Inten    --     1.0965                 0.4290                 1.1275
 Raman Activ --     0.0000                 0.0000                 0.0000
 Depolar     --     0.0000                 0.0000                 0.0000
 Atom AN      X      Y      Z        X      Y      Z        X      Y      Z
   1   6     0.02  -0.02  -0.04     0.05   0.03   0.03    -0.12   0.00  -0.02
   2   6    -0.03  -0.01  -0.00    -0.01  -0.02  -0.00    -0.04  -0.01  -0.01
   3   6    -0.01  -0.01   0.00    -0.04   0.03   0.01     0.03  -0.03   0.03
   4   6     0.06  -0.04   0.01    -0.02  -0.23   0.06     0.00  -0.06   0.01
   5   6     0.00   0.03   0.00    -0.00  -0.02   0.01    -0.01  -0.02   0.03
   6   6    -0.01  -0.13   0.17     0.00   0.01  -0.04     0.01   0.05   0.02
   7   6    -0.06  -0.14  -0.20    -0.05   0.06   0.00    -0.08  -0.08   0.09
   8   6    -0.16   0.18   0.02     0.04   0.01   0.05     0.05   0.05  -0.04
   9   1    -0.03   0.08   0.03    -0.15  -0.09  -0.02     0.36   0.11   0.02
  10   1     0.00   0.01   0.06    -0.02   0.00  -0.14     0.10  -0.06   0.27
  11   1    -0.02  -0.02   0.07    -0.01  -0.02   0.06     0.01  -0.05  -0.22
  12   1     0.02  -0.02  -0.00     0.01   0.01   0.00     0.02   0.01   0.01
  13   1     0.01   0.02  -0.01     0.05   0.06  -0.06    -0.02  -0.06  -0.03
  14   1     0.02   0.01  -0.01     0.01  -0.06   0.08    -0.05   0.08  -0.10
  15   1     0.03   0.02   0.01     0.09  -0.11  -0.04    -0.03   0.09   0.04
  16   1    -0.07   0.08   0.02     0.04   0.53   0.21     0.03   0.14   0.06
  17   1    -0.09   0.05  -0.06     0.05   0.35  -0.45     0.01   0.09  -0.11
  18   1    -0.08   0.13  -0.22     0.00   0.02   0.05     0.04  -0.13  -0.05
  19   1     0.07   0.07  -0.22     0.01   0.01   0.03    -0.11  -0.07  -0.01
  20   1     0.06   0.21  -0.14    -0.03  -0.04   0.03     0.03   0.05  -0.03
  21   1     0.09   0.24   0.17     0.19  -0.03  -0.01     0.14  -0.24  -0.16
  22   1     0.16   0.07   0.24    -0.08  -0.03  -0.09     0.28   0.27  -0.27
  23   1    -0.03   0.14   0.29     0.07  -0.17   0.11    -0.11   0.30   0.06
  24   1     0.10  -0.28  -0.02    -0.03   0.08  -0.17    -0.02   0.09   0.13
  25   1     0.23  -0.19   0.08     0.05  -0.04   0.02    -0.15  -0.15   0.12
  26   1     0.23  -0.17  -0.14    -0.17  -0.06  -0.06    -0.02  -0.11  -0.10
                     46                     47                     48
                        a                      a                      a 
 Frequencies --  1493.9187              1498.1503              1501.1730
 Red. masses --     1.6345                 1.5855                 1.6126
 Frc consts  --     0.0000                 0.0000                 0.0000
 IR Inten    --     0.0171                 0.1192                 0.0202
 Raman Activ --     0.0000                 0.0000                 0.0000
 Depolar     --     0.0000                 0.0000                 0.0000
 Atom AN      X      Y      Z        X      Y      Z        X      Y      Z
   1   6     0.05   0.06  -0.05     0.02   0.02  -0.03     0.07   0.02  -0.05
   2   6     0.01   0.03  -0.00    -0.02   0.02  -0.00     0.00   0.06   0.02
   3   6    -0.04   0.04   0.03    -0.02   0.03   0.05    -0.07   0.08   0.04
   4   6    -0.02  -0.07   0.02    -0.00  -0.01  -0.00    -0.00   0.08  -0.03
   5   6     0.02  -0.01  -0.00     0.01  -0.03  -0.01     0.01   0.01  -0.00
   6   6    -0.05   0.08   0.04     0.16  -0.01  -0.00     0.00  -0.06  -0.04
   7   6     0.12  -0.07   0.03    -0.04  -0.00   0.03    -0.05  -0.03   0.03
   8   6    -0.02  -0.01  -0.07    -0.10  -0.07  -0.04     0.08   0.07   0.01
   9   1    -0.21   0.05   0.03    -0.08   0.05   0.02    -0.25   0.04   0.02
  10   1     0.13  -0.11  -0.04     0.07  -0.06   0.02     0.06  -0.06  -0.07
  11   1    -0.11  -0.19   0.19    -0.05  -0.10   0.09    -0.08  -0.12   0.21
  12   1    -0.01  -0.00  -0.01     0.05  -0.01  -0.00    -0.01  -0.03  -0.02
  13   1     0.06   0.04  -0.15     0.04  -0.01  -0.18     0.11   0.08  -0.24
  14   1    -0.05  -0.06   0.07    -0.10  -0.02   0.01    -0.09  -0.15   0.15
  15   1     0.14  -0.14  -0.04     0.13  -0.10  -0.02     0.24  -0.28  -0.09
  16   1     0.03   0.15   0.06     0.00   0.03   0.01    -0.01  -0.21  -0.08
  17   1     0.04   0.09  -0.12     0.01   0.02  -0.02     0.02  -0.14   0.18
  18   1     0.04  -0.23  -0.19     0.05  -0.01   0.26    -0.04   0.19   0.12
  19   1    -0.10  -0.08   0.12    -0.23  -0.13  -0.30     0.13   0.09  -0.02
  20   1     0.24  -0.01  -0.08    -0.46   0.20   0.05    -0.10  -0.05   0.06
  21   1    -0.43   0.02   0.00     0.11  -0.08  -0.05     0.12  -0.10  -0.06
  22   1     0.06   0.00   0.17     0.06   0.07  -0.11     0.12   0.12  -0.14
  23   1    -0.11   0.24  -0.29    -0.01   0.04   0.06    -0.04   0.10   0.06
  24   1     0.02  -0.03   0.22     0.07  -0.19   0.10    -0.06   0.16  -0.01
  25   1    -0.13   0.02   0.01     0.06   0.25  -0.16    -0.11  -0.24   0.17
  26   1     0.15   0.05   0.05     0.25   0.23   0.22    -0.17  -0.21  -0.20
                     49                     50                     51
                        a                      a                      a 
 Frequencies --  1501.5844              1505.9234              1506.9688
 Red. masses --     1.5563                 1.5846                 1.5802
 Frc consts  --     0.0000                 0.0000                 0.0000
 IR Inten    --     0.3318                 1.2096                 0.3978
 Raman Activ --     0.0000                 0.0000                 0.0000
 Depolar     --     0.0000                 0.0000                 0.0000
 Atom AN      X      Y      Z        X      Y      Z        X      Y      Z
   1   6    -0.01   0.06  -0.08     0.11   0.06  -0.01     0.02  -0.02   0.01
   2   6     0.02  -0.00   0.01     0.06  -0.03  -0.02     0.02   0.00   0.05
   3   6     0.07  -0.08   0.11     0.07  -0.11  -0.06     0.01  -0.01   0.14
   4   6    -0.02  -0.00   0.00    -0.03  -0.00   0.00     0.00   0.03  -0.01
   5   6     0.02  -0.03   0.02     0.02   0.01  -0.02    -0.02   0.06  -0.03
   6   6    -0.00  -0.04  -0.05     0.04  -0.00   0.00    -0.03   0.06   0.07
   7   6     0.05   0.00   0.00    -0.03  -0.00   0.02    -0.06   0.08  -0.04
   8   6     0.00  -0.00   0.10     0.04   0.04  -0.07     0.02  -0.00  -0.06
   9   1    -0.02   0.14   0.05    -0.40  -0.06   0.00    -0.05  -0.07  -0.02
  10   1     0.19  -0.15   0.14     0.01  -0.04  -0.23    -0.08   0.06  -0.09
  11   1    -0.11  -0.21   0.12    -0.08  -0.09   0.29     0.04   0.09   0.01
  12   1    -0.03  -0.03  -0.01    -0.01   0.01   0.00    -0.02  -0.01   0.01
  13   1    -0.06  -0.23  -0.25    -0.13  -0.09   0.30     0.02  -0.17  -0.41
  14   1    -0.25   0.27  -0.35     0.13   0.17  -0.18    -0.30   0.15  -0.21
  15   1     0.04   0.27   0.14    -0.30   0.33   0.11     0.21   0.05   0.06
  16   1     0.02   0.03   0.01     0.01   0.02   0.01    -0.04  -0.07  -0.03
  17   1     0.02   0.02  -0.03     0.01   0.01  -0.02     0.02  -0.05   0.06
  18   1    -0.03   0.15   0.10     0.02  -0.02   0.08     0.04  -0.23  -0.20
  19   1     0.12   0.08   0.01    -0.07  -0.04  -0.07    -0.13  -0.10   0.07
  20   1    -0.07  -0.06   0.05    -0.12   0.05   0.02     0.20   0.04  -0.09
  21   1    -0.16   0.02   0.01     0.07  -0.03  -0.02     0.27   0.06   0.05
  22   1    -0.03  -0.04   0.08     0.03   0.04  -0.07    -0.15  -0.10  -0.06
  23   1    -0.02   0.03  -0.12     0.00   0.01   0.03     0.12  -0.28   0.18
  24   1    -0.02   0.02  -0.31    -0.02   0.07   0.25     0.00   0.02   0.20
  25   1     0.20   0.02  -0.04    -0.23  -0.14   0.12    -0.15  -0.04   0.05
  26   1    -0.20  -0.02  -0.03     0.08  -0.09  -0.08     0.10  -0.02  -0.01
                     52                     53                     54
                        a                      a                      a 
 Frequencies --  1513.1832              1516.6623              1521.3162
 Red. masses --     1.6098                 1.5918                 1.5596
 Frc consts  --     0.0000                 0.0000                 0.0000
 IR Inten    --     0.2532                 1.2556                 0.7139
 Raman Activ --     0.0000                 0.0000                 0.0000
 Depolar     --     0.0000                 0.0000                 0.0000
 Atom AN      X      Y      Z        X      Y      Z        X      Y      Z
   1   6    -0.04  -0.03   0.01     0.03   0.05  -0.02     0.07  -0.09   0.11
   2   6    -0.01  -0.00   0.02     0.02   0.00  -0.01     0.03  -0.03   0.04
   3   6     0.01   0.00   0.03    -0.00  -0.01  -0.02     0.02  -0.01   0.05
   4   6    -0.00  -0.05   0.02     0.03   0.02   0.00    -0.01   0.00  -0.00
   5   6    -0.00  -0.04  -0.09    -0.11  -0.04   0.01     0.00  -0.05   0.02
   6   6    -0.03  -0.12  -0.07    -0.12  -0.01  -0.03     0.00  -0.00  -0.02
   7   6     0.04   0.03   0.01    -0.08  -0.01   0.05     0.01  -0.11   0.03
   8   6    -0.01   0.02  -0.12    -0.07  -0.07  -0.01    -0.02  -0.00   0.03
   9   1     0.15   0.00  -0.00    -0.15   0.02   0.01    -0.14  -0.26  -0.08
  10   1    -0.04   0.04   0.08     0.08  -0.08  -0.04    -0.35   0.27  -0.32
  11   1     0.05   0.08  -0.12    -0.07  -0.12   0.13     0.17   0.37  -0.05
  12   1    -0.02  -0.03  -0.01    -0.04  -0.01  -0.01    -0.02   0.01   0.02
  13   1     0.01  -0.04  -0.10    -0.01   0.01   0.06    -0.02  -0.10  -0.15
  14   1    -0.08   0.03  -0.05     0.04   0.01  -0.00    -0.12   0.09  -0.12
  15   1     0.06   0.01   0.01    -0.03   0.03   0.01     0.07   0.06   0.04
  16   1    -0.02   0.13   0.05     0.00  -0.03  -0.01     0.01   0.03   0.01
  17   1     0.06   0.09  -0.11    -0.02  -0.01   0.02     0.02   0.01  -0.02
  18   1    -0.11   0.41   0.17    -0.07   0.13  -0.17    -0.01   0.05   0.03
  19   1     0.34   0.23   0.01     0.26   0.15   0.26     0.03   0.03  -0.01
  20   1    -0.10  -0.16   0.13     0.32  -0.22   0.01    -0.02  -0.02   0.02
  21   1    -0.09   0.05   0.03     0.27  -0.16  -0.10    -0.15  -0.08  -0.06
  22   1    -0.07  -0.07   0.08     0.13   0.15  -0.26     0.25   0.19   0.01
  23   1     0.02  -0.05  -0.07    -0.01   0.07   0.17    -0.13   0.33  -0.08
  24   1     0.03  -0.03   0.43     0.07  -0.18  -0.01     0.01  -0.03  -0.11
  25   1    -0.29  -0.02   0.07     0.11   0.25  -0.17     0.10   0.04  -0.04
  26   1     0.28   0.01   0.03     0.15   0.22   0.20    -0.04   0.03   0.02
                     55                     56                     57
                        a                      a                      a 
 Frequencies --  2941.6349              2950.3421              2965.5774
 Red. masses --     1.7518                 1.9579                 1.4937
 Frc consts  --     0.0000                 0.0000                 0.0000
 IR Inten    --    33.3499               129.1745                72.4463
 Raman Activ --     0.0000                 0.0000                 0.0000
 Depolar     --     0.0000                 0.0000                 0.0000
 Atom AN      X      Y      Z        X      Y      Z        X      Y      Z
   1   6    -0.00  -0.01   0.00    -0.01   0.01  -0.01    -0.00  -0.00   0.00
   2   6     0.02   0.09  -0.22    -0.01  -0.03   0.09    -0.00   0.01  -0.01
   3   6     0.01  -0.00   0.01    -0.00  -0.00  -0.01     0.00  -0.01   0.00
   4   6    -0.00   0.03   0.10    -0.01   0.10   0.26     0.02   0.19  -0.09
   5   6     0.00   0.00   0.00     0.00   0.00   0.01     0.00   0.01  -0.00
   6   6     0.00  -0.00  -0.00    -0.01  -0.00  -0.00     0.00  -0.00  -0.00
   7   6     0.00   0.00  -0.00     0.01   0.00  -0.01     0.00  -0.00   0.00
   8   6    -0.00  -0.00  -0.00    -0.00  -0.00  -0.00    -0.01  -0.01   0.00
   9   1    -0.00   0.01  -0.03     0.00  -0.01   0.03    -0.00   0.00  -0.01
  10   1     0.02   0.02  -0.00    -0.01  -0.00  -0.00     0.00   0.00  -0.00
  11   1    -0.01   0.00  -0.00     0.02  -0.01   0.00     0.01  -0.00   0.00
  12   1    -0.08  -0.35   0.82     0.03   0.13  -0.32    -0.01  -0.01   0.03
  13   1    -0.02   0.02  -0.00     0.01  -0.00   0.00    -0.01   0.01  -0.00
  14   1     0.00  -0.02  -0.01    -0.00   0.02   0.01    -0.00   0.02   0.02
  15   1     0.01   0.02  -0.04    -0.00  -0.01   0.02     0.00   0.01  -0.03
  16   1     0.02   0.09  -0.22     0.04   0.21  -0.49    -0.06  -0.24   0.72
  17   1    -0.01  -0.20  -0.15    -0.01  -0.56  -0.43    -0.01  -0.45  -0.40
  18   1    -0.00  -0.00   0.00     0.01   0.00  -0.00    -0.01  -0.00   0.00
  19   1    -0.00   0.01   0.00     0.00  -0.00  -0.00    -0.00   0.00   0.00
  20   1     0.00   0.00   0.00     0.00   0.01   0.01     0.00   0.00   0.00
  21   1     0.00  -0.00   0.00    -0.00  -0.01   0.01     0.00   0.01  -0.01
  22   1    -0.00   0.00  -0.00    -0.00   0.00   0.00     0.00  -0.00   0.00
  23   1    -0.00  -0.00   0.00    -0.02  -0.01   0.00    -0.01  -0.00   0.00
  24   1     0.01   0.00  -0.00     0.01   0.00  -0.00     0.01   0.00   0.00
  25   1     0.00   0.00   0.00     0.00   0.01   0.01     0.00   0.01   0.02
  26   1    -0.00  -0.00   0.00    -0.00   0.00  -0.00     0.00   0.02  -0.02
                     58                     59                     60
                        a                      a                      a 
 Frequencies --  3016.7838              3018.2228              3019.5284
 Red. masses --     1.9214                 1.8987                 1.9358
 Frc consts  --     0.0000                 0.0000                 0.0000
 IR Inten    --    46.5206                42.7142                21.1884
 Raman Activ --     0.0000                 0.0000                 0.0000
 Depolar     --     0.0000                 0.0000                 0.0000
 Atom AN      X      Y      Z        X      Y      Z        X      Y      Z
   1   6    -0.19   0.05  -0.07    -0.15   0.04  -0.04    -0.00   0.00  -0.00
   2   6    -0.00   0.00  -0.01    -0.00   0.00  -0.01    -0.00   0.00  -0.00
   3   6     0.04  -0.04  -0.04     0.04  -0.05  -0.03    -0.01   0.02  -0.02
   4   6     0.00  -0.00   0.00     0.00  -0.01  -0.01    -0.00  -0.00  -0.00
   5   6    -0.00  -0.00   0.00     0.00   0.00  -0.00    -0.00  -0.00  -0.00
   6   6     0.04   0.03   0.02    -0.08  -0.04  -0.03     0.07   0.05   0.05
   7   6    -0.13  -0.08   0.08     0.15   0.10  -0.08     0.02  -0.04   0.04
   8   6     0.03   0.02   0.01    -0.04  -0.03  -0.02    -0.15  -0.11  -0.19
   9   1    -0.02  -0.07   0.18    -0.02  -0.03   0.09     0.00  -0.00   0.01
  10   1     0.10   0.14  -0.04     0.06   0.10  -0.02    -0.01  -0.01   0.00
  11   1     0.60  -0.25   0.10     0.49  -0.20   0.08     0.01  -0.00   0.00
  12   1    -0.00  -0.01   0.02    -0.00  -0.01   0.02    -0.00  -0.00   0.00
  13   1    -0.11   0.07  -0.04    -0.14   0.09  -0.05     0.06  -0.04   0.01
  14   1    -0.02   0.12   0.11    -0.02   0.11   0.10     0.00  -0.01  -0.01
  15   1    -0.00  -0.04   0.07     0.00  -0.03   0.04    -0.01  -0.03   0.07
  16   1     0.00   0.00  -0.01    -0.00  -0.01   0.01     0.00   0.00  -0.01
  17   1    -0.00   0.00   0.00     0.00   0.03   0.02     0.00   0.02   0.01
  18   1    -0.14  -0.04   0.02     0.23   0.07  -0.04    -0.20  -0.06   0.03
  19   1     0.02  -0.01   0.00     0.00  -0.03  -0.01     0.02   0.00   0.01
  20   1    -0.03  -0.06  -0.10     0.04   0.08   0.14    -0.07  -0.13  -0.22
  21   1    -0.01   0.17  -0.23     0.01  -0.18   0.24     0.01   0.13  -0.18
  22   1     0.01  -0.05   0.01     0.01   0.03  -0.01    -0.03   0.03   0.01
  23   1     0.45   0.16  -0.05    -0.55  -0.19   0.06    -0.06  -0.03   0.01
  24   1    -0.09  -0.04   0.00     0.13   0.05  -0.01     0.44   0.18  -0.04
  25   1    -0.01  -0.04  -0.07     0.01   0.05   0.09     0.11   0.34   0.59
  26   1     0.00  -0.00   0.01    -0.00   0.00  -0.01    -0.04  -0.14   0.12
                     61                     62                     63
                        a                      a                      a 
 Frequencies --  3020.2740              3021.0330              3022.3891
 Red. masses --     1.9323                 1.9396                 1.9349
 Frc consts  --     0.0000                 0.0000                 0.0000
 IR Inten    --    11.2953                57.3587               150.8399
 Raman Activ --     0.0000                 0.0000                 0.0000
 Depolar     --     0.0000                 0.0000                 0.0000
 Atom AN      X      Y      Z        X      Y      Z        X      Y      Z
   1   6    -0.00  -0.00   0.01    -0.02   0.04  -0.07    -0.05   0.03  -0.04
   2   6    -0.00   0.00  -0.00    -0.00  -0.00   0.02    -0.01   0.01  -0.01
   3   6    -0.01   0.01  -0.06    -0.00  -0.02   0.27    -0.14   0.20  -0.00
   4   6    -0.00  -0.00   0.00    -0.00  -0.00   0.00     0.00   0.00  -0.00
   5   6     0.00  -0.00   0.00     0.00  -0.00   0.00    -0.01  -0.00   0.00
   6   6     0.16   0.01  -0.01     0.03   0.01   0.00    -0.10  -0.04  -0.04
   7   6     0.02   0.03  -0.04     0.01   0.00  -0.00    -0.03  -0.01   0.02
   8   6    -0.09  -0.10   0.18    -0.03  -0.03   0.03    -0.04  -0.04   0.03
   9   1    -0.00   0.01  -0.03     0.01  -0.09   0.23     0.00  -0.05   0.14
  10   1    -0.00  -0.00   0.00    -0.04  -0.03  -0.00     0.01   0.03  -0.01
  11   1     0.02  -0.01   0.00     0.11  -0.04   0.01     0.17  -0.07   0.02
  12   1    -0.00  -0.00   0.00     0.00   0.01  -0.04    -0.00  -0.01   0.02
  13   1     0.06  -0.04   0.01    -0.14   0.09   0.00     0.50  -0.30   0.15
  14   1    -0.01   0.06   0.04     0.07  -0.35  -0.27     0.05  -0.34  -0.34
  15   1    -0.02  -0.07   0.16     0.08   0.31  -0.68    -0.05  -0.06   0.21
  16   1     0.00   0.00  -0.01     0.00   0.00  -0.02    -0.00  -0.01   0.02
  17   1     0.00   0.01   0.01     0.00   0.01   0.01     0.00  -0.01  -0.01
  18   1    -0.46  -0.15   0.06    -0.11  -0.03   0.02     0.28   0.08  -0.04
  19   1    -0.08   0.15   0.03    -0.00   0.02   0.00     0.02  -0.05  -0.01
  20   1    -0.00  -0.04  -0.07    -0.01  -0.02  -0.04     0.05   0.11   0.18
  21   1    -0.00  -0.10   0.13     0.00  -0.00   0.01    -0.00   0.03  -0.04
  22   1     0.01  -0.00  -0.01    -0.00   0.00   0.00     0.01  -0.02  -0.00
  23   1    -0.07  -0.02   0.00    -0.02  -0.01   0.00     0.11   0.04  -0.01
  24   1     0.37   0.14   0.02     0.11   0.04   0.00     0.13   0.05   0.00
  25   1    -0.07  -0.16  -0.22    -0.01  -0.01  -0.01    -0.00  -0.00   0.01
  26   1     0.03   0.37  -0.44     0.00   0.07  -0.09     0.01   0.10  -0.12
                     64                     65                     66
                        a                      a                      a 
 Frequencies --  3023.4719              3028.0594              3029.1279
 Red. masses --     1.9202                 1.6033                 1.7021
 Frc consts  --     0.0000                 0.0000                 0.0000
 IR Inten    --   196.9982               108.6741                23.9469
 Raman Activ --     0.0000                 0.0000                 0.0000
 Depolar     --     0.0000                 0.0000                 0.0000
 Atom AN      X      Y      Z        X      Y      Z        X      Y      Z
   1   6     0.03  -0.03   0.03     0.01   0.00  -0.00    -0.02  -0.02   0.04
   2   6     0.00  -0.01   0.00     0.00  -0.00  -0.00    -0.00  -0.00   0.01
   3   6     0.07  -0.10   0.00     0.00  -0.00  -0.00    -0.00   0.01   0.02
   4   6    -0.00  -0.01   0.00    -0.00  -0.00   0.00    -0.00  -0.00   0.00
   5   6    -0.01  -0.01   0.00     0.00  -0.00   0.01     0.00  -0.00  -0.01
   6   6    -0.14  -0.07  -0.07    -0.03   0.02   0.04     0.09  -0.12  -0.17
   7   6    -0.08  -0.05   0.04     0.11  -0.10   0.14     0.01  -0.03   0.04
   8   6    -0.11  -0.11   0.04    -0.00   0.03   0.09    -0.01   0.06  -0.06
   9   1    -0.00   0.03  -0.09     0.00  -0.00   0.01    -0.01   0.06  -0.16
  10   1     0.02   0.01   0.00    -0.01  -0.02   0.00     0.03   0.03  -0.00
  11   1    -0.14   0.05  -0.02    -0.03   0.01  -0.01     0.06  -0.03   0.02
  12   1     0.00   0.00  -0.01    -0.00  -0.00   0.00     0.00   0.01  -0.01
  13   1    -0.25   0.15  -0.07    -0.02   0.01  -0.01    -0.00   0.00   0.00
  14   1    -0.02   0.17   0.17    -0.00   0.01   0.00     0.01  -0.06  -0.05
  15   1     0.02   0.03  -0.11    -0.00  -0.01   0.01     0.00   0.01  -0.01
  16   1     0.00   0.01  -0.02     0.00   0.00  -0.01    -0.00   0.00  -0.00
  17   1     0.00   0.02   0.02    -0.00  -0.00  -0.00     0.00   0.00   0.00
  18   1     0.39   0.12  -0.06     0.13   0.05  -0.01    -0.37  -0.14   0.03
  19   1     0.00  -0.05  -0.02     0.04  -0.06  -0.01    -0.17   0.23   0.02
  20   1     0.10   0.19   0.32    -0.05  -0.07  -0.11     0.23   0.34   0.56
  21   1    -0.01   0.09  -0.13     0.05   0.45  -0.60     0.01   0.12  -0.16
  22   1     0.00  -0.03   0.00    -0.05   0.07   0.03    -0.00   0.00   0.01
  23   1     0.30   0.10  -0.03    -0.40  -0.17   0.07    -0.06  -0.03   0.01
  24   1     0.37   0.14  -0.01     0.08   0.03   0.01     0.06   0.03  -0.01
  25   1     0.01   0.04   0.11    -0.07  -0.17  -0.29    -0.01  -0.01  -0.05
  26   1     0.01   0.20  -0.26     0.00   0.04  -0.03    -0.03  -0.22   0.27
                     67                     68                     69
                        a                      a                      a 
 Frequencies --  3029.7135              3034.7014              3035.5609
 Red. masses --     1.7320                 1.2823                 1.2996
 Frc consts  --     0.0000                 0.0000                 0.0000
 IR Inten    --   135.1370               103.4212                64.1420
 Raman Activ --     0.0000                 0.0000                 0.0000
 Depolar     --     0.0000                 0.0000                 0.0000
 Atom AN      X      Y      Z        X      Y      Z        X      Y      Z
   1   6    -0.08  -0.10   0.20    -0.02  -0.01   0.02    -0.03  -0.02   0.03
   2   6    -0.00  -0.01   0.02    -0.00  -0.00  -0.00    -0.00  -0.00   0.00
   3   6     0.00   0.04   0.07    -0.09  -0.05  -0.01    -0.09  -0.05  -0.01
   4   6     0.00   0.00   0.00     0.00   0.00  -0.00    -0.00  -0.01   0.00
   5   6    -0.00   0.00   0.00    -0.00   0.00   0.00     0.00  -0.00   0.00
   6   6    -0.01   0.03   0.04    -0.02   0.03   0.03     0.03  -0.04  -0.03
   7   6    -0.01   0.01  -0.00    -0.02   0.02  -0.03     0.03  -0.02   0.03
   8   6    -0.00  -0.01   0.01    -0.07   0.06   0.00     0.07  -0.07  -0.00
   9   1    -0.06   0.29  -0.79    -0.01   0.03  -0.09    -0.01   0.03  -0.10
  10   1     0.14   0.14   0.00     0.04   0.04  -0.00     0.06   0.07  -0.01
  11   1     0.20  -0.10   0.07     0.04  -0.02   0.01     0.05  -0.03   0.01
  12   1     0.00   0.02  -0.04    -0.00  -0.00   0.00    -0.00  -0.00   0.00
  13   1    -0.05   0.04  -0.00     0.37  -0.24   0.11     0.35  -0.23   0.10
  14   1     0.04  -0.21  -0.18    -0.07   0.29   0.27    -0.06   0.26   0.25
  15   1     0.01   0.03  -0.05     0.03   0.14  -0.33     0.03   0.13  -0.32
  16   1    -0.00   0.01  -0.01    -0.00  -0.00   0.00     0.00   0.01  -0.02
  17   1     0.00  -0.01  -0.01    -0.00  -0.00  -0.00     0.00   0.02   0.02
  18   1     0.06   0.02  -0.00     0.07   0.03  -0.01    -0.06  -0.03   0.00
  19   1     0.04  -0.05  -0.00     0.05  -0.07  -0.01    -0.08   0.11   0.02
  20   1    -0.06  -0.09  -0.14    -0.04  -0.05  -0.09     0.03   0.04   0.08
  21   1    -0.00  -0.01   0.01    -0.01  -0.08   0.11     0.01   0.10  -0.13
  22   1     0.02  -0.02  -0.00     0.01  -0.01  -0.01    -0.01   0.01   0.01
  23   1     0.02   0.01  -0.00     0.08   0.03  -0.01    -0.11  -0.05   0.02
  24   1    -0.00  -0.00   0.00     0.36   0.16  -0.01    -0.38  -0.17   0.01
  25   1    -0.00  -0.00  -0.00    -0.07  -0.16  -0.29     0.07   0.16   0.29
  26   1     0.00   0.04  -0.04    -0.04  -0.23   0.29     0.04   0.24  -0.30
                     70                     71                     72
                        a                      a                      a 
 Frequencies --  3044.4807              3046.0787              3072.6323
 Red. masses --     1.4345                 1.4865                 1.6164
 Frc consts  --     0.0000                 0.0000                 0.0000
 IR Inten    --    35.7540                35.8434                51.9601
 Raman Activ --     0.0000                 0.0000                 0.0000
 Depolar     --     0.0000                 0.0000                 0.0000
 Atom AN      X      Y      Z        X      Y      Z        X      Y      Z
   1   6    -0.00   0.01  -0.00    -0.10  -0.18  -0.00     0.01   0.02  -0.00
   2   6     0.00  -0.00   0.00    -0.00  -0.01   0.01     0.00   0.00  -0.00
   3   6     0.00   0.00   0.00     0.00   0.01   0.01    -0.00  -0.00  -0.00
   4   6     0.00   0.00   0.00    -0.00   0.00  -0.00    -0.00  -0.00   0.00
   5   6     0.00  -0.01   0.00     0.00   0.00  -0.00    -0.00   0.01   0.00
   6   6     0.07  -0.18   0.03     0.01   0.00   0.00    -0.00   0.01   0.00
   7   6    -0.02   0.01   0.00    -0.00   0.02  -0.00    -0.13   0.19   0.05
   8   6    -0.01   0.01  -0.01    -0.00   0.00  -0.00    -0.00  -0.00  -0.00
   9   1     0.00  -0.00   0.01    -0.01  -0.09   0.17     0.00  -0.00   0.00
  10   1    -0.02  -0.02   0.00     0.62   0.65  -0.12    -0.06  -0.06   0.01
  11   1     0.02  -0.01   0.00    -0.27   0.08  -0.04    -0.01   0.01  -0.00
  12   1    -0.00   0.00  -0.01     0.00   0.01  -0.02    -0.00  -0.00   0.00
  13   1    -0.02   0.01  -0.00    -0.02   0.02  -0.00     0.00  -0.00   0.00
  14   1     0.00  -0.02  -0.02     0.01  -0.04  -0.04    -0.00   0.01   0.01
  15   1    -0.00  -0.00   0.01    -0.00  -0.00   0.01     0.00   0.00  -0.00
  16   1    -0.00  -0.00   0.00    -0.00  -0.00   0.00     0.00   0.00  -0.01
  17   1     0.00  -0.00  -0.00    -0.00  -0.00  -0.00    -0.00  -0.00  -0.00
  18   1     0.31   0.07  -0.04    -0.01  -0.00   0.00    -0.02  -0.00   0.00
  19   1    -0.52   0.71   0.12    -0.01   0.02   0.00     0.04  -0.05  -0.01
  20   1    -0.06  -0.14  -0.19    -0.01  -0.01  -0.02    -0.00   0.00  -0.00
  21   1    -0.00   0.01  -0.01    -0.00  -0.00   0.01    -0.02   0.07  -0.06
  22   1     0.04  -0.05  -0.01     0.05  -0.06  -0.01     0.59  -0.74  -0.13
  23   1     0.04   0.01  -0.00    -0.05  -0.01   0.01    -0.11  -0.01   0.01
  24   1     0.04   0.02  -0.00     0.01   0.01  -0.00     0.01   0.00  -0.00
  25   1    -0.01  -0.01  -0.02    -0.00  -0.01  -0.01     0.00   0.01   0.02
  26   1    -0.00  -0.04   0.05    -0.00  -0.01   0.02    -0.00  -0.00   0.00
