
                                 *****************
                                 * O   R   C   A *
                                 *****************

                                            #,                                       
                                            ###                                      
                                            ####                                     
                                            #####                                    
                                            ######                                   
                                           ########,                                 
                                     ,,################,,,,,                         
                               ,,#################################,,                 
                          ,,##########################################,,             
                       ,#########################################, ''#####,          
                    ,#############################################,,   '####,        
                  ,##################################################,,,,####,       
                ,###########''''           ''''###############################       
              ,#####''   ,,,,##########,,,,          '''####'''          '####       
            ,##' ,,,,###########################,,,                        '##       
           ' ,,###''''                  '''############,,,                           
         ,,##''                                '''############,,,,        ,,,,,,###''
      ,#''                                            '''#######################'''  
     '                                                          ''''####''''         
             ,#######,   #######,   ,#######,      ##                                
            ,#'     '#,  ##    ##  ,#'     '#,    #''#        ,####,   ,####,        
            ##       ##  ##   ,#'  ##            #'  '#       #'       #'  '#        
            ##       ##  #######   ##           ,######,      #####,   #    #        
            '#,     ,#'  ##    ##  '#,     ,#' ,#      #,     #,   #   #,  ,#        
             '#######'   ##     ##  '#######'  #'      '#     '####' # '####'        



                #########################################################
                #                        -***-                          #
                #          Department of theory and spectroscopy        #
                #                                                       #
                #                      Frank Neese                      #
                #                                                       #
                #     Directorship, Architecture, Infrastructure        #
                #                    SHARK, DRIVERS                     #
                #        Core code/Algorithms in most modules           #
                #                                                       #
                #        Max Planck Institute fuer Kohlenforschung      #
                #                Kaiser Wilhelm Platz 1                 #
                #                 D-45470 Muelheim/Ruhr                 #
                #                      Germany                          #
                #                                                       #
                #                  All rights reserved                  #
                #                        -***-                          #
                #########################################################


                         Program Version 6.0.0  -   RELEASE  -


 With contributions from (in alphabetic order):
   Daniel Aravena         : Magnetic Suceptibility
   Michael Atanasov       : Ab Initio Ligand Field Theory (pilot matlab implementation)
   Alexander A. Auer      : GIAO ZORA, VPT2 properties, NMR spectrum
   Ute Becker             : All parallelization in ORCA, NUMFREQ, NUMCALC
   Giovanni Bistoni       : ED, misc. LED, open-shell LED, HFLD
   Martin Brehm           : Molecular dynamics
   Dmytro Bykov           : pre 5.0 version of the SCF Hessian
   Marcos Casanova-Páez   : Triplet and SCS-CIS(D). UHF-(DLPNO)-IP/EA/STEOM-CCSD. UHF-CVS-IP/STEOM-CCSD
   Vijay G. Chilkuri      : MRCI spin determinant printing, contributions to CSF-ICE
   Pauline Colinet        : FMM embedding
   Dipayan Datta          : RHF DLPNO-CCSD density
   Achintya Kumar Dutta   : EOM-CC, STEOM-CC
   Nicolas Foglia         : Exact transition moments, OPA infrastructure, MCD improvements
   Dmitry Ganyushin       : Spin-Orbit,Spin-Spin,Magnetic field MRCI
   Miquel Garcia          : C-PCM and meta-GGA Hessian, CCSD/C-PCM, Gaussian charge scheme
   Tiago L. C. Gouveia    : GS-ROHF, GS-ROCIS
   Yang Guo               : DLPNO-NEVPT2, F12-NEVPT2, CIM, IAO-localization
   Andreas Hansen         : Spin unrestricted coupled pair/coupled cluster methods
   Ingolf Harden          : AUTO-CI MPn and infrastructure 
   Benjamin Helmich-Paris : MC-RPA, TRAH-(SCF,CASSCF), AVAS, COSX integrals, SCF dyn. polar.
   Lee Huntington         : MR-EOM, pCC
   Robert Izsak           : Overlap fitted RIJCOSX, COSX-SCS-MP3, EOM
   Riya Kayal             : Wick's Theorem for AUTO-CI, AUTO-CI UHF-CCSDT
   Emily Kempfer          : AUTO-CI, RHF CISDT and CCSDT
   Christian Kollmar      : KDIIS, OOCD, Brueckner-CCSD(T), CCSD density, CASPT2, CASPT2-K, improved NEVPT2
   Axel Koslowski         : Symmetry handling
   Simone Kossmann        : Meta GGA functionals, TD-DFT gradient, OOMP2, (MP2 Hessian; deprecated post 5.0)
   Lucas Lang             : DCDCAS
   Marvin Lechner         : AUTO-CI (C++ implementation), FIC-MRCC
   Spencer Leger          : CASSCF response
   Dagmar Lenk            : GEPOL surface, SMD, ORCA-2-JSON
   Dimitrios Liakos       : Extrapolation schemes; Compound Job, initial MDCI parallelization
   Dimitrios Manganas     : Further ROCIS development; embedding schemes. LFT, Crystal Embedding
   Dimitrios Pantazis     : SARC Basis sets
   Anastasios Papadopoulos: AUTO-CI, single reference methods and gradients
   Taras Petrenko         : pre 6.0 DFT Hessian and TD-DFT gradient, (ASA, deprecated), ECA, 1-Electron XAS/XES, NRVS
   Peter Pinski           : DLPNO-MP2, DLPNO-MP2 Gradient
   Christoph Reimann      : Effective Core Potentials
   Marius Retegan         : Local ZFS, SOC
   Christoph Riplinger    : Optimizer, TS searches, QM/MM, DLPNO-CCSD(T), (RO)-DLPNO pert. Triples
   Michael Roemelt        : Original ROCIS implementation
   Masaaki Saitow         : Open-shell DLPNO-CCSD energy and density
   Barbara Sandhoefer     : DKH picture change effects
   Kantharuban Sivalingam : CASSCF convergence/infrastructure, NEVPT2 and variants, FIC-MRCI
   Bernardo de Souza      : ESD, SOC TD-DFT
   Georgi Stoychev        : AutoAux, RI-MP2 NMR, DLPNO-MP2 response, X2C
   Van Anh Tran           : RI-MP2 g-tensors
   Willem Van den Heuvel  : Paramagnetic NMR
   Zikuan Wang            : NOTCH, Electric field optimization 
   Frank Wennmohs         : Technical directorship and infrastructure
   Hang Xu                : AUTO-CI-Response properties 


 We gratefully acknowledge several colleagues who have allowed us to
 interface, adapt or use parts of their codes:
   Stefan Grimme, W. Hujo, H. Kruse, P. Pracht,  : VdW corrections, initial TS optimization,
                  C. Bannwarth, S. Ehlert,         DFT functionals, gCP, sTDA/sTD-DF
                  L. Wittmann, M. Mueller
   Ed Valeev, F. Pavosevic, A. Kumar             : LibInt (2-el integral package), F12 methods
   Garnet Chan, S. Sharma, J. Yang, R. Olivares  : DMRG
   Ulf Ekstrom                                   : XCFun DFT Library
   Mihaly Kallay                                 : mrcc  (arbitrary order and MRCC methods)
   Frank Weinhold                                : gennbo (NPA and NBO analysis)
   Simon Mueller                                 : openCOSMO-RS
   Christopher J. Cramer and Donald G. Truhlar   : smd solvation model
   Lars Goerigk                                  : TD-DFT with DH, B97 family of functionals
   V. Asgeirsson, H. Jonsson                     : NEB implementation
   FAccTs GmbH                                   : IRC, NEB, NEB-TS, DLPNO-Multilevel, CI-OPT
                                                   MM, QMMM, 2- and 3-layer-ONIOM, Crystal-QMMM,
                                                   LR-CPCM, SF, NACMEs, symmetry and pop. for TD-DFT,
                                                   nearIR, NL-DFT gradient (VV10), updates on ESD,
                                                   ML-optimized integration grids, MBIS, APM,
                                                   GOAT, DOCKER, SOLVATOR, interface openCOSMO-RS
   S Lehtola, MJT Oliveira, MAL Marques          : LibXC Library
   Liviu Ungur et al                             : ANISO software


 Your calculation uses the libint2 library for the computation of 2-el integrals
 For citations please refer to: http://libint.valeyev.net

 Your ORCA version has been built with support for libXC version: 6.2.2
 For citations please refer to: https://libxc.gitlab.io

 This ORCA versions uses:
   CBLAS   interface :  Fast vector & matrix operations
   LAPACKE interface :  Fast linear algebra routines
   SCALAPACK package :  Parallel linear algebra routines
   Shared memory     :  Shared parallel matrices
   BLAS/LAPACK       :  OpenBLAS 0.3.27  USE64BITINT DYNAMIC_ARCH NO_AFFINITY SkylakeX SINGLE_THREADED
        Core in use  :  SkylakeX
   Copyright (c) 2011-2014, The OpenBLAS Project


Your calculation utilizes the geometrical counterpoise correction gCP
Please cite in your paper:
H.Kruse, S. Grimme J.Chem.Phys., 136, (2012), 154101 
   

Your calculation utilizes the DFT-NL dispersion correction.
Cite in your paper:
Vydrov, O. A.; Van Voorhis, T. J. Chem. Phys. 2010, 133, 244103
Hujo, W.; Grimme, S. J. Chem. Theory Comput. 2011, 7, 3866 
   

Your calculation utilizes the SMD solvation module
Please cite in your paper:
A.V. Marenich, C.J. Cramer, D.G. Truhlar J. Phys. Chem. B, 113, (2009), 6378 

================================================================================

----- Orbital basis set information -----
Your calculation utilizes the basis: def2-TZVP
   F. Weigend and R. Ahlrichs, Phys. Chem. Chem. Phys. 7, 3297 (2005).

----- AuxJ basis set information -----
Your calculation utilizes the auxiliary basis: def2/J
   F. Weigend, Phys. Chem. Chem. Phys. 8, 1057 (2006).

================================================================================
                                        WARNINGS
                       Please study these warnings very carefully!
================================================================================


================================================================================
                                       INPUT FILE
================================================================================
NAME = sp_solv.inp
|  1> ! wb97x-v def2-tzvp def2/J RIJCOSX DEFGRID2 scfconv7 GCP(DFT/TZ) printgap
|  2> %output
|  3>     printlevel normal
|  4> end
|  5> %cpcm
|  6>     smd true
|  7>     smdsolvent "water"
|  8> end
|  9> * xyz 0 1
| 10> C -1.0110984849396578 -1.8062783320405886 -6.497099544530795e-05
| 11> C 0.36654275603622 -1.6101312112136072 8.298079750683929e-05
| 12> C 0.8733733433752339 -0.30630463376475 0.00019899123457315607
| 13> C 0.01302808279758813 0.798771619722678 -4.477503212244617e-05
| 14> C -1.3584634984854576 0.5846698114185153 -9.452324353441672e-05
| 15> C -1.8738059967863485 -0.7178354284988332 -0.00010427720012192717
| 16> O -2.266359816631972 1.612606506795112 -6.82542120005624e-05
| 17> C 2.327454114675732 -0.12342868475639075 0.000992834479935791
| 18> O 2.8937487341592 0.9639721919128817 -0.0002045008809498116
| 19> H -1.4203644019286323 -2.8110272815404254 -0.0001021799806959959
| 20> H 1.0493250118982609 -2.4541972338062314 0.0001117323239677632
| 21> H 0.4169732899064556 1.8071224642638088 5.1509063138140025e-05
| 22> H -2.94978706345483 -0.8597625808316782 -0.00014392498934421362
| 23> H -1.792564554468544 2.4566006854634868 -3.253391718077934e-05
| 24> H 2.9162338477109406 -1.0613268440202173 -0.0009067586432213083
| 25> *
| 26> 
| 27>                          ****END OF INPUT****
================================================================================

                       ****************************
                       * Single Point Calculation *
                       ****************************

---------------------------------
CARTESIAN COORDINATES (ANGSTROEM)
---------------------------------
  C     -1.011098   -1.806278   -0.000065
  C      0.366543   -1.610131    0.000083
  C      0.873373   -0.306305    0.000199
  C      0.013028    0.798772   -0.000045
  C     -1.358463    0.584670   -0.000095
  C     -1.873806   -0.717835   -0.000104
  O     -2.266360    1.612607   -0.000068
  C      2.327454   -0.123429    0.000993
  O      2.893749    0.963972   -0.000205
  H     -1.420364   -2.811027   -0.000102
  H      1.049325   -2.454197    0.000112
  H      0.416973    1.807122    0.000052
  H     -2.949787   -0.859763   -0.000144
  H     -1.792565    2.456601   -0.000033
  H      2.916234   -1.061327   -0.000907

----------------------------
CARTESIAN COORDINATES (A.U.)
----------------------------
  NO LB      ZA    FRAG     MASS         X           Y           Z
   0 C     6.0000    0    12.011   -1.910699   -3.413371   -0.000123
   1 C     6.0000    0    12.011    0.692665   -3.042707    0.000157
   2 C     6.0000    0    12.011    1.650436   -0.578832    0.000376
   3 C     6.0000    0    12.011    0.024620    1.509460   -0.000085
   4 C     6.0000    0    12.011   -2.567124    1.104866   -0.000179
   5 C     6.0000    0    12.011   -3.540980   -1.356512   -0.000197
   6 O     8.0000    0    15.999   -4.282799    3.047385   -0.000129
   7 C     6.0000    0    12.011    4.398251   -0.233246    0.001876
   8 O     8.0000    0    15.999    5.468393    1.821643   -0.000386
   9 H     1.0000    0     1.008   -2.684100   -5.312072   -0.000193
  10 H     1.0000    0     1.008    1.982937   -4.637761    0.000211
  11 H     1.0000    0     1.008    0.787965    3.414967    0.000097
  12 H     1.0000    0     1.008   -5.574290   -1.624716   -0.000272
  13 H     1.0000    0     1.008   -3.387456    4.642303   -0.000061
  14 H     1.0000    0     1.008    5.510883   -2.005617   -0.001714

--------------------------------
INTERNAL COORDINATES (ANGSTROEM)
--------------------------------
 C      0   0   0     0.000000000000     0.00000000     0.00000000
 C      1   0   0     1.391534801482     0.00000000     0.00000000
 C      2   1   0     1.398871331389   119.34562210     0.00000000
 C      3   2   1     1.400495466912   120.85546831     0.00000000
 C      4   3   2     1.388102569814   119.02940090     0.00000000
 C      1   2   3     1.388874438822   120.29734114     0.00000000
 O      5   4   3     1.371469859274   122.57889292   179.98711947
 C      3   2   1     1.465535783384   118.41067393   179.97160206
 O      8   3   2     1.226022714410   124.67775824   179.92187206
 H      1   2   3     1.084905085118   120.26586709   180.00330588
 H      2   1   3     1.085651445097   120.86685297   179.99984721
 H      4   3   2     1.086251888516   120.26680747   179.99979304
 H      6   1   2     1.085301144370   120.88637801   180.00463900
 H      7   5   4     0.967888488076   109.23968596     0.00000000
 H      8   3   2     1.107392495747   114.95076177     0.13422664

---------------------------
INTERNAL COORDINATES (A.U.)
---------------------------
 C      0   0   0     0.000000000000     0.00000000     0.00000000
 C      1   0   0     2.629619680622     0.00000000     0.00000000
 C      2   1   0     2.643483712920   119.34562210     0.00000000
 C      3   2   1     2.646552884263   120.85546831     0.00000000
 C      4   3   2     2.623133702741   119.02940090     0.00000000
 C      1   2   3     2.624592323776   120.29734114     0.00000000
 O      5   4   3     2.591702434955   122.57889292   179.98711947
 C      3   2   1     2.769461270057   118.41067393   179.97160206
 O      8   3   2     2.316847164201   124.67775824   179.92187206
 H      1   2   3     2.050173492171   120.26586709   180.00330588
 H      2   1   3     2.051583908130   120.86685297   179.99984721
 H      4   3   2     2.052718581749   120.26680747   179.99979304
 H      6   1   2     2.050921935690   120.88637801   180.00463900
 H      7   5   4     1.829044170639   109.23968596     0.00000000
 H      8   3   2     2.092668539722   114.95076177     0.13422664

---------------------
BASIS SET INFORMATION
---------------------
There are 3 groups of distinct atoms

 Group   1 Type C   : 11s6p2d1f contracted to 5s3p2d1f pattern {62111/411/11/1}
 Group   2 Type O   : 11s6p2d1f contracted to 5s3p2d1f pattern {62111/411/11/1}
 Group   3 Type H   : 5s1p contracted to 3s1p pattern {311/1}

Atom   0C    basis set group =>   1
Atom   1C    basis set group =>   1
Atom   2C    basis set group =>   1
Atom   3C    basis set group =>   1
Atom   4C    basis set group =>   1
Atom   5C    basis set group =>   1
Atom   6O    basis set group =>   2
Atom   7C    basis set group =>   1
Atom   8O    basis set group =>   2
Atom   9H    basis set group =>   3
Atom  10H    basis set group =>   3
Atom  11H    basis set group =>   3
Atom  12H    basis set group =>   3
Atom  13H    basis set group =>   3
Atom  14H    basis set group =>   3
---------------------------------
AUXILIARY/J BASIS SET INFORMATION
---------------------------------
There are 3 groups of distinct atoms

 Group   1 Type C   : 12s5p4d2f1g contracted to 6s4p3d1f1g pattern {711111/2111/211/2/1}
 Group   2 Type O   : 12s5p4d2f1g contracted to 6s4p3d1f1g pattern {711111/2111/211/2/1}
 Group   3 Type H   : 5s2p1d contracted to 3s1p1d pattern {311/2/1}

Atom   0C    basis set group =>   1
Atom   1C    basis set group =>   1
Atom   2C    basis set group =>   1
Atom   3C    basis set group =>   1
Atom   4C    basis set group =>   1
Atom   5C    basis set group =>   1
Atom   6O    basis set group =>   2
Atom   7C    basis set group =>   1
Atom   8O    basis set group =>   2
Atom   9H    basis set group =>   3
Atom  10H    basis set group =>   3
Atom  11H    basis set group =>   3
Atom  12H    basis set group =>   3
Atom  13H    basis set group =>   3
Atom  14H    basis set group =>   3

Checking for AutoStart:
The File: sp_solv.gbw exists
Trying to determine its content:
     ... Fine, the file contains calculation information
     ... Fine, the calculation information was read
     ... Fine, the file contains a basis set
     ... Fine, the basis set was read
     ... Fine, the file contains a geometry
     ... Fine, the geometry was read
     ... Fine, the file contains a set of orbitals
     ... Fine, the orbitals can be read
     => possible old guess file was deleted
     => GBW file was renamed to GES file
     => GES file is set as startup file
     => Guess is set to MORead
     ... now leaving AutoStart

------------------------------------------------------------------------------
                             ORCA STARTUP CALCULATIONS
                           -- RI-GTO INTEGRALS CHOSEN --
------------------------------------------------------------------------------
------------------------------------------------------------------------------
                   ___                                                        
                  /   \      - P O W E R E D   B Y -                         
                 /     \                                                     
                 |  |  |   _    _      __       _____    __    __             
                 |  |  |  | |  | |    /  \     |  _  \  |  |  /  |          
                  \  \/   | |  | |   /    \    | | | |  |  | /  /          
                 / \  \   | |__| |  /  /\  \   | |_| |  |  |/  /          
                |  |  |   |  __  | /  /__\  \  |    /   |      \           
                |  |  |   | |  | | |   __   |  |    \   |  |\   \          
                \     /   | |  | | |  |  |  |  | |\  \  |  | \   \       
                 \___/    |_|  |_| |__|  |__|  |_| \__\ |__|  \__/        
                                                                              
                      - O R C A' S   B I G   F R I E N D -                    
                                      &                                       
                       - I N T E G R A L  F E E D E R -                       
                                                                              
 v1 FN, 2020, v2 2021, v3 2022-2024                                           
------------------------------------------------------------------------------


----------------------
SHARK INTEGRAL PACKAGE
----------------------

Number of atoms                             ...     15
Number of basis functions                   ...    315
Number of shells                            ...    123
Maximum angular momentum                    ...      3
Integral batch strategy                     ... SHARK/LIBINT Hybrid
RI-J (if used) integral strategy            ... SPLIT-RIJ (Revised 2003 algorithm where possible)
Printlevel                                  ...      1
Contraction scheme used                     ... SEGMENTED contraction
Prescreening option                         ... SCHWARTZ
   Thresh                                   ... 3.000e-11
   Tcut                                     ... 1.000e-12
   Tpresel                                  ... 1.000e-12 
Coulomb Range Separation                    ... NOT USED
Exchange Range Separation                   ... Long Range
   Mu parameter                             ... 3.000e-01
   Scaling (regular/separated)              ... 1.670e-01 8.330e-01
Multipole approximations                    ... NOT USED
Finite Nucleus Model                        ... NOT USED
CABS basis                                  ... NOT available
Auxiliary Coulomb fitting basis             ... AVAILABLE
   # of basis functions in Aux-J            ...    507
   # of shells in Aux-J                     ...    165
   Maximum angular momentum in Aux-J        ...      4
Auxiliary J/K fitting basis                 ... NOT available
Auxiliary Correlation fitting basis         ... NOT available
Auxiliary 'external' fitting basis          ... NOT available

Checking pre-screening integrals            ... done (  0.0 sec) Dimension = 123
Check shell pair data                       ... done (  0.0 sec)
Shell pair information
Shell pair cut-off parameter TPreSel        ...   1.0e-12
Total number of shell pairs                 ...      7626
Shell pairs after pre-screening             ...      6878
Total number of primitive shell pairs       ...     23652
Primitive shell pairs kept                  ...     15908
          la=0 lb=0:   1724 shell pairs
          la=1 lb=0:   1904 shell pairs
          la=1 lb=1:    535 shell pairs
          la=2 lb=0:   1028 shell pairs
          la=2 lb=1:    560 shell pairs
          la=2 lb=2:    158 shell pairs
          la=3 lb=0:    499 shell pairs
          la=3 lb=1:    280 shell pairs
          la=3 lb=2:    149 shell pairs
          la=3 lb=3:     41 shell pairs

Calculating one electron integrals          ... done (  0.0 sec)
Calculating RI/J V-Matrix + Cholesky decomp.... done (  0.1 sec)
Calculating Nuclear repulsion               ... done (  0.0 sec) ENN=    400.348919255692 Eh

Diagonalization of the overlap matrix:
Smallest eigenvalue                        ... 9.384e-06
Time for diagonalization                   ...    0.009 sec
Threshold for overlap eigenvalues          ... 1.000e-07
Number of eigenvalues below threshold      ... 0
Time for construction of square roots      ...    0.018 sec
Total time needed                          ...    0.036 sec

-------------------
DFT GRID GENERATION
-------------------

General Integration Accuracy     IntAcc      ... 4.388
Radial Grid Type                 RadialGrid  ... OptM3 with GC (2021)
Angular Grid (max. ang.)         AngularGrid ... 4 (Lebedev-302)
Angular grid pruning method      GridPruning ... 4 (adaptive)
Weight generation scheme         WeightScheme... mBecke (2022)
Basis function cutoff            BFCut       ... 1.0000e-11
Integration weight cutoff        WCut        ... 1.0000e-14
Partially contracted basis set               ... off
Rotationally invariant grid construction     ... off
Angular grids for H and He will be reduced by one unit

Total number of grid points                  ...    73606
Total number of batches                      ...     1158
Average number of points per batch           ...       63
Average number of grid points per atom       ...     4907

--------------------
COSX GRID GENERATION
--------------------

GRIDX 1
-------
General Integration Accuracy     IntAcc      ... 3.816
Radial Grid Type                 RadialGrid  ... OptM3 with GC (2021)
Angular Grid (max. ang.)         AngularGrid ... 1 (Lebedev-50)
Angular grid pruning method      GridPruning ... 4 (adaptive)
Weight generation scheme         WeightScheme... mBecke (2022)
Basis function cutoff            BFCut       ... 1.0000e-11
Integration weight cutoff        WCut        ... 1.0000e-14
Partially contracted basis set               ... on
Rotationally invariant grid construction     ... off
Angular grids for H and He will be reduced by one unit

Total number of grid points                  ...     9401
Total number of batches                      ...       81
Average number of points per batch           ...      116
Average number of grid points per atom       ...      627
UseSFitting                                  ... on

GRIDX 2
-------
General Integration Accuracy     IntAcc      ... 4.020
Radial Grid Type                 RadialGrid  ... OptM3 with GC (2021)
Angular Grid (max. ang.)         AngularGrid ... 2 (Lebedev-110)
Angular grid pruning method      GridPruning ... 4 (adaptive)
Weight generation scheme         WeightScheme... mBecke (2022)
Basis function cutoff            BFCut       ... 1.0000e-11
Integration weight cutoff        WCut        ... 1.0000e-14
Partially contracted basis set               ... on
Rotationally invariant grid construction     ... off
Angular grids for H and He will be reduced by one unit

Total number of grid points                  ...    20835
Total number of batches                      ...      170
Average number of points per batch           ...      122
Average number of grid points per atom       ...     1389
UseSFitting                                  ... on

GRIDX 3
-------
General Integration Accuracy     IntAcc      ... 4.338
Radial Grid Type                 RadialGrid  ... OptM3 with GC (2021)
Angular Grid (max. ang.)         AngularGrid ... 3 (Lebedev-194)
Angular grid pruning method      GridPruning ... 4 (adaptive)
Weight generation scheme         WeightScheme... mBecke (2022)
Basis function cutoff            BFCut       ... 1.0000e-11
Integration weight cutoff        WCut        ... 1.0000e-14
Partially contracted basis set               ... on
Rotationally invariant grid construction     ... off
Angular grids for H and He will be reduced by one unit

Total number of grid points                  ...    45879
Total number of batches                      ...      367
Average number of points per batch           ...      125
Average number of grid points per atom       ...     3059
UseSFitting                                  ... on
Initializing property integral containers    ... done (  0.0 sec)

SHARK setup successfully completed in   2.0 seconds

Maximum memory used throughout the entire STARTUP-calculation: 45.4 MB
-------------------------------------------------------------------------------
                                 ORCA GUESS
                   Start orbitals & Density for SCF / CASSCF
-------------------------------------------------------------------------------

------------
SCF SETTINGS
------------
Hamiltonian:
 Density Functional     Method          .... DFT(GTOs)
 Exchange Functional    Exchange        .... WB97X-V
 Correlation Functional Correlation     .... WB97X-V
 Gradients option       PostSCFGGA      .... off
 Hybrid DFT is turned on
   Fraction HF Exchange ScalHFX         ....  0.167000
   Scaling of DF-GGA-X  ScalDFX         ....  0.000000
   Scaling of DF-GGA-C  ScalDFC         ....  1.000000
   Scaling of DF-LDA-C  ScalLDAC        ....  1.000000
   Perturbative correction              ....  0.000000
 Long-range corrected/Screened/Range-Separated Hybrid DFT is turned on
   Amount of maximum screened exact exchange              ....  0.833000
   Range separation parameter mu (erf(mu*r12)/r12)        ....  0.300000
   NL short-range parameter             ....  6.000000
   NL long-range parameter              ....  0.010000
 RI-approximation to the Coulomb term is turned on
   Number of AuxJ basis functions       .... 507
   RIJ-COSX (HFX calculated with COS-X)).... on


General Settings:
 Integral files         IntName         .... sp_solv
 Hartree-Fock type      HFTyp           .... RHF
 Total Charge           Charge          ....    0
 Multiplicity           Mult            ....    1
 Number of Electrons    NEL             ....   64
 Basis Dimension        Dim             ....  315
 Nuclear Repulsion      ENuc            ....    400.3489192557 Eh

Convergence Acceleration:
 AO-DIIS                CNVDIIS         .... on
   Start iteration      DIISMaxIt       ....    12
   Startup error        DIISStart       ....  0.200000
   # of expansion vecs  DIISMaxEq       ....     5
   Bias factor          DIISBfac        ....   1.050
   Max. coefficient     DIISMaxC        ....  10.000
 MO-DIIS                CNVKDIIS        .... off
 Trust-Rad. Augm. Hess. CNVTRAH         .... auto
   Auto Start mean grad. ratio tolernc. ....  1.125000
   Auto Start start iteration           ....     1
   Auto Start num. interpolation iter.  ....    10
   Max. Number of Micro iterations      ....    24
   Max. Number of Macro iterations      .... Maxiter - #DIIS iter
   Number of Davidson start vectors     ....     2
   Converg. threshold    (grad. norm)   ....   1.000e-04
   Grad. Scal. Fac. for Micro threshold ....   0.100
   Minimum threshold for Micro iter.    ....   1.000e-02
   NR start threshold (gradient norm)   ....   1.000e-04
   Initial trust radius                 ....   0.400
   Minimum AH scaling param. (alpha)    ....   1.000
   Maximum AH scaling param. (alpha)    .... 1000.000
   Quad. conv. algorithm                .... NR
   White noise on init. David. guess    .... on
   Maximum white noise                  ....   0.010
   Pseudo random numbers                .... off
   Inactive MOs                         .... canonical
   Orbital update algorithm             .... Taylor
   Preconditioner                       .... Diag
   Full preconditioner red. dimension   ....   250
 SOSCF                  CNVSOSCF        .... on
   Start iteration      SOSCFMaxIt      ....   150
   Startup grad/error   SOSCFStart      ....  0.003300
   Hessian update       SOSCFHessUp     .... L-BFGS
 Level Shifting         CNVShift        .... on
   Level shift para.    LevelShift      ....    0.2500
   Turn off err/grad.   ShiftErr        ....    0.0010
 Zerner damping         CNVZerner       .... off
 Static damping         CNVDamp         .... on
   Fraction old density DampFac         ....    0.7000
   Max. Damping (<1)    DampMax         ....    0.9800
   Min. Damping (>=0)   DampMin         ....    0.0000
   Turn off err/grad.   DampErr         ....    0.1000

SCF Procedure:
 Maximum # iterations   MaxIter         ....   125
 SCF integral mode      SCFMode         .... Direct
   Integral package                     .... SHARK and LIBINT hybrid scheme
 Reset frequency        DirectResetFreq ....    20
 Integral Threshold     Thresh          ....  3.000e-11 Eh
 Primitive CutOff       TCut            ....  1.000e-12 Eh

Convergence Tolerance:
 Convergence Check Mode ConvCheckMode   .... Total+1el-Energy
 Convergence forced     ConvForced      .... 0
 Energy Change          TolE            ....  1.000e-07 Eh
 1-El. energy change                    ....  1.000e-04 Eh
 Orbital Gradient       TolG            ....  1.000e-04
 Orbital Rotation angle TolX            ....  1.000e-04
 DIIS Error             TolErr          ....  1.000e-07

---------------------
INITIAL GUESS: MOREAD
---------------------
Guess MOs are being read from file: sp_solv.ges
Input Geometry matches current geometry (good)
Atom 0: N(Shells)= 11 and 9 - projection required
Input basis set needs projection
NBasis(read)= 211
NBasis(calc)= 315
Basis set overlap was calculated
Using GuessMode=FMatrix for the initial guess
C*T matrix was formed
Effective Fockian was calculated
Effective Fockian was diagonalized
Initial density was built
                      ------------------
                      INITIAL GUESS DONE (   0.1 sec)
                      ------------------
             **** ENERGY FILE WAS UPDATED (sp_solv.en.tmp) ****
Finished Guess after   0.3 sec
Maximum memory used throughout the entire GUESS-calculation: 28.9 MB

-------------------------------------------------------------------------------------------
                                      ORCA LEAN-SCF
                              memory conserving SCF solver
-------------------------------------------------------------------------------------------

--------------------
CPCM SOLVATION MODEL
--------------------
CPCM parameters:
  Epsilon                                         ...      78.3550
  Refrac                                          ...       1.3328
  Rsolv                                           ...       1.3000
  Surface type                                    ... GAUSSIAN VDW
  Discretization scheme                           ... Constant charge density
    Threshold for H atoms                         ...       5.0000 (charges/Ang^2)
    Threshold for non-H atoms                     ...       5.0000 (charges/Ang^2)
  Epsilon function type                           ...         CPCM
Solvent:                                          ... WATER
SMD-CDS solvent descriptors:
  Soln                                            ...       1.3328
  Soln25                                          ...       1.3323
  Sola                                            ...       0.0000
  Solb                                            ...       0.0000
  Solg                                            ...       0.0000
  Solc                                            ...       0.0000
  Solh                                            ...       0.0000
Radii:
  Scheme                                          ... Element-dependent radii
  Radius for C  used is    3.4960 Bohr (=   1.8500 Ang.)
  Radius for O  used is    2.8724 Bohr (=   1.5200 Ang.)
  Radius for H  used is    2.2677 Bohr (=   1.2000 Ang.)
Calculating surface                               ...        done! (  0.0s)
Cavity surface points                             ...         1182
Cavity Volume                                     ...     819.0333
Cavity Surface-area                               ...     517.4744
Calculating surface distance matrix               ...        done! (  0.0s)
Performing Cholesky decomposition & store         ...        done! (  0.1s)
Overall time for CPCM initialization              ...                 0.1s

----------------------------------------D-I-I-S--------------------------------------------
Iteration    Energy (Eh)           Delta-E    RMSDP     MaxDP     DIISErr   Damp  Time(sec)
-------------------------------------------------------------------------------------------
               ***  Starting incremental Fock matrix formation  ***
    1    -421.0734762509978282     0.00e+00  2.34e-03  9.33e-02  6.66e-02  0.700  17.1
    2    -421.0795252414909555    -6.05e-03  1.93e-03  6.92e-02  4.82e-02  0.700   8.5
                               ***Turning on AO-DIIS***
    3    -421.0841024822647114    -4.58e-03  1.54e-03  4.90e-02  3.44e-02  0.700   8.4
    4    -421.0874861732140744    -3.38e-03  3.80e-03  1.20e-01  2.42e-02  0.000   8.5
                              *** Initializing SOSCF ***
---------------------------------------S-O-S-C-F--------------------------------------
Iteration    Energy (Eh)           Delta-E    RMSDP     MaxDP     MaxGrad    Time(sec)
--------------------------------------------------------------------------------------
    5    -421.0961641902566726    -8.68e-03  1.97e-04  1.01e-02  2.18e-03     8.6
               *** Restarting incremental Fock matrix formation ***
    6    -421.0962200389619738    -5.58e-05  8.87e-05  5.02e-03  7.89e-04    17.5
    7    -421.0962424912370352    -2.25e-05  7.56e-05  4.91e-03  3.67e-04    13.5
    8    -421.0962476592272878    -5.17e-06  1.83e-05  1.20e-03  1.18e-04    13.3
    9    -421.0962481350870803    -4.76e-07  5.08e-06  4.22e-04  1.02e-04    12.1
   10    -421.0962483838808339    -2.49e-07  2.83e-06  2.18e-04  1.50e-05    11.5
                  *** Gradient check signals convergence ***

               *****************************************************
               *                     SUCCESS                       *
               *           SCF CONVERGED AFTER  10 CYCLES          *
               *****************************************************


------------------
NL GRID GENERATION
------------------

General Integration Accuracy     IntAcc      ... 4.004
Radial Grid Type                 RadialGrid  ... OptM3 with GC (2021)
Angular Grid (max. ang.)         AngularGrid ... 2 (Lebedev-110)
Angular grid pruning method      GridPruning ... 4 (adaptive)
Weight generation scheme         WeightScheme... mBecke (2022)
Basis function cutoff            BFCut       ... 1.0000e-10
Integration weight cutoff        WCut        ... 1.0000e-14
Partially contracted basis set               ... off
Rotationally invariant grid construction     ... off
Angular grids for H and He will be reduced by one unit

Total number of grid points                  ...    23893
Total number of batches                      ...      382
Average number of points per batch           ...       62
Average number of grid points per atom       ...     1593
Final grid set up in    0.2 sec

-------------------------------------------------------------------------------
                    post-SCF DFT-NL dispersion correction                      
-------------------------------------------------------------------------------

SCF Energy:     -421.096248384 
NL    Energy:      0.246486512 
SC+NL Energy:   -420.849761872 
NL done in  :              2.2 sec
-------------------------------------------------------------------------------
Recomputing exchange energy using gridx3       ... done (   29.734 sec)
Old exchange energy                            :    -17.536509197 Eh
New exchange energy                            :    -17.536523691 Eh
Exchange energy change after final integration :     -0.000014494 Eh
Total energy after final integration           :   -420.849776367 Eh

SMD CDS free energy correction energy :                 4.80725     Kcal/mol
Total Energy after SMD CDS correction =              -420.842115523 Eh
             **** ENERGY FILE WAS UPDATED (sp_solv.en.tmp) ****

----------------
TOTAL SCF ENERGY
----------------

Total Energy       :       -420.84211552274007 Eh          -11451.69616 eV

Components:
Nuclear Repulsion  :        400.34891925569195 Eh           10894.04794 eV
Electronic Energy  :       -821.41855718530758 Eh          -22351.93529 eV
One Electron Energy:      -1364.42003880876177 Eh          -37127.75679 eV
Two Electron Energy:        543.00148162345420 Eh           14775.82150 eV
CPCM Dielectric    :         -0.02661045426516 Eh              -0.72411 eV
SMD CDS (Gcds)     :          0.00766084377587 Eh               0.20846 eV

Virial components:
Potential Energy   :       -840.09363759312146 Eh          -22860.11006 eV
Kinetic Energy     :        419.25152207038144 Eh           11408.41391 eV
Virial Ratio       :          2.00379388831913

DFT components:
N(Alpha)           :       31.999968906384 electrons
N(Beta)            :       31.999968906384 electrons
N(Total)           :       63.999937812768 electrons
E(X)               :      -37.344725406915 Eh       
E(C)               :       -2.694020844315 Eh       
NL Energy, E(C,NL) :        0.246486511649 Eh       
E(XC)              :      -39.792259739581 Eh       

CPCM Solvation Model Properties:
Surface-charge          :         -0.04595476828174
Corrected charge        :          0.00000000000000
Outlying charge corr.   :          0.00016765925792 Eh               0.00456 eV
Free-energy (cav+disp)  :          0.00766084377587 Eh               0.20846 eV

---------------
SCF CONVERGENCE
---------------

  Last Energy change         ...    2.4879e-07  Tolerance :   1.0000e-07
  Last MAX-Density change    ...    2.1772e-04  Tolerance :   1.0000e-05
  Last RMS-Density change    ...    2.8257e-06  Tolerance :   1.0000e-06
  Last DIIS Error            ...    2.1823e-03  Tolerance :   1.0000e-07
  Last Orbital Gradient      ...    1.4986e-05  Tolerance :   1.0000e-04
  Last Orbital Rotation      ...    2.3784e-05  Tolerance :   1.0000e-04


----------------
ORBITAL ENERGIES
----------------

  NO   OCC          E(Eh)            E(eV) 
   0   2.0000     -21.705489      -590.6364 
   1   2.0000     -21.680130      -589.9463 
   2   2.0000     -12.146159      -330.5138 
   3   2.0000     -12.122337      -329.8656 
   4   2.0000     -12.068380      -328.3973 
   5   2.0000     -12.061746      -328.2168 
   6   2.0000     -12.060825      -328.1917 
   7   2.0000     -12.060161      -328.1737 
   8   2.0000     -12.058673      -328.1332 
   9   2.0000      -1.722617       -46.8748 
  10   2.0000      -1.720804       -46.8255 
  11   2.0000      -1.399600       -38.0851 
  12   2.0000      -1.308558       -35.6077 
  13   2.0000      -1.289060       -35.0771 
  14   2.0000      -1.190352       -32.3911 
  15   2.0000      -1.160705       -31.5844 
  16   2.0000      -1.109477       -30.1904 
  17   2.0000      -1.072363       -29.1805 
  18   2.0000      -1.036609       -28.2076 
  19   2.0000      -0.996768       -27.1234 
  20   2.0000      -0.983243       -26.7554 
  21   2.0000      -0.953449       -25.9447 
  22   2.0000      -0.953338       -25.9416 
  23   2.0000      -0.943459       -25.6728 
  24   2.0000      -0.917887       -24.9770 
  25   2.0000      -0.893382       -24.3102 
  26   2.0000      -0.849253       -23.1094 
  27   2.0000      -0.830311       -22.5939 
  28   2.0000      -0.805906       -21.9298 
  29   2.0000      -0.782533       -21.2938 
  30   2.0000      -0.662592       -18.0300 
  31   2.0000      -0.648182       -17.6379 
  32   0.0000      -0.349505        -9.5105 
  33   0.0000      -0.251314        -6.8386 
  34   0.0000      -0.212500        -5.7824 
  35   0.0000      -0.147448        -4.0123 
  36   0.0000      -0.070119        -1.9080 
  37   0.0000      -0.050291        -1.3685 
  38   0.0000      -0.033345        -0.9074 
  39   0.0000      -0.011894        -0.3237 
  40   0.0000       0.008200         0.2231 
  41   0.0000       0.011070         0.3012 
  42   0.0000       0.033805         0.9199 
*Only the first 10 virtual orbitals were printed.

                    ********************************
                    * MULLIKEN POPULATION ANALYSIS *
                    ********************************

-----------------------
MULLIKEN ATOMIC CHARGES
-----------------------
   0 C :   -0.121463
   1 C :   -0.239643
   2 C :    0.151063
   3 C :   -0.316000
   4 C :    0.297334
   5 C :   -0.230444
   6 O :   -0.462508
   7 C :    0.153919
   8 O :   -0.427471
   9 H :    0.169383
  10 H :    0.172982
  11 H :    0.172242
  12 H :    0.164876
  13 H :    0.380980
  14 H :    0.134750
Sum of atomic charges:   -0.0000000

--------------------------------
MULLIKEN REDUCED ORBITAL CHARGES
--------------------------------
  0 C s       :     3.169643  s :     3.169643
      pz      :     0.947832  p :     2.854434
      px      :     0.931766
      py      :     0.974837
      dz2     :     0.003896  d :     0.089925
      dxz     :     0.020425
      dyz     :     0.009008
      dx2y2   :     0.027838
      dxy     :     0.028758
      f0      :     0.001578  f :     0.007461
      f+1     :     0.000604
      f-1     :     0.000677
      f+2     :     0.000657
      f-2     :     0.000674
      f+3     :     0.001251
      f-3     :     0.002020

  1 C s       :     3.234893  s :     3.234893
      pz      :     0.966680  p :     2.905350
      px      :     0.974169
      py      :     0.964501
      dz2     :     0.004143  d :     0.091893
      dxz     :     0.016658
      dyz     :     0.012021
      dx2y2   :     0.021481
      dxy     :     0.037590
      f0      :     0.001521  f :     0.007507
      f+1     :     0.000640
      f-1     :     0.000647
      f+2     :     0.001011
      f-2     :     0.000282
      f+3     :     0.001282
      f-3     :     0.002122

  2 C s       :     3.107879  s :     3.107879
      pz      :     0.974565  p :     2.612135
      px      :     0.785734
      py      :     0.851836
      dz2     :     0.005827  d :     0.118843
      dxz     :     0.011850
      dyz     :     0.027531
      dx2y2   :     0.043588
      dxy     :     0.030046
      f0      :     0.001852  f :     0.010080
      f+1     :     0.000847
      f-1     :     0.000673
      f+2     :     0.000403
      f-2     :     0.001166
      f+3     :     0.001872
      f-3     :     0.003266

  3 C s       :     3.284185  s :     3.284185
      pz      :     0.991787  p :     2.942261
      px      :     0.947879
      py      :     1.002595
      dz2     :     0.004656  d :     0.082177
      dxz     :     0.019162
      dyz     :     0.007498
      dx2y2   :     0.025360
      dxy     :     0.025500
      f0      :     0.001547  f :     0.007377
      f+1     :     0.000641
      f-1     :     0.000671
      f+2     :     0.000553
      f-2     :     0.000723
      f+3     :     0.001294
      f-3     :     0.001948

  4 C s       :     2.998545  s :     2.998545
      pz      :     0.912991  p :     2.519809
      px      :     0.825556
      py      :     0.781263
      dz2     :     0.005352  d :     0.168722
      dxz     :     0.032019
      dyz     :     0.036974
      dx2y2   :     0.052368
      dxy     :     0.042009
      f0      :     0.002515  f :     0.015589
      f+1     :     0.000948
      f-1     :     0.001042
      f+2     :     0.001011
      f-2     :     0.002563
      f+3     :     0.002540
      f-3     :     0.004972

  5 C s       :     3.266400  s :     3.266400
      pz      :     0.974883  p :     2.876207
      px      :     0.995008
      py      :     0.906317
      dz2     :     0.003924  d :     0.080418
      dxz     :     0.006582
      dyz     :     0.020224
      dx2y2   :     0.029777
      dxy     :     0.019911
      f0      :     0.001565  f :     0.007419
      f+1     :     0.000706
      f-1     :     0.000665
      f+2     :     0.000298
      f-2     :     0.000979
      f+3     :     0.001361
      f-3     :     0.001844

  6 O s       :     3.743699  s :     3.743699
      pz      :     1.840486  p :     4.686195
      px      :     1.582697
      py      :     1.263011
      dz2     :     0.004383  d :     0.030929
      dxz     :     0.003887
      dyz     :     0.002297
      dx2y2   :     0.005518
      dxy     :     0.014843
      f0      :     0.000224  f :     0.001686
      f+1     :     0.000225
      f-1     :     0.000444
      f+2     :     0.000021
      f-2     :     0.000111
      f+3     :     0.000511
      f-3     :     0.000150

  7 C s       :     3.257973  s :     3.257973
      pz      :     0.669216  p :     2.424526
      px      :     0.886913
      py      :     0.868397
      dz2     :     0.005726  d :     0.148894
      dxz     :     0.024325
      dyz     :     0.025932
      dx2y2   :     0.041742
      dxy     :     0.051169
      f0      :     0.002060  f :     0.014687
      f+1     :     0.000765
      f-1     :     0.000973
      f+2     :     0.001317
      f-2     :     0.001357
      f+3     :     0.002730
      f-3     :     0.005486

  8 O s       :     3.808109  s :     3.808109
      pz      :     1.374359  p :     4.588204
      px      :     1.751792
      py      :     1.462054
      dz2     :     0.002484  d :     0.029376
      dxz     :     0.002379
      dyz     :     0.008377
      dx2y2   :     0.007652
      dxy     :     0.008483
      f0      :     0.000157  f :     0.001782
      f+1     :     0.000052
      f-1     :     0.000122
      f+2     :     0.000147
      f-2     :     0.000312
      f+3     :     0.000460
      f-3     :     0.000532

  9 H s       :     0.808678  s :     0.808678
      pz      :     0.004234  p :     0.021940
      px      :     0.004977
      py      :     0.012729

 10 H s       :     0.804933  s :     0.804933
      pz      :     0.004370  p :     0.022085
      px      :     0.007759
      py      :     0.009957

 11 H s       :     0.805311  s :     0.805311
      pz      :     0.004393  p :     0.022448
      px      :     0.005146
      py      :     0.012908

 12 H s       :     0.813156  s :     0.813156
      pz      :     0.004336  p :     0.021968
      px      :     0.014174
      py      :     0.003458

 13 H s       :     0.575315  s :     0.575315
      pz      :     0.013987  p :     0.043705
      px      :     0.011394
      py      :     0.018324

 14 H s       :     0.845379  s :     0.845379
      pz      :     0.002129  p :     0.019871
      px      :     0.006288
      py      :     0.011454


------------------------
MULLIKEN OVERLAP CHARGES
------------------------
B(  0-C ,  1-C ) :   0.8531 B(  0-C ,  3-C ) :  -0.2065 B(  0-C ,  4-C ) :   0.0536 
B(  0-C ,  5-C ) :   0.9270 B(  0-C ,  9-H ) :   0.8875 B(  0-C , 10-H ) :  -0.0850 
B(  0-C , 12-H ) :  -0.0878 B(  1-C ,  2-C ) :   0.8967 B(  1-C ,  4-C ) :  -0.1513 
B(  1-C ,  7-C ) :  -0.0747 B(  1-C ,  9-H ) :  -0.0995 B(  1-C , 10-H ) :   0.8733 
B(  2-C ,  3-C ) :  -0.1214 B(  2-C ,  4-C ) :   0.1899 B(  2-C ,  5-C ) :  -0.2397 
B(  2-C ,  7-C ) :   0.1329 B(  2-C ,  8-O ) :  -0.3860 B(  2-C , 10-H ) :  -0.1027 
B(  2-C , 11-H ) :  -0.1516 B(  2-C , 14-H ) :  -0.3435 B(  3-C ,  4-C ) :   0.5528 
B(  3-C ,  5-C ) :   0.1647 B(  3-C ,  6-O ) :  -0.2285 B(  3-C ,  8-O ) :   0.0730 
B(  3-C , 11-H ) :   0.8784 B(  3-C , 14-H ) :   0.0543 B(  4-C ,  5-C ) :   0.7522 
B(  4-C ,  6-O ) :   0.7543 B(  4-C , 11-H ) :  -0.0558 B(  4-C , 12-H ) :  -0.1307 
B(  4-C , 13-H ) :  -0.0568 B(  5-C ,  6-O ) :  -0.0853 B(  5-C ,  9-H ) :  -0.0996 
B(  5-C , 12-H ) :   0.8771 B(  6-O , 13-H ) :   0.6342 B(  7-C ,  8-O ) :   1.2969 
B(  7-C , 14-H ) :   0.9935 B(  8-O , 14-H ) :  -0.1094 


                     *******************************
                     * LOEWDIN POPULATION ANALYSIS *
                     *******************************

----------------------
LOEWDIN ATOMIC CHARGES
----------------------
   0 C :   -0.130802
   1 C :   -0.102551
   2 C :   -0.170544
   3 C :   -0.075958
   4 C :   -0.263659
   5 C :   -0.100485
   6 O :    0.050672
   7 C :   -0.212327
   8 O :    0.016988
   9 H :    0.156658
  10 H :    0.159906
  11 H :    0.161844
  12 H :    0.159055
  13 H :    0.213462
  14 H :    0.137741

-------------------------------
LOEWDIN REDUCED ORBITAL CHARGES
-------------------------------
  0 C s       :     2.763411  s :     2.763411
      pz      :     0.871117  p :     2.937315
      px      :     1.058390
      py      :     1.007807
      dz2     :     0.024280  d :     0.386911
      dxz     :     0.070704
      dyz     :     0.023027
      dx2y2   :     0.134306
      dxy     :     0.134594
      f0      :     0.003052  f :     0.043166
      f+1     :     0.004120
      f-1     :     0.003211
      f+2     :     0.004378
      f-2     :     0.004718
      f+3     :     0.009284
      f-3     :     0.014402

  1 C s       :     2.757195  s :     2.757195
      pz      :     0.876517  p :     2.923841
      px      :     1.037054
      py      :     1.010270
      dz2     :     0.024598  d :     0.378766
      dxz     :     0.053172
      dyz     :     0.037364
      dx2y2   :     0.103407
      dxy     :     0.160225
      f0      :     0.003022  f :     0.042749
      f+1     :     0.003716
      f-1     :     0.003475
      f+2     :     0.007281
      f-2     :     0.001678
      f+3     :     0.009146
      f-3     :     0.014431

  2 C s       :     2.709081  s :     2.709081
      pz      :     0.865057  p :     2.902195
      px      :     0.994944
      py      :     1.042193
      dz2     :     0.035240  d :     0.503016
      dxz     :     0.039865
      dyz     :     0.091020
      dx2y2   :     0.187959
      dxy     :     0.148932
      f0      :     0.003908  f :     0.056252
      f+1     :     0.004292
      f-1     :     0.004279
      f+2     :     0.003424
      f-2     :     0.008123
      f+3     :     0.012010
      f-3     :     0.020216

  3 C s       :     2.754560  s :     2.754560
      pz      :     0.894323  p :     2.920932
      px      :     1.022357
      py      :     1.004252
      dz2     :     0.025453  d :     0.358407
      dxz     :     0.063987
      dyz     :     0.021358
      dx2y2   :     0.129293
      dxy     :     0.118316
      f0      :     0.003133  f :     0.042058
      f+1     :     0.004206
      f-1     :     0.003227
      f+2     :     0.004241
      f-2     :     0.004926
      f+3     :     0.009048
      f-3     :     0.013277

  4 C s       :     2.718768  s :     2.718768
      pz      :     0.846016  p :     2.771458
      px      :     0.995013
      py      :     0.930428
      dz2     :     0.043848  d :     0.677962
      dxz     :     0.106189
      dyz     :     0.110447
      dx2y2   :     0.188630
      dxy     :     0.228848
      f0      :     0.006827  f :     0.095471
      f+1     :     0.006634
      f-1     :     0.006709
      f+2     :     0.007329
      f-2     :     0.017104
      f+3     :     0.018548
      f-3     :     0.032319

  5 C s       :     2.763975  s :     2.763975
      pz      :     0.883929  p :     2.932391
      px      :     1.002370
      py      :     1.046093
      dz2     :     0.025236  d :     0.362354
      dxz     :     0.014213
      dyz     :     0.070301
      dx2y2   :     0.152338
      dxy     :     0.100266
      f0      :     0.003094  f :     0.041765
      f+1     :     0.003083
      f-1     :     0.004336
      f+2     :     0.001839
      f-2     :     0.007002
      f+3     :     0.009338
      f-3     :     0.013073

  6 O s       :     3.323413  s :     3.323413
      pz      :     1.724456  p :     4.553853
      px      :     1.569420
      py      :     1.259977
      dz2     :     0.007725  d :     0.067500
      dxz     :     0.006201
      dyz     :     0.007450
      dx2y2   :     0.018402
      dxy     :     0.027721
      f0      :     0.000386  f :     0.004562
      f+1     :     0.000307
      f-1     :     0.000770
      f+2     :     0.000015
      f-2     :     0.000544
      f+3     :     0.001630
      f-3     :     0.000911

  7 C s       :     2.820447  s :     2.820447
      pz      :     0.660058  p :     2.665188
      px      :     1.019961
      py      :     0.985169
      dz2     :     0.039644  d :     0.634884
      dxz     :     0.073848
      dyz     :     0.065719
      dx2y2   :     0.230515
      dxy     :     0.225159
      f0      :     0.006910  f :     0.091808
      f+1     :     0.004808
      f-1     :     0.007797
      f+2     :     0.009396
      f-2     :     0.008162
      f+3     :     0.016126
      f-3     :     0.038610

  8 O s       :     3.414457  s :     3.414457
      pz      :     1.291966  p :     4.496748
      px      :     1.645341
      py      :     1.559441
      dz2     :     0.007277  d :     0.066134
      dxz     :     0.002610
      dyz     :     0.008805
      dx2y2   :     0.024092
      dxy     :     0.023350
      f0      :     0.000313  f :     0.005673
      f+1     :     0.000288
      f-1     :     0.000686
      f+2     :     0.000190
      f-2     :     0.000439
      f+3     :     0.001628
      f-3     :     0.002130

  9 H s       :     0.784076  s :     0.784076
      pz      :     0.012382  p :     0.059266
      px      :     0.014099
      py      :     0.032785

 10 H s       :     0.779752  s :     0.779752
      pz      :     0.013093  p :     0.060342
      px      :     0.020870
      py      :     0.026379

 11 H s       :     0.776749  s :     0.776749
      pz      :     0.013271  p :     0.061407
      px      :     0.014640
      py      :     0.033496

 12 H s       :     0.780794  s :     0.780794
      pz      :     0.012832  p :     0.060151
      px      :     0.036654
      py      :     0.010665

 13 H s       :     0.635661  s :     0.635661
      pz      :     0.040730  p :     0.150877
      px      :     0.046665
      py      :     0.063482

 14 H s       :     0.806441  s :     0.806441
      pz      :     0.006541  p :     0.055817
      px      :     0.017347
      py      :     0.031929


---------------------------------
LOEWDIN BOND ORDERS (THRESH 0.050000)
---------------------------------
B(  0-C ,  1-C ) :   1.5679 B(  0-C ,  2-C ) :   0.2360 B(  0-C ,  3-C ) :   0.1038 
B(  0-C ,  4-C ) :   0.2391 B(  0-C ,  5-C ) :   1.5985 B(  0-C ,  9-H ) :   0.8233 
B(  0-C , 10-H ) :   0.0934 B(  0-C , 12-H ) :   0.0952 B(  1-C ,  2-C ) :   1.4632 
B(  1-C ,  3-C ) :   0.2203 B(  1-C ,  4-C ) :   0.0977 B(  1-C ,  5-C ) :   0.2426 
B(  1-C ,  7-C ) :   0.2178 B(  1-C ,  9-H ) :   0.0951 B(  1-C , 10-H ) :   0.8154 
B(  2-C ,  3-C ) :   1.4402 B(  2-C ,  4-C ) :   0.2395 B(  2-C ,  5-C ) :   0.0988 
B(  2-C ,  7-C ) :   1.2198 B(  2-C ,  8-O ) :   0.1794 B(  2-C , 10-H ) :   0.0928 
B(  2-C , 11-H ) :   0.0911 B(  2-C , 14-H ) :   0.0863 B(  3-C ,  4-C ) :   1.5190 
B(  3-C ,  5-C ) :   0.2307 B(  3-C ,  6-O ) :   0.1469 B(  3-C ,  7-C ) :   0.1912 
B(  3-C , 11-H ) :   0.8084 B(  4-C ,  5-C ) :   1.4586 B(  4-C ,  6-O ) :   1.6423 
B(  4-C , 11-H ) :   0.0961 B(  4-C , 12-H ) :   0.0958 B(  4-C , 13-H ) :   0.1014 
B(  5-C ,  6-O ) :   0.1511 B(  5-C ,  9-H ) :   0.0976 B(  5-C , 12-H ) :   0.8198 
B(  6-O , 13-H ) :   0.9761 B(  7-C ,  8-O ) :   2.6510 B(  7-C , 14-H ) :   0.8520 
B(  8-O , 14-H ) :   0.0758 

------------------------------------------
LOEWDIN REDUCED ORBITAL POPULATIONS PER MO
-------------------------------------------
THRESHOLD FOR PRINTING IS 0.1%%
                      0         1         2         3         4         5   
                 -21.70549 -21.68013 -12.14616 -12.12234 -12.06838 -12.06175
                   2.00000   2.00000   2.00000   2.00000   2.00000   2.00000
                  --------  --------  --------  --------  --------  --------
 0 C  s               0.0       0.0       0.0       0.0       0.0      51.7
 1 C  s               0.0       0.0       0.0       0.0       1.3      13.6
 1 C  dx2y2           0.0       0.0       0.0       0.0       0.1       0.1
 2 C  s               0.0       0.0       0.0       0.0      95.7       0.0
 2 C  dx2y2           0.0       0.0       0.1       0.0       0.0       0.0
 3 C  s               0.0       0.0       0.0       0.0       1.8       7.8
 3 C  dx2y2           0.0       0.0       0.0       0.2       0.0       0.0
 3 C  dxy             0.0       0.0       0.0       0.0       0.2       0.0
 4 C  s               0.0       0.0       0.0      98.8       0.0       0.0
 5 C  s               0.0       0.0       0.0       0.0       0.0      25.9
 5 C  dx2y2           0.0       0.0       0.0       0.1       0.0       0.0
 5 C  dxy             0.0       0.0       0.0       0.1       0.0       0.1
 6 O  s              99.8       0.0       0.0       0.0       0.0       0.0
 7 C  s               0.0       0.0      99.2       0.0       0.0       0.0
 7 C  dx2y2           0.0       0.0       0.0       0.0       0.1       0.0
 8 O  s               0.0      99.7       0.0       0.0       0.0       0.0
 8 O  py              0.0       0.0       0.1       0.0       0.0       0.0
 8 O  dxy             0.0       0.0       0.1       0.0       0.0       0.0

                      6         7         8         9        10        11   
                 -12.06082 -12.06016 -12.05867  -1.72262  -1.72080  -1.39960
                   2.00000   2.00000   2.00000   2.00000   2.00000   2.00000
                  --------  --------  --------  --------  --------  --------
 0 C  s               6.4       4.1      36.7       0.0       0.0       9.3
 0 C  px              0.0       0.1       0.0       0.0       0.0       0.5
 0 C  py              0.0       0.0       0.0       0.0       0.1       2.7
 0 C  dz2             0.0       0.0       0.1       0.0       0.0       0.5
 0 C  dx2y2           0.0       0.1       0.1       0.0       0.0       0.0
 0 C  dxy             0.0       0.2       0.0       0.0       0.0       0.0
 1 C  s               0.1      42.6      41.4       0.0       0.0      10.6
 1 C  px              0.0       0.0       0.0       0.0       0.0       0.8
 1 C  py              0.0       0.0       0.0       0.0       0.0       2.5
 1 C  dz2             0.0       0.0       0.0       0.0       0.0       0.6
 2 C  s               1.4       1.0       0.7       0.5       0.0      13.3
 2 C  px              0.0       0.0       0.0       1.5       0.1       2.1
 2 C  py              0.1       0.0       0.0       0.3       0.0       0.1
 2 C  dz2             0.1       0.0       0.0       0.1       0.0       0.7
 2 C  dx2y2           0.0       0.1       0.0       0.1       0.0       0.0
 2 C  dxy             0.2       0.0       0.0       0.4       0.0       0.0
 2 C  f+3             0.0       0.0       0.0       0.0       0.0       0.1
 3 C  s              87.9       0.7       0.8       0.1       0.4      10.8
 3 C  px              0.0       0.0       0.0       0.3       1.4       0.2
 3 C  py              0.0       0.0       0.0       0.0       0.0       3.4
 3 C  dz2             0.0       0.0       0.0       0.0       0.1       0.5
 3 C  dx2y2           0.0       0.0       0.0       0.0       0.3       0.0
 4 C  s               0.1       0.0       0.0       0.0       7.3       8.5
 4 C  px              0.1       0.0       0.0       0.0       4.4       2.3
 4 C  py              0.0       0.0       0.0       0.0       6.5       3.0
 4 C  dz2             0.1       0.0       0.0       0.0       1.2       0.3
 4 C  dx2y2           0.1       0.1       0.0       0.0       0.1       0.0
 4 C  dxy             0.0       0.0       0.0       0.0       3.4       0.2
 4 C  f+1             0.0       0.0       0.0       0.0       0.1       0.0
 4 C  f-1             0.0       0.0       0.0       0.0       0.1       0.0
 4 C  f+3             0.1       0.0       0.0       0.0       0.4       0.0
 4 C  f-3             0.0       0.0       0.0       0.0       0.1       0.0
 5 C  s               3.1      50.5      19.4       0.0       0.4       9.1
 5 C  px              0.0       0.0       0.0       0.0       0.0       3.2
 5 C  py              0.0       0.0       0.0       0.0       1.4       0.0
 5 C  dz2             0.0       0.0       0.0       0.0       0.1       0.5
 5 C  dx2y2           0.0       0.0       0.0       0.0       0.4       0.0
 6 O  s               0.0       0.0       0.0       0.1      56.6       0.7
 6 O  px              0.0       0.0       0.0       0.0       1.2       0.4
 6 O  py              0.0       0.0       0.0       0.0       0.1       1.3
 7 C  s               0.0       0.0       0.0      13.7       0.0       1.3
 7 C  px              0.0       0.0       0.0       3.6       0.0       2.8
 7 C  py              0.0       0.0       0.0      13.5       0.0       0.3
 7 C  dz2             0.0       0.0       0.0       1.1       0.0       0.0
 7 C  dx2y2           0.0       0.0       0.0       1.1       0.0       0.4
 7 C  dxy             0.0       0.0       0.0       2.6       0.0       0.0
 7 C  f-1             0.0       0.0       0.0       0.3       0.0       0.0
 7 C  f+3             0.0       0.0       0.0       0.6       0.0       0.0
 8 O  s               0.0       0.0       0.0      53.8       0.0       0.2
 8 O  px              0.0       0.0       0.0       1.0       0.0       0.1
 8 O  py              0.0       0.0       0.0       3.7       0.0       0.1
 8 O  dx2y2           0.0       0.0       0.0       0.1       0.0       0.0
 8 O  dxy             0.0       0.0       0.0       0.2       0.0       0.0
 9 H  s               0.0       0.0       0.0       0.0       0.0       1.1
10 H  s               0.0       0.0       0.0       0.0       0.0       1.2
11 H  s               0.0       0.0       0.0       0.0       0.1       1.2
12 H  s               0.0       0.0       0.0       0.0       0.1       1.0
13 H  s               0.0       0.0       0.0       0.0      10.4       0.4
13 H  px              0.0       0.0       0.0       0.0       0.6       0.0
13 H  py              0.0       0.0       0.0       0.0       2.3       0.0
14 H  s               0.0       0.0       0.0       0.8       0.0       0.2
14 H  py              0.0       0.0       0.0       0.1       0.0       0.0

                     12        13        14        15        16        17   
                  -1.30856  -1.28906  -1.19035  -1.16070  -1.10948  -1.07236
                   2.00000   2.00000   2.00000   2.00000   2.00000   2.00000
                  --------  --------  --------  --------  --------  --------
 0 C  s               3.0      14.7       0.6       1.1       3.1       4.3
 0 C  px              3.9       1.4       2.9       9.5       1.8       1.6
 0 C  py              1.5       0.3       0.5       1.0       2.3       1.5
 0 C  dz2             0.1       0.2       0.0       0.0       0.0       0.0
 0 C  dx2y2           0.4       0.7       0.2       0.4       0.1       0.0
 0 C  dxy             1.0       0.0       0.3       0.5       0.0       0.0
 1 C  s               2.9      10.6       1.2       7.5       0.2       1.8
 1 C  px              4.0       3.1       2.4       0.7       4.0       3.4
 1 C  py              2.6       0.7       0.3       0.2       4.9       0.5
 1 C  dz2             0.1       0.2       0.0       0.0       0.0       0.0
 1 C  dx2y2           0.8       1.0       0.0       0.1       0.7       0.1
 1 C  dxy             0.6       0.1       0.2       0.0       0.0       0.1
 1 C  f+3             0.0       0.1       0.0       0.0       0.0       0.0
 2 C  s              14.9       0.2       0.8       0.0       3.6       0.5
 2 C  px              1.0       0.1      13.3       0.4       0.4       0.1
 2 C  py              0.1       9.0       0.3       8.4       0.2      11.2
 2 C  dz2             0.3       0.0       0.0       0.0       0.1       0.0
 2 C  dx2y2           0.0       0.1       1.1       0.5       0.4       0.0
 2 C  dxy             0.0       2.1       0.1       0.4       0.0       0.0
 2 C  f+3             0.2       0.0       0.0       0.0       0.0       0.0
 3 C  s               1.0      12.4       5.8       1.7       0.8       1.2
 3 C  px              6.2       1.3       0.7       1.2       4.1      10.7
 3 C  py              0.8       0.2       0.2       0.1       3.3       0.2
 3 C  dz2             0.0       0.2       0.0       0.0       0.0       0.0
 3 C  dx2y2           0.3       0.7       0.2       0.0       0.4       0.0
 3 C  dxy             1.5       0.0       0.0       0.0       0.0       0.7
 3 C  f-3             0.0       0.0       0.0       0.1       0.0       0.0
 4 C  s               6.1       8.0       0.2       2.2       0.5       1.6
 4 C  px              1.5       4.0      11.0       3.6       3.8       2.7
 4 C  py              3.9       0.5       1.9       2.7       6.3       5.4
 4 C  dz2             0.1       0.0       0.0       0.1       0.0       0.0
 4 C  dx2y2           0.5       1.3       0.3       0.4       0.0       0.7
 4 C  dxy             0.6       0.3       0.0       0.2       0.0       1.0
 4 C  f-3             0.1       0.0       0.0       0.1       0.0       0.1
 5 C  s              13.7       0.8       3.9       3.9       3.1       0.3
 5 C  px              0.6       0.3       1.0       0.2       0.9       0.2
 5 C  py              0.3       8.0       1.0       4.8       1.3       7.5
 5 C  dz2             0.3       0.0       0.0       0.0       0.0       0.0
 5 C  dx2y2           0.4       0.1       0.4       0.1       0.0       0.3
 5 C  dxy             0.0       2.1       0.0       0.0       0.1       1.3
 5 C  f+3             0.1       0.0       0.0       0.1       0.0       0.0
 6 O  s               0.6       1.1       0.0       0.4       0.5       0.4
 6 O  px              0.3       1.6       0.2       1.3       4.4       0.7
 6 O  py              3.9       3.1       6.6      26.8       0.4      16.3
 6 O  dx2y2           0.0       0.0       0.1       0.0       0.1       0.1
 6 O  dxy             0.1       0.2       0.1       0.6       0.0       0.2
 7 C  s               4.2       0.0      11.5       1.0       3.4       0.2
 7 C  px              5.4       0.1       1.8       0.2       3.2       3.2
 7 C  py              1.0       0.1       2.7       0.0       1.2       1.5
 7 C  dz2             0.1       0.0       0.0       0.0       0.3       0.0
 7 C  dx2y2           0.8       0.0       0.3       0.1       0.0       0.0
 7 C  dxy             0.0       0.2       0.2       0.6       0.6       0.4
 8 O  s               1.0       0.0       4.5       1.0       6.1       0.2
 8 O  px              0.6       0.0       2.9       1.0       2.8       0.7
 8 O  py              0.7       0.0       8.6       1.8      23.5       3.2
 8 O  dx2y2           0.0       0.0       0.0       0.0       0.2       0.1
 8 O  dxy             0.0       0.0       0.2       0.0       0.1       0.0
 9 H  s               0.4       2.4       0.1       0.4       1.6       3.3
 9 H  py              0.1       0.2       0.0       0.1       0.1       0.3
10 H  s               0.5       1.7       0.1       2.4       0.1       1.1
10 H  px              0.0       0.1       0.0       0.1       0.1       0.0
10 H  py              0.1       0.1       0.0       0.2       0.0       0.1
11 H  s               0.2       2.0       1.3       0.6       0.6       1.7
11 H  px              0.0       0.1       0.0       0.0       0.1       0.0
11 H  py              0.0       0.2       0.1       0.1       0.0       0.2
12 H  s               2.0       0.1       1.3       0.9       1.5       0.0
12 H  px              0.2       0.0       0.2       0.1       0.1       0.0
13 H  s               1.0       0.9       1.6       6.8       0.0       5.1
13 H  px              0.1       0.1       0.1       0.5       0.1       0.1
13 H  py              0.1       0.1       0.1       0.1       0.0       0.1
14 H  s               0.7       0.0       3.3       0.1       1.5       1.0
14 H  px              0.1       0.0       0.2       0.0       0.0       0.0
14 H  py              0.0       0.0       0.2       0.0       0.2       0.1

                     18        19        20        21        22        23   
                  -1.03661  -0.99677  -0.98324  -0.95345  -0.95334  -0.94346
                   2.00000   2.00000   2.00000   2.00000   2.00000   2.00000
                  --------  --------  --------  --------  --------  --------
 0 C  s               0.6       0.2       0.1       0.0       0.8       0.0
 0 C  px              2.7       0.4       5.9       0.0       0.3       8.8
 0 C  py              0.2       0.0       3.0       0.0       2.2       1.2
 0 C  dz2             0.0       0.0       0.0       0.0       0.1       0.0
 0 C  dx2y2           0.0       0.0       0.1       0.0       0.9       0.1
 0 C  dxy             0.1       0.0       0.1       0.0       0.7       0.0
 0 C  f-3             0.0       0.0       0.2       0.0       0.0       0.0
 1 C  s               0.2       0.2       0.3       0.0       2.5       0.1
 1 C  pz              0.0       0.0       0.0       0.1       0.0       0.0
 1 C  px              1.1       0.0       1.3       0.0       6.7       8.1
 1 C  py              0.1       0.1      11.8       0.0       6.4       2.4
 1 C  dx2y2           0.4       0.0       0.5       0.0       0.2       0.1
 1 C  dxy             0.4       0.0       0.1       0.0       0.3       0.0
 2 C  s               0.1       0.0       1.0       0.0       0.2       0.1
 2 C  px             10.5       0.3       8.8       0.0       0.0       0.3
 2 C  py              1.1       0.0       1.6       0.0       0.0      10.3
 2 C  dz2             0.0       0.0       0.1       0.0       0.0       0.0
 2 C  dx2y2           0.6       0.1       0.8       0.0       3.1       0.0
 2 C  dxy             0.1       1.4       0.0       0.0       0.3       0.1
 2 C  f-3             0.0       0.1       0.0       0.0       0.0       0.2
 3 C  s               0.2       1.0       0.2       0.0       2.2       0.1
 3 C  pz              0.0       0.0       0.0       0.6       0.0       0.0
 3 C  px              2.7       0.0       1.0       0.0       2.6      10.8
 3 C  py              2.9       0.0       1.3       0.0       7.8       2.5
 3 C  dxz             0.0       0.0       0.0       0.4       0.0       0.0
 3 C  dx2y2           0.6       0.2       0.6       0.0       0.4       0.0
 3 C  dxy             0.1       0.0       1.0       0.0       0.1       0.2
 3 C  f-3             0.0       0.0       0.3       0.0       0.0       0.0
 4 C  s               0.3       0.2       0.8       0.0       0.5       0.0
 4 C  pz              0.0       0.0       0.0      11.8       0.0       0.0
 4 C  px              1.2       0.6       0.9       0.0       0.7       7.5
 4 C  py              4.1       0.0       5.1       0.0       0.1       2.4
 4 C  dxz             0.0       0.0       0.0       1.6       0.0       0.0
 4 C  dyz             0.0       0.0       0.0       2.2       0.0       0.0
 4 C  dx2y2           1.1       1.1       0.4       0.0       0.1       0.9
 4 C  dxy             0.4       0.1       0.5       0.0       2.4       0.0
 4 C  f0              0.0       0.0       0.0       0.3       0.0       0.0
 4 C  f-2             0.0       0.0       0.0       0.5       0.0       0.0
 4 C  f+3             0.0       0.0       0.0       0.0       0.0       0.1
 4 C  f-3             0.0       0.2       0.1       0.0       0.0       0.4
 5 C  s               0.0       0.1       0.2       0.0       2.7       0.0
 5 C  pz              0.0       0.0       0.0       0.6       0.0       0.0
 5 C  px              0.0       0.1       0.5       0.0      17.4       0.2
 5 C  py              3.1       0.7       7.8       0.0       0.0       9.3
 5 C  dyz             0.0       0.0       0.0       0.4       0.0       0.0
 5 C  dx2y2           0.1       0.0       0.0       0.0       0.3       0.0
 5 C  dxy             0.0       0.0       0.2       0.0       0.1       0.1
 6 O  s               2.1       1.4       1.1       0.0       0.0       1.3
 6 O  pz              0.0       0.0       0.0      79.1       0.0       0.0
 6 O  px             21.3      13.9      17.2       0.0       0.0      14.7
 6 O  py              0.7       1.2       0.7       0.0       0.2       1.2
 6 O  dx2y2           0.0       0.1       0.0       0.0       0.0       0.4
 7 C  s               1.9       1.8       1.0       0.0       0.3       0.2
 7 C  px              4.1       9.2       5.3       0.0       0.8       0.7
 7 C  py              7.2      13.2       0.7       0.0       0.2       1.0
 7 C  dx2y2           0.1       0.7       0.4       0.0       0.0       0.7
 7 C  dxy             0.2       0.1       0.4       0.0       0.0       0.3
 7 C  f-3             0.0       0.5       0.1       0.0       0.0       0.4
 8 O  s               2.9       0.6       0.4       0.0       0.1       0.1
 8 O  px              3.0      34.4       2.6       0.0       0.5       7.3
 8 O  py             15.7       0.9       8.0       0.0       1.2       0.2
 8 O  dx2y2           0.0       0.1       0.0       0.0       0.0       0.0
 8 O  dxy             0.0       0.1       0.0       0.0       0.0       0.0
 9 H  s               0.8       0.2       0.4       0.0       0.2       0.0
 9 H  px              0.0       0.0       0.1       0.0       0.0       0.1
10 H  s               0.1       0.2       1.9       0.0      10.4       0.3
10 H  px              0.0       0.0       0.2       0.0       0.2       0.0
10 H  py              0.0       0.0       0.0       0.0       0.3       0.1
11 H  s               0.1       0.3       0.5       0.0       8.7       0.1
11 H  px              0.1       0.0       0.0       0.0       0.0       0.1
11 H  py              0.0       0.0       0.0       0.0       0.4       0.0
12 H  s               0.1       0.1       0.7       0.0      12.9       0.0
12 H  px              0.0       0.0       0.1       0.0       0.6       0.0
12 H  py              0.0       0.0       0.1       0.0       0.0       0.1
13 H  s               1.1       1.5       0.2       0.0       0.2       2.1
13 H  pz              0.0       0.0       0.0       1.8       0.0       0.0
13 H  px              0.2       0.1       0.3       0.0       0.0       0.1
13 H  py              0.1       0.1       0.1       0.0       0.0       0.1
14 H  s               2.2      10.5       0.2       0.0       0.1       1.0
14 H  px              0.2       0.1       0.1       0.0       0.0       0.0
14 H  py              0.0       0.6       0.0       0.0       0.0       0.1

                     24        25        26        27        28        29   
                  -0.91789  -0.89338  -0.84925  -0.83031  -0.80591  -0.78253
                   2.00000   2.00000   2.00000   2.00000   2.00000   2.00000
                  --------  --------  --------  --------  --------  --------
 0 C  s               0.0       0.9       0.0       0.5       0.0       0.0
 0 C  pz              0.0       0.0       0.0       0.0       0.0      14.5
 0 C  px              0.0       4.0       6.6       0.5       2.1       0.0
 0 C  py              0.0      24.5       1.1       7.3       1.0       0.0
 0 C  dxz             0.0       0.0       0.0       0.0       0.0       0.1
 0 C  dyz             0.0       0.0       0.0       0.0       0.0       0.5
 0 C  dx2y2           0.0       0.6       0.7       1.9       0.5       0.0
 0 C  dxy             0.0       0.6       0.7       2.3       0.3       0.0
 0 C  f0              0.0       0.0       0.0       0.0       0.0       0.1
 0 C  f-3             0.0       0.0       0.4       0.0       0.0       0.0
 1 C  s               0.0       0.3       0.3       0.2       0.0       0.0
 1 C  pz              0.1       0.0       0.0       0.0       0.0      15.9
 1 C  px              0.0       2.8      11.0       0.5       1.8       0.0
 1 C  py              0.0       0.7       7.0       9.8       0.4       0.0
 1 C  dz2             0.0       0.1       0.1       0.0       0.0       0.0
 1 C  dxz             0.0       0.0       0.0       0.0       0.0       0.2
 1 C  dyz             0.0       0.0       0.0       0.0       0.0       0.5
 1 C  dx2y2           0.0       0.7       0.0       0.0       0.2       0.0
 1 C  dxy             0.0       0.6       1.9       3.2       0.3       0.0
 1 C  f0              0.0       0.0       0.0       0.0       0.0       0.1
 1 C  f-3             0.0       0.3       0.0       0.0       0.1       0.0
 2 C  s               0.0       0.6       0.0       0.3       0.5       0.0
[...]
 5 C  s               0.1       0.0       0.5       0.0       0.0       0.0
 5 C  px              0.0       0.0       0.2       0.0       0.0       0.1
 5 C  f-3             0.0       0.0       0.0       0.0       0.0       0.2
 6 O  s               2.2       0.0       1.0       0.0       0.1       3.0
 6 O  px              3.2       0.0       0.2       0.0       0.0       0.1
 6 O  py              1.1       0.0       2.4       0.0       0.1       0.9
 6 O  dz2            39.9       0.0       8.1       0.1       0.6       5.6
 6 O  dx2y2          30.6       0.0      13.8       0.3       0.6      32.0
 6 O  dxy             0.2       0.0      55.7       0.3       1.6      15.1
 6 O  f+1             7.1       0.0       0.1       0.0       0.1       0.9
 6 O  f-1             0.5       0.0       3.7       0.0       0.1       2.4
 6 O  f+3             2.7       0.0       1.7       0.3       0.1      21.2
 6 O  f-3             3.2       0.0       0.9       0.0       0.2       3.7
 7 C  s               0.0       0.0       0.0       1.4       2.1       0.0
 7 C  pz              0.0       1.9       0.0       0.0       0.0       0.0
 7 C  px              0.0       0.0       0.1       1.2       1.1       0.0
 7 C  py              0.0       0.0       0.0       0.9       1.4       0.0
 7 C  dz2             0.0       0.0       0.0       0.1       0.1       0.0
 7 C  dxz             0.0       0.7       0.0       0.0       0.0       0.0
 7 C  dyz             0.0       2.6       0.0       0.0       0.0       0.0
 7 C  dx2y2           0.0       0.0       0.1       2.3       0.7       0.0
 7 C  dxy             0.0       0.0       0.1       0.6       1.1       0.0
 7 C  f0              0.0       0.3       0.0       0.0       0.0       0.0
 7 C  f+1             0.0       0.0       0.0       0.0       0.3       0.0
 7 C  f-1             0.0       0.0       0.0       0.2       0.2       0.0
 7 C  f+2             0.0       0.2       0.0       0.0       0.0       0.0
 7 C  f-2             0.0       0.3       0.0       0.0       0.0       0.0
 7 C  f+3             0.0       0.0       0.0       0.3       1.6       0.0
 7 C  f-3             0.0       0.0       0.0       0.7       0.2       0.0
 8 O  s               0.0       0.0       0.0       0.5       1.4       0.0
 8 O  pz              0.0       2.2       0.0       0.0       0.0       0.0
 8 O  px              0.0       0.0       0.1       1.0       2.2       0.0
 8 O  py              0.0       0.0       0.0       1.7       0.7       0.0
 8 O  dz2             0.0       0.0       0.4       3.9      16.7       0.0
 8 O  dxz             0.0      15.1       0.0       0.0       0.0       0.0
 8 O  dyz             0.0      51.0       0.0       0.0       0.0       0.0
 8 O  dx2y2           0.0       0.0       0.7      61.4       0.1       0.1
 8 O  dxy             0.1       0.0       2.1       0.2      46.8       0.0
 8 O  f0              0.0       9.5       0.0       0.0       0.0       0.0
 8 O  f+1             0.0       0.0       0.1       0.1       2.6       0.0
 8 O  f-1             0.0       0.0       0.0       2.0       2.9       0.0
 8 O  f+2             0.0       5.0       0.0       0.0       0.0       0.0
 8 O  f-2             0.0      10.9       0.0       0.0       0.0       0.0
 8 O  f+3             0.0       0.0       0.1       0.9       6.5       0.0
 8 O  f-3             0.0       0.0       0.7      17.7       5.5       0.1
13 H  s               2.3       0.0       0.3       0.0       0.0       6.7
13 H  px              0.0       0.0       0.1       0.0       0.0       0.1
13 H  py              0.3       0.0       0.0       0.0       0.0       0.4
14 H  s               0.0       0.0       0.0       0.1       0.0       0.0

                    306       307       308       309       310       311   
                  20.51525  21.02045  21.10633  21.14725  21.30318  21.36527
                   0.00000   0.00000   0.00000   0.00000   0.00000   0.00000
                  --------  --------  --------  --------  --------  --------
 0 C  s              21.7       0.4      64.1       6.4       0.2       0.2
 0 C  px              0.0       0.4       0.0       0.0       0.1       0.0
 1 C  s              14.4      40.7       0.6      26.9       0.7       1.7
 1 C  px              0.1       0.0       0.2       0.0       0.3       0.0
 1 C  py              0.0       0.0       0.2       0.0       0.1       0.0
 1 C  dx2y2           0.0       0.0       0.1       0.0       0.0       0.0
 2 C  s              14.2       3.3       7.0       1.0      13.1      31.4
 2 C  px              0.1       0.0       0.0       0.0       0.4       0.0
 2 C  py              0.0       0.1       0.2       0.4       0.0       0.0
 2 C  dx2y2           0.1       0.1       0.0       0.0       0.3       0.0
 2 C  dxy             0.0       0.0       0.1       0.3       0.0       0.0
 3 C  s              17.4       2.9      12.4      51.6       0.1       0.0
 3 C  px              0.0       0.1       0.0       0.0       0.3       0.2
 4 C  s               9.1       0.9      11.7       0.8       4.4      46.4
 4 C  px              0.0       0.1       0.1       0.2       0.0       0.0
 4 C  py              0.1       0.2       0.0       0.1       0.0       0.0
 4 C  dx2y2           0.0       0.1       0.0       0.1       0.0       0.0
 5 C  s              19.8      45.0       1.7      10.7       5.0       6.2
 5 C  py              0.0       0.0       0.5       0.0       0.0       0.1
 5 C  dxy             0.0       0.0       0.2       0.0       0.0       0.0
 6 O  s               0.2       0.0       0.0       0.0       0.0       0.1
 6 O  py              0.0       0.0       0.0       0.0       0.0       0.1
 7 C  s               1.2       4.7       0.1       0.6      72.5      12.5
 7 C  px              0.2       0.0       0.0       0.0       0.1       0.0
 7 C  py              0.0       0.0       0.0       0.0       0.1       0.0
 8 O  s               0.1       0.0       0.0       0.0       0.7       0.1
 8 O  px              0.0       0.0       0.0       0.0       0.1       0.0
 8 O  py              0.0       0.0       0.0       0.0       0.4       0.1
 9 H  s               0.1       0.0       0.1       0.0       0.0       0.0
14 H  s               0.0       0.0       0.0       0.0       0.2       0.0

                    312       313       314   
                  21.68304  41.45101  41.56812
                   0.00000   0.00000   0.00000
                  --------  --------  --------
 0 C  s               4.9       0.0       0.0
 1 C  s              12.8       0.0       0.0
 2 C  s              28.6       0.0       0.0
 3 C  s              13.5       0.0       0.0
 4 C  s              24.2       0.0       0.0
 5 C  s               9.6       0.0       0.0
 6 O  s               0.1       2.6      97.2
 7 C  s               4.8       0.0       0.0
 8 O  s               0.0      97.2       2.6


                      *****************************
                      * MAYER POPULATION ANALYSIS *
                      *****************************

  NA   - Mulliken gross atomic population
  ZA   - Total nuclear charge
  QA   - Mulliken gross atomic charge
  VA   - Mayer's total valence
  BVA  - Mayer's bonded valence
  FA   - Mayer's free valence

  ATOM       NA         ZA         QA         VA         BVA        FA
  0 C      6.1215     6.0000    -0.1215     3.8829     3.8829    -0.0000
  1 C      6.2396     6.0000    -0.2396     3.9336     3.9336     0.0000
  2 C      5.8489     6.0000     0.1511     3.4118     3.4118    -0.0000
  3 C      6.3160     6.0000    -0.3160     3.8812     3.8812    -0.0000
  4 C      5.7027     6.0000     0.2973     3.9457     3.9457    -0.0000
  5 C      6.2304     6.0000    -0.2304     3.9612     3.9612    -0.0000
  6 O      8.4625     8.0000    -0.4625     2.0371     2.0371    -0.0000
  7 C      5.8461     6.0000     0.1539     3.9968     3.9968    -0.0000
  8 O      8.4275     8.0000    -0.4275     2.0403     2.0403    -0.0000
  9 H      0.8306     1.0000     0.1694     0.9597     0.9597    -0.0000
 10 H      0.8270     1.0000     0.1730     0.9638     0.9638     0.0000
 11 H      0.8278     1.0000     0.1722     0.9860     0.9860    -0.0000
 12 H      0.8351     1.0000     0.1649     0.9768     0.9768     0.0000
 13 H      0.6190     1.0000     0.3810     0.8667     0.8667    -0.0000
 14 H      0.8652     1.0000     0.1348     0.9616     0.9616    -0.0000

  Mayer bond orders larger than 0.100000
B(  0-C ,  1-C ) :   1.3957 B(  0-C ,  5-C ) :   1.4463 B(  0-C ,  9-H ) :   0.9730 
B(  1-C ,  2-C ) :   1.3530 B(  1-C , 10-H ) :   0.9675 B(  2-C ,  3-C ) :   1.2721 
B(  2-C ,  7-C ) :   0.9379 B(  2-C ,  8-O ) :  -0.1166 B(  3-C ,  4-C ) :   1.4187 
B(  3-C , 11-H ) :   0.9498 B(  4-C ,  5-C ) :   1.3418 B(  4-C ,  6-O ) :   1.1219 
B(  5-C , 12-H ) :   0.9733 B(  6-O , 13-H ) :   0.8465 B(  7-C ,  8-O ) :   1.9999 
B(  7-C , 14-H ) :   0.9987 

-------
TIMINGS
-------

Total SCF time: 0 days 0 hours 2 min 31 sec 

Total time                  ....     151.935 sec
Sum of individual times     ....     149.264 sec  ( 98.2%)

SCF preparation             ....       0.341 sec  (  0.2%)
Fock matrix formation       ....     147.478 sec  ( 97.1%)
  Startup                   ....       0.064 sec  (  0.0% of F)
  Split-RI-J                ....       5.980 sec  (  4.1% of F)
  Chain of spheres X        ....     122.103 sec  ( 82.8% of F)
  XC integration            ....      14.671 sec  (  9.9% of F)
    XC Preparation          ....       0.000 sec  (  0.0% of XC)
    Basis function eval.    ....       3.269 sec  ( 22.3% of XC)
    Density eval.           ....       2.707 sec  ( 18.5% of XC)
    XC-Functional eval.     ....       3.005 sec  ( 20.5% of XC)
    XC-Potential eval.      ....       4.949 sec  ( 33.7% of XC)
  CPCM terms                ....       6.221 sec  (  4.2% of F)
Diagonalization             ....       0.000 sec  (  0.0%)
Density matrix formation    ....       0.301 sec  (  0.2%)
Total Energy calculation    ....       0.057 sec  (  0.0%)
Population analysis         ....       0.172 sec  (  0.1%)
Orbital Transformation      ....       0.078 sec  (  0.1%)
Orbital Orthonormalization  ....       0.000 sec  (  0.0%)
DIIS solution               ....       0.351 sec  (  0.2%)
  MO trafo                  ....       0.000 sec  (  0.0 % of DIIS)
  Orb grad                  ....       0.000 sec  (  0.0 % of DIIS)
  Energy W gradient         ....       0.000 sec  (  0.0 % of DIIS)
  DIIS error                ....       0.015 sec  (  4.2 % of DIIS)
  DIIS work                 ....       0.287 sec  ( 81.6 % of DIIS)
  Form Q                    ....       0.000 sec  (  0.0 % of DIIS)
  Form QpQm                 ....       0.000 sec  (  0.0 % of DIIS)
  Exp/Cayley                ....       0.000 sec  (  0.0 % of DIIS)
  Orb update                ....       0.000 sec  (  0.0 % of DIIS)
  Wake-sleep                ....       0.012 sec  (  3.5 % of DIIS)
SOSCF solution              ....       0.307 sec  (  0.2%)
  MO trafo                  ....       0.096 sec  ( 31.3 % of SOSCF)
  Orb grad                  ....       0.004 sec  (  1.2 % of SOSCF)
  Rot update                ....       0.121 sec  ( 39.2 % of SOSCF)
  Step                      ....       0.087 sec  ( 28.2 % of SOSCF)
Grid generation             ....       0.177 sec  (  0.1%)
Finished LeanSCF after 152.0 sec

Maximum memory used throughout the entire LEANSCF-calculation: 41.6 MB
------------------   -----------------
gCP correction             0.007537866
------------------   -----------------

-------------------------   --------------------
FINAL SINGLE POINT ENERGY      -420.834577657240
-------------------------   --------------------


------------------------------------------------------------------------------
                              ORCA PROPERTY CALCULATIONS
------------------------------------------------------------------------------

GBWName                                 ... sp_solv.gbw
Number of atoms                         ...     15
Number of basis functions               ...    315
Max core memory                         ...   1024 MB

Electric properties:
Dipole moment                           ... YES
Quadrupole moment                       ...  NO
Static polarizability (Dipole/Dipole)   ...  NO
Static polarizability (Dipole/Quad.)    ...  NO
Static polarizability (Quad./Quad.)     ...  NO
Static polarizability (Velocity)        ...  NO

Atomic electric properties:
Dipole moment                           ...  NO
Quadrupole moment                       ...  NO
Static polarizability                   ...  NO

Choice of electric origin               ... Center of mass
Position of electric origin             ...     0.004336     0.001165     0.000096

General magnetic properties:
Magnetizability                         ...  NO

EPR properties:
g-Tensor (aka g-matrix)                 ...  NO
Zero-Field splitting spin-orbit         ...  NO
Zero-field splitting spin-spin          ...  NO
Hyperfine couplings                     ...  NO (   0 nuclei)
Quadrupole couplings                    ...  NO (   0 nuclei)
Contact density                         ...  NO (   0 nuclei)

NMR properties:
Chemical shifts                         ...  NO (   0 nuclei)
Spin-rotation constants                 ...  NO (   0 nuclei)
Spin-spin couplings                     ...  NO (   0 nuclei,    0 pairs)

Choice of magnetic origin               ... GIAO
Position of magnetic origin             ...     0.000000     0.000000     0.000000

Properties with geometric perturbations:
SCF Hessian                             ...  NO
IR spectrum                             ...  NO
VCD spectrum                            ...  NO
X-ray spectroscopy properties:
SCF XES/XAS/RIXS spectra                ...  NO


-------------
DIPOLE MOMENT
-------------

Method             : SCF
Type of density    : Electron Density
Multiplicity       :   1
Irrep              :   0
Energy             :  -420.8421155227400732 Eh
Relativity type    : 
Basis              : AO
                                X                 Y                 Z
Electronic contribution:      0.860647662       1.807635069       0.001824292
Nuclear contribution   :     -1.673833009      -2.707288238      -0.001250815
                        -----------------------------------------
Total Dipole Moment    :     -0.813185347      -0.899653168       0.000573477
                        -----------------------------------------
Magnitude (a.u.)       :      1.212702173
Magnitude (Debye)      :      3.082443958



--------------------
Rotational spectrum 
--------------------
 
Rotational constants in cm-1:             0.098384             0.042947             0.029896 
Rotational constants in MHz :          2949.480238          1287.520006           896.274429 

Dipole components along the rotational axes: 
x,y,z [a.u.] :     0.806113    -0.905996     0.000594 
x,y,z [Debye]:     2.048976    -2.302858     0.001510 

 

Dipole moment calculation done in   0.0 sec 

Maximum memory used throughout the entire PROP-calculation: 26.3 MB

--------------------------------
SUGGESTED CITATIONS FOR THIS RUN
--------------------------------

Below you find a list of papers that are relevant to this ORCA run
We neither can nor want to force you to cite these papers, but we appreciate if you do
You receive ORCA, which is the product of decades of hard work by many enthusiastic individuals, for free
The only thing we kindly ask in return is that you cite our papers,
We deeply appreciate it, if you show your appreciation for ORCA by not just citing the generic ORCA reference.

Please note that relegating all ORCA citations to the supporting information does *not* help us.
SI sections are not indexed - citations you put there will not count into any citation statistics
But we need these citations in order to attract the funding resources that allow us to do what we are doing

Therefore, if you are a happy ORCA user, please consider citing a few of the papers listed below in the main body of your paper

In addition to the list printed below, the program has created the file sp_solv.bibtex that contains the list in bibtex format
You can import this file easily into all common literature databanks and citation aid programs


List of essential papers. We consider these as the minimum necessary citations

  1. Neese,F.
     Software update: the ORCA program system, version 5.0
     WIRES Comput. Molec. Sci., 2022 12(1)e1606
     doi.org/10.1002/wcms.1606

List of papers to cite with high priority. The work reported in these papers was absolutely
necessary for this run to complete.
Our perspective: the developers of density functionals and basis sets usually get cited in chemistry papers
Good! But without the algorithms to do something with them, the functionals or basis sets would not do anything.
Hence, in our opinion, the algorithm design and method developments papers are equally worthy of getting cited

  1. Neese,F.
     An improvement of the resolution of the identity approximation for the formation of the Coulomb matrix
     J. Comp. Chem., 2003 24(14)1740-1747
     doi.org/10.1002/jcc.10318
  2. Neese,F.; Wennmohs,F.; Hansen,A.; Becker,U.
     Efficient, approximate and parallel Hartree-Fock and hybrid DFT calculations. A 'chain-of-spheres' algorithm for the Hartree-Fock exchange
     Chem. Phys., 2009 356(1-3)98-109
     doi.org/10.1016/j.chemphys.2008.10.036
  3. Garcia-Rates,M.; Neese,F.
     Effect of the Solute Cavity on the Solvation Energy and its Derivatives within the Framework of the Gaussian Charge Scheme
     J. Comput. Chem., 2020 41 922-939
     doi.org/10.1002/jcc.26139
  4. Helmich-Paris,B.; de Souza,B.; Neese,F.; Izsák,R.
     An improved chain of spheres for exchange algorithm
     J. Chem. Phys., 2021 155 104109
     doi.org/doi: 10.1063/5.0058766.
  5. Neese,F.
     The SHARK Integral Generation and Digestion System
     J. Comp. Chem., 2022  1-16
     doi.org/10.1002/jcc.26942

List of suggested additional citations. These are papers that are important in the 'surrounding' of 
of this run, or papers that preceded the highly important papers. If you like your results we are grateful for a citation.

  1. Izsak,R.; Neese,F.
     An overlap fitted chain of spheres exchange method
     J. Chem. Phys., 2011 135 144105
     doi.org/10.1063/1.3646921
  2. Izsak,R.; Hansen,A.; Neese,F.
     The resolution of identity and chain of spheres approximations for the LPNO-CCSD singles Fock term
     Molec. Phys., 2012 110 2413-2417
     doi.org/10.1080/00268976.2012.687466
  3. Neese,F.
     The ORCA program system
     WIRES Comput. Molec. Sci., 2012 2(1)73-78
     doi.org/10.1002/wcms.81
  4. Izsak,R.; Neese,F.; Klopper,W.
     Robust fitting techniques in the chain of spheres approximation to the Fock exchange: The role of the complementary space
     J. Chem. Phys., 2013 139 
     doi.org/10.1063/1.4819264
  5. Neese,F.
     Software update: the ORCA program system, version 4.0
     WIRES Comput. Molec. Sci., 2018 8(1)1-6
     doi.org/10.1002/wcms.1327
  6. Neese,F.; Wennmohs,F.; Becker,U.; Riplinger,C.
     The ORCA quantum chemistry program package
     J. Chem. Phys., 2020 152 Art. No. L224108
     doi.org/10.1063/5.0004608

List of optional additional citations

  1. Neese,F.
     Approximate second-order SCF convergence for spin unrestricted wavefunctions
     Chem. Phys. Lett., 2000 325(1-3)93-98
     doi.org/10.1016/s0009-2614(00)00662-x

Timings for individual modules:

Sum of individual times          ...      154.492 sec (=   2.575 min)
Startup calculation              ...        2.016 sec (=   0.034 min)   1.3 %
SCF iterations                   ...      152.348 sec (=   2.539 min)  98.6 %
Property calculations            ...        0.128 sec (=   0.002 min)   0.1 %
                             ****ORCA TERMINATED NORMALLY****
TOTAL RUN TIME: 0 days 0 hours 2 minutes 35 seconds 246 msec
