
                                 *****************
                                 * O   R   C   A *
                                 *****************

                                            #,                                       
                                            ###                                      
                                            ####                                     
                                            #####                                    
                                            ######                                   
                                           ########,                                 
                                     ,,################,,,,,                         
                               ,,#################################,,                 
                          ,,##########################################,,             
                       ,#########################################, ''#####,          
                    ,#############################################,,   '####,        
                  ,##################################################,,,,####,       
                ,###########''''           ''''###############################       
              ,#####''   ,,,,##########,,,,          '''####'''          '####       
            ,##' ,,,,###########################,,,                        '##       
           ' ,,###''''                  '''############,,,                           
         ,,##''                                '''############,,,,        ,,,,,,###''
      ,#''                                            '''#######################'''  
     '                                                          ''''####''''         
             ,#######,   #######,   ,#######,      ##                                
            ,#'     '#,  ##    ##  ,#'     '#,    #''#        ,####,   ,####,        
            ##       ##  ##   ,#'  ##            #'  '#       #'       #'  '#        
            ##       ##  #######   ##           ,######,      #####,   #    #        
            '#,     ,#'  ##    ##  '#,     ,#' ,#      #,     #,   #   #,  ,#        
             '#######'   ##     ##  '#######'  #'      '#     '####' # '####'        



                #########################################################
                #                        -***-                          #
                #          Department of theory and spectroscopy        #
                #                                                       #
                #                      Frank Neese                      #
                #                                                       #
                #     Directorship, Architecture, Infrastructure        #
                #                    SHARK, DRIVERS                     #
                #        Core code/Algorithms in most modules           #
                #                                                       #
                #        Max Planck Institute fuer Kohlenforschung      #
                #                Kaiser Wilhelm Platz 1                 #
                #                 D-45470 Muelheim/Ruhr                 #
                #                      Germany                          #
                #                                                       #
                #                  All rights reserved                  #
                #                        -***-                          #
                #########################################################


                         Program Version 6.0.0  -   RELEASE  -


 With contributions from (in alphabetic order):
   Daniel Aravena         : Magnetic Suceptibility
   Michael Atanasov       : Ab Initio Ligand Field Theory (pilot matlab implementation)
   Alexander A. Auer      : GIAO ZORA, VPT2 properties, NMR spectrum
   Ute Becker             : All parallelization in ORCA, NUMFREQ, NUMCALC
   Giovanni Bistoni       : ED, misc. LED, open-shell LED, HFLD
   Martin Brehm           : Molecular dynamics
   Dmytro Bykov           : pre 5.0 version of the SCF Hessian
   Marcos Casanova-Páez   : Triplet and SCS-CIS(D). UHF-(DLPNO)-IP/EA/STEOM-CCSD. UHF-CVS-IP/STEOM-CCSD
   Vijay G. Chilkuri      : MRCI spin determinant printing, contributions to CSF-ICE
   Pauline Colinet        : FMM embedding
   Dipayan Datta          : RHF DLPNO-CCSD density
   Achintya Kumar Dutta   : EOM-CC, STEOM-CC
   Nicolas Foglia         : Exact transition moments, OPA infrastructure, MCD improvements
   Dmitry Ganyushin       : Spin-Orbit,Spin-Spin,Magnetic field MRCI
   Miquel Garcia          : C-PCM and meta-GGA Hessian, CCSD/C-PCM, Gaussian charge scheme
   Tiago L. C. Gouveia    : GS-ROHF, GS-ROCIS
   Yang Guo               : DLPNO-NEVPT2, F12-NEVPT2, CIM, IAO-localization
   Andreas Hansen         : Spin unrestricted coupled pair/coupled cluster methods
   Ingolf Harden          : AUTO-CI MPn and infrastructure 
   Benjamin Helmich-Paris : MC-RPA, TRAH-(SCF,CASSCF), AVAS, COSX integrals, SCF dyn. polar.
   Lee Huntington         : MR-EOM, pCC
   Robert Izsak           : Overlap fitted RIJCOSX, COSX-SCS-MP3, EOM
   Riya Kayal             : Wick's Theorem for AUTO-CI, AUTO-CI UHF-CCSDT
   Emily Kempfer          : AUTO-CI, RHF CISDT and CCSDT
   Christian Kollmar      : KDIIS, OOCD, Brueckner-CCSD(T), CCSD density, CASPT2, CASPT2-K, improved NEVPT2
   Axel Koslowski         : Symmetry handling
   Simone Kossmann        : Meta GGA functionals, TD-DFT gradient, OOMP2, (MP2 Hessian; deprecated post 5.0)
   Lucas Lang             : DCDCAS
   Marvin Lechner         : AUTO-CI (C++ implementation), FIC-MRCC
   Spencer Leger          : CASSCF response
   Dagmar Lenk            : GEPOL surface, SMD, ORCA-2-JSON
   Dimitrios Liakos       : Extrapolation schemes; Compound Job, initial MDCI parallelization
   Dimitrios Manganas     : Further ROCIS development; embedding schemes. LFT, Crystal Embedding
   Dimitrios Pantazis     : SARC Basis sets
   Anastasios Papadopoulos: AUTO-CI, single reference methods and gradients
   Taras Petrenko         : pre 6.0 DFT Hessian and TD-DFT gradient, (ASA, deprecated), ECA, 1-Electron XAS/XES, NRVS
   Peter Pinski           : DLPNO-MP2, DLPNO-MP2 Gradient
   Christoph Reimann      : Effective Core Potentials
   Marius Retegan         : Local ZFS, SOC
   Christoph Riplinger    : Optimizer, TS searches, QM/MM, DLPNO-CCSD(T), (RO)-DLPNO pert. Triples
   Michael Roemelt        : Original ROCIS implementation
   Masaaki Saitow         : Open-shell DLPNO-CCSD energy and density
   Barbara Sandhoefer     : DKH picture change effects
   Kantharuban Sivalingam : CASSCF convergence/infrastructure, NEVPT2 and variants, FIC-MRCI
   Bernardo de Souza      : ESD, SOC TD-DFT
   Georgi Stoychev        : AutoAux, RI-MP2 NMR, DLPNO-MP2 response, X2C
   Van Anh Tran           : RI-MP2 g-tensors
   Willem Van den Heuvel  : Paramagnetic NMR
   Zikuan Wang            : NOTCH, Electric field optimization 
   Frank Wennmohs         : Technical directorship and infrastructure
   Hang Xu                : AUTO-CI-Response properties 


 We gratefully acknowledge several colleagues who have allowed us to
 interface, adapt or use parts of their codes:
   Stefan Grimme, W. Hujo, H. Kruse, P. Pracht,  : VdW corrections, initial TS optimization,
                  C. Bannwarth, S. Ehlert,         DFT functionals, gCP, sTDA/sTD-DF
                  L. Wittmann, M. Mueller
   Ed Valeev, F. Pavosevic, A. Kumar             : LibInt (2-el integral package), F12 methods
   Garnet Chan, S. Sharma, J. Yang, R. Olivares  : DMRG
   Ulf Ekstrom                                   : XCFun DFT Library
   Mihaly Kallay                                 : mrcc  (arbitrary order and MRCC methods)
   Frank Weinhold                                : gennbo (NPA and NBO analysis)
   Simon Mueller                                 : openCOSMO-RS
   Christopher J. Cramer and Donald G. Truhlar   : smd solvation model
   Lars Goerigk                                  : TD-DFT with DH, B97 family of functionals
   V. Asgeirsson, H. Jonsson                     : NEB implementation
   FAccTs GmbH                                   : IRC, NEB, NEB-TS, DLPNO-Multilevel, CI-OPT
                                                   MM, QMMM, 2- and 3-layer-ONIOM, Crystal-QMMM,
                                                   LR-CPCM, SF, NACMEs, symmetry and pop. for TD-DFT,
                                                   nearIR, NL-DFT gradient (VV10), updates on ESD,
                                                   ML-optimized integration grids, MBIS, APM,
                                                   GOAT, DOCKER, SOLVATOR, interface openCOSMO-RS
   S Lehtola, MJT Oliveira, MAL Marques          : LibXC Library
   Liviu Ungur et al                             : ANISO software


 Your calculation uses the libint2 library for the computation of 2-el integrals
 For citations please refer to: http://libint.valeyev.net

 Your ORCA version has been built with support for libXC version: 6.2.2
 For citations please refer to: https://libxc.gitlab.io

 This ORCA versions uses:
   CBLAS   interface :  Fast vector & matrix operations
   LAPACKE interface :  Fast linear algebra routines
   SCALAPACK package :  Parallel linear algebra routines
   Shared memory     :  Shared parallel matrices
   BLAS/LAPACK       :  OpenBLAS 0.3.27  USE64BITINT DYNAMIC_ARCH NO_AFFINITY SkylakeX SINGLE_THREADED
        Core in use  :  SkylakeX
   Copyright (c) 2011-2014, The OpenBLAS Project


Your calculation utilizes the geometrical counterpoise correction gCP
Please cite in your paper:
H.Kruse, S. Grimme J.Chem.Phys., 136, (2012), 154101 
   

Your calculation utilizes the DFT-NL dispersion correction.
Cite in your paper:
Vydrov, O. A.; Van Voorhis, T. J. Chem. Phys. 2010, 133, 244103
Hujo, W.; Grimme, S. J. Chem. Theory Comput. 2011, 7, 3866 
   

================================================================================

----- Orbital basis set information -----
Your calculation utilizes the basis: def2-TZVP
   F. Weigend and R. Ahlrichs, Phys. Chem. Chem. Phys. 7, 3297 (2005).

----- AuxJ basis set information -----
Your calculation utilizes the auxiliary basis: def2/J
   F. Weigend, Phys. Chem. Chem. Phys. 8, 1057 (2006).

================================================================================
                                        WARNINGS
                       Please study these warnings very carefully!
================================================================================


================================================================================
                                       INPUT FILE
================================================================================
NAME = sp_gas.inp
|  1> ! wb97x-v def2-tzvp def2/J RIJCOSX DEFGRID2 scfconv7 GCP(DFT/TZ) printgap
|  2> %output
|  3>     printlevel normal
|  4> end
|  5> * xyz 0 1
|  6> C -2.6440034226371933 -0.47217695828077955 1.0464226311040328
|  7> C -1.7796263612352645 0.1215837674137386 -0.03101928493620656
|  8> O -2.25993526473484 0.41707407716604 -1.122773401168893
|  9> C -0.31176813328244257 0.30268383560941287 0.2707237508664516
| 10> C 0.4439370047829778 1.0301127362673705 -0.8391855392246257
| 11> C 1.9236774808103771 1.187229850485129 -0.48517213371756424
| 12> C 2.5687020646347025 -0.17037162988689647 -0.2036794044222042
| 13> C 1.8179762058245872 -0.9103974483030361 0.90332360004486
| 14> C 0.33394411617582465 -1.0711516937719092 0.5687362727682915
| 15> H -2.250090594121217 -0.280607873135484 2.0467810788927236
| 16> H -3.66463084699637 -0.09565152785637021 0.9546406824989513
| 17> H -2.672758495601433 -1.5589839861346593 0.9006302113543126
| 18> H -0.25977553824175315 0.8905069312641645 1.2009916339102271
| 19> H 0.3521523584279043 0.45426074604294664 -1.7692624518272255
| 20> H -0.013838433656016887 2.008672535788689 -1.0222529298316356
| 21> H 2.448701641150093 1.6973954378942424 -1.3008888860813874
| 22> H 2.0192958549382545 1.8250708372401536 0.4046723728167909
| 23> H 2.5510188394053035 -0.7759464502594734 -1.1207629068759122
| 24> H 3.6212043061535177 -0.04220024158078967 0.07462717416090311
| 25> H 2.262310424813829 -1.8979202207020387 1.0737257751951215
| 26> H 1.9114545461273773 -0.3477150043699673 1.8423346173743442
| 27> H 0.22014618542765865 -1.7096598215784202 -0.3182578427739906
| 28> H -0.1854693403372496 -1.564813448442469 1.3963493099328252
| 29> *
| 30> 
| 31>                          ****END OF INPUT****
================================================================================

                       ****************************
                       * Single Point Calculation *
                       ****************************

---------------------------------
CARTESIAN COORDINATES (ANGSTROEM)
---------------------------------
  C     -2.644003   -0.472177    1.046423
  C     -1.779626    0.121584   -0.031019
  O     -2.259935    0.417074   -1.122773
  C     -0.311768    0.302684    0.270724
  C      0.443937    1.030113   -0.839186
  C      1.923677    1.187230   -0.485172
  C      2.568702   -0.170372   -0.203679
  C      1.817976   -0.910397    0.903324
  C      0.333944   -1.071152    0.568736
  H     -2.250091   -0.280608    2.046781
  H     -3.664631   -0.095652    0.954641
  H     -2.672758   -1.558984    0.900630
  H     -0.259776    0.890507    1.200992
  H      0.352152    0.454261   -1.769262
  H     -0.013838    2.008673   -1.022253
  H      2.448702    1.697395   -1.300889
  H      2.019296    1.825071    0.404672
  H      2.551019   -0.775946   -1.120763
  H      3.621204   -0.042200    0.074627
  H      2.262310   -1.897920    1.073726
  H      1.911455   -0.347715    1.842335
  H      0.220146   -1.709660   -0.318258
  H     -0.185469   -1.564813    1.396349

----------------------------
CARTESIAN COORDINATES (A.U.)
----------------------------
  NO LB      ZA    FRAG     MASS         X           Y           Z
   0 C     6.0000    0    12.011   -4.996442   -0.892285    1.977452
   1 C     6.0000    0    12.011   -3.363006    0.229760   -0.058618
   2 O     8.0000    0    15.999   -4.270659    0.788156   -2.121734
   3 C     6.0000    0    12.011   -0.589156    0.571990    0.511594
   4 C     6.0000    0    12.011    0.838919    1.946631   -1.585831
   5 C     6.0000    0    12.011    3.635224    2.243539   -0.916842
   6 C     6.0000    0    12.011    4.854143   -0.321956   -0.384898
   7 C     6.0000    0    12.011    3.435477   -1.720402    1.707034
   8 C     6.0000    0    12.011    0.631063   -2.024183    1.074756
   9 H     1.0000    0     1.008   -4.252055   -0.530272    3.867856
  10 H     1.0000    0     1.008   -6.925149   -0.180755    1.804009
  11 H     1.0000    0     1.008   -5.050782   -2.946053    1.701944
  12 H     1.0000    0     1.008   -0.490905    1.682814    2.269545
  13 H     1.0000    0     1.008    0.665472    0.858428   -3.343421
  14 H     1.0000    0     1.008   -0.026151    3.795841   -1.931778
  15 H     1.0000    0     1.008    4.627375    3.207613   -2.458324
  16 H     1.0000    0     1.008    3.815916    3.448884    0.764720
  17 H     1.0000    0     1.008    4.820727   -1.466326   -2.117935
  18 H     1.0000    0     1.008    6.843084   -0.079747    0.141025
  19 H     1.0000    0     1.008    4.275147   -3.586549    2.029048
  20 H     1.0000    0     1.008    3.612126   -0.657086    3.481508
  21 H     1.0000    0     1.008    0.416016   -3.230789   -0.601420
  22 H     1.0000    0     1.008   -0.350486   -2.957069    2.638718

--------------------------------
INTERNAL COORDINATES (ANGSTROEM)
--------------------------------
 C      0   0   0     0.000000000000     0.00000000     0.00000000
 C      1   0   0     1.503522725500     0.00000000     0.00000000
 O      2   1   0     1.228795433036   120.46027123     0.00000000
 C      2   1   3     1.509454825997   117.59294416   181.51841173
 C      4   2   1     1.527135126124   113.14609343   185.35773701
 C      5   4   2     1.529589211276   111.06591764   180.01665361
 C      6   5   4     1.529175153438   111.06804158    56.77295195
 C      7   6   5     1.528621332740   110.85149769   303.80561930
 C      8   7   6     1.529752218537   111.64869603    55.85839706
 H      1   2   3     1.092054510963   112.32084819   205.42757128
 H      1   2   3     1.091730582699   109.93853779   329.18579802
 H      1   2   3     1.096919231152   108.12539505    86.65578592
 H      4   2   1     1.101652193729   106.18355749   305.67497046
 H      5   4   2     1.097758169775   108.93700404   300.48086704
 H      5   4   2     1.095742352372   109.88196307    57.37483397
 H      6   5   4     1.096044303668   109.81406826   179.14396624
 H      6   5   4     1.099002840608   109.34047872   296.14577935
 H      7   6   5     1.099124974694   109.19374410    64.20793258
 H      7   6   5     1.096194975753   110.36073413   181.50779164
 H      8   7   6     1.096207564956   110.46412717   177.86457244
 H      8   7   6     1.098677124310   109.22142608   295.41092818
 H      9   8   7     1.098818073807   109.76046331    64.46000584
 H      9   8   7     1.094730837291   110.01841687   182.43711820

---------------------------
INTERNAL COORDINATES (A.U.)
---------------------------
 C      0   0   0     0.000000000000     0.00000000     0.00000000
 C      1   0   0     2.841246187322     0.00000000     0.00000000
 O      2   1   0     2.322086843051   120.46027123     0.00000000
 C      2   1   3     2.852456232659   117.59294416   181.51841173
 C      4   2   1     2.885867157865   113.14609343   185.35773701
 C      5   4   2     2.890504706713   111.06591764   180.01665361
 C      6   5   4     2.889722250795   111.06804158    56.77295195
 C      7   6   5     2.888675681348   110.85149769   303.80561930
 C      8   7   6     2.890812745793   111.64869603    55.85839706
 H      1   2   3     2.063683949034   112.32084819   205.42757128
 H      1   2   3     2.063071813327   109.93853779   329.18579802
 H      1   2   3     2.072876937908   108.12539505    86.65578592
 H      4   2   1     2.081820940981   106.18355749   305.67497046
 H      5   4   2     2.074462302150   108.93700404   300.48086704
 H      5   4   2     2.070652959321   109.88196307    57.37483397
 H      6   5   4     2.071223564578   109.81406826   179.14396624
 H      6   5   4     2.076814389151   109.34047872   296.14577935
 H      7   6   5     2.077045189125   109.19374410    64.20793258
 H      7   6   5     2.071508293553   110.36073413   181.50779164
 H      8   7   6     2.071532083700   110.46412717   177.86457244
 H      8   7   6     2.076198874550   109.22142608   295.41092818
 H      9   8   7     2.076465230497   109.76046331    64.46000584
 H      9   8   7     2.068741472838   110.01841687   182.43711820

---------------------
BASIS SET INFORMATION
---------------------
There are 3 groups of distinct atoms

 Group   1 Type C   : 11s6p2d1f contracted to 5s3p2d1f pattern {62111/411/11/1}
 Group   2 Type O   : 11s6p2d1f contracted to 5s3p2d1f pattern {62111/411/11/1}
 Group   3 Type H   : 5s1p contracted to 3s1p pattern {311/1}

Atom   0C    basis set group =>   1
Atom   1C    basis set group =>   1
Atom   2O    basis set group =>   2
Atom   3C    basis set group =>   1
Atom   4C    basis set group =>   1
Atom   5C    basis set group =>   1
Atom   6C    basis set group =>   1
Atom   7C    basis set group =>   1
Atom   8C    basis set group =>   1
Atom   9H    basis set group =>   3
Atom  10H    basis set group =>   3
Atom  11H    basis set group =>   3
Atom  12H    basis set group =>   3
Atom  13H    basis set group =>   3
Atom  14H    basis set group =>   3
Atom  15H    basis set group =>   3
Atom  16H    basis set group =>   3
Atom  17H    basis set group =>   3
Atom  18H    basis set group =>   3
Atom  19H    basis set group =>   3
Atom  20H    basis set group =>   3
Atom  21H    basis set group =>   3
Atom  22H    basis set group =>   3
---------------------------------
AUXILIARY/J BASIS SET INFORMATION
---------------------------------
There are 3 groups of distinct atoms

 Group   1 Type C   : 12s5p4d2f1g contracted to 6s4p3d1f1g pattern {711111/2111/211/2/1}
 Group   2 Type O   : 12s5p4d2f1g contracted to 6s4p3d1f1g pattern {711111/2111/211/2/1}
 Group   3 Type H   : 5s2p1d contracted to 3s1p1d pattern {311/2/1}

Atom   0C    basis set group =>   1
Atom   1C    basis set group =>   1
Atom   2O    basis set group =>   2
Atom   3C    basis set group =>   1
Atom   4C    basis set group =>   1
Atom   5C    basis set group =>   1
Atom   6C    basis set group =>   1
Atom   7C    basis set group =>   1
Atom   8C    basis set group =>   1
Atom   9H    basis set group =>   3
Atom  10H    basis set group =>   3
Atom  11H    basis set group =>   3
Atom  12H    basis set group =>   3
Atom  13H    basis set group =>   3
Atom  14H    basis set group =>   3
Atom  15H    basis set group =>   3
Atom  16H    basis set group =>   3
Atom  17H    basis set group =>   3
Atom  18H    basis set group =>   3
Atom  19H    basis set group =>   3
Atom  20H    basis set group =>   3
Atom  21H    basis set group =>   3
Atom  22H    basis set group =>   3

Checking for AutoStart:
The File: sp_gas.gbw exists
Trying to determine its content:
     ... Fine, the file contains calculation information
     ... Fine, the calculation information was read
     ... Fine, the file contains a basis set
     ... Fine, the basis set was read
     ... Fine, the file contains a geometry
     ... Fine, the geometry was read
     ... Fine, the file contains a set of orbitals
     ... Fine, the orbitals can be read
     => possible old guess file was deleted
     => GBW file was renamed to GES file
     => GES file is set as startup file
     => Guess is set to MORead
     ... now leaving AutoStart

------------------------------------------------------------------------------
                             ORCA STARTUP CALCULATIONS
                           -- RI-GTO INTEGRALS CHOSEN --
------------------------------------------------------------------------------
------------------------------------------------------------------------------
                   ___                                                        
                  /   \      - P O W E R E D   B Y -                         
                 /     \                                                     
                 |  |  |   _    _      __       _____    __    __             
                 |  |  |  | |  | |    /  \     |  _  \  |  |  /  |          
                  \  \/   | |  | |   /    \    | | | |  |  | /  /          
                 / \  \   | |__| |  /  /\  \   | |_| |  |  |/  /          
                |  |  |   |  __  | /  /__\  \  |    /   |      \           
                |  |  |   | |  | | |   __   |  |    \   |  |\   \          
                \     /   | |  | | |  |  |  |  | |\  \  |  | \   \       
                 \___/    |_|  |_| |__|  |__|  |_| \__\ |__|  \__/        
                                                                              
                      - O R C A' S   B I G   F R I E N D -                    
                                      &                                       
                       - I N T E G R A L  F E E D E R -                       
                                                                              
 v1 FN, 2020, v2 2021, v3 2022-2024                                           
------------------------------------------------------------------------------


----------------------
SHARK INTEGRAL PACKAGE
----------------------

Number of atoms                             ...     23
Number of basis functions                   ...    363
Number of shells                            ...    155
Maximum angular momentum                    ...      3
Integral batch strategy                     ... SHARK/LIBINT Hybrid
RI-J (if used) integral strategy            ... SPLIT-RIJ (Revised 2003 algorithm where possible)
Printlevel                                  ...      1
Contraction scheme used                     ... SEGMENTED contraction
Prescreening option                         ... SCHWARTZ
   Thresh                                   ... 3.000e-11
   Tcut                                     ... 1.000e-12
   Tpresel                                  ... 1.000e-12 
Coulomb Range Separation                    ... NOT USED
Exchange Range Separation                   ... Long Range
   Mu parameter                             ... 3.000e-01
   Scaling (regular/separated)              ... 1.670e-01 8.330e-01
Multipole approximations                    ... NOT USED
Finite Nucleus Model                        ... NOT USED
CABS basis                                  ... NOT available
Auxiliary Coulomb fitting basis             ... AVAILABLE
   # of basis functions in Aux-J            ...    595
   # of shells in Aux-J                     ...    205
   Maximum angular momentum in Aux-J        ...      4
Auxiliary J/K fitting basis                 ... NOT available
Auxiliary Correlation fitting basis         ... NOT available
Auxiliary 'external' fitting basis          ... NOT available

Checking pre-screening integrals            ... done (  0.0 sec) Dimension = 155
Check shell pair data                       ... done (  0.0 sec)
Shell pair information
Shell pair cut-off parameter TPreSel        ...   1.0e-12
Total number of shell pairs                 ...     12090
Shell pairs after pre-screening             ...     10974
Total number of primitive shell pairs       ...     35220
Primitive shell pairs kept                  ...     24041
          la=0 lb=0:   3366 shell pairs
          la=1 lb=0:   3257 shell pairs
          la=1 lb=1:    812 shell pairs
          la=2 lb=0:   1436 shell pairs
          la=2 lb=1:    698 shell pairs
          la=2 lb=2:    163 shell pairs
          la=3 lb=0:    707 shell pairs
          la=3 lb=1:    341 shell pairs
          la=3 lb=2:    152 shell pairs
          la=3 lb=3:     42 shell pairs

Calculating one electron integrals          ... done (  0.1 sec)
Calculating RI/J V-Matrix + Cholesky decomp.... done (  0.1 sec)
Calculating Nuclear repulsion               ... done (  0.0 sec) ENN=    471.418859647570 Eh

Diagonalization of the overlap matrix:
Smallest eigenvalue                        ... 7.974e-05
Time for diagonalization                   ...    0.012 sec
Threshold for overlap eigenvalues          ... 1.000e-07
Number of eigenvalues below threshold      ... 0
Time for construction of square roots      ...    0.025 sec
Total time needed                          ...    0.059 sec

-------------------
DFT GRID GENERATION
-------------------

General Integration Accuracy     IntAcc      ... 4.388
Radial Grid Type                 RadialGrid  ... OptM3 with GC (2021)
Angular Grid (max. ang.)         AngularGrid ... 4 (Lebedev-302)
Angular grid pruning method      GridPruning ... 4 (adaptive)
Weight generation scheme         WeightScheme... mBecke (2022)
Basis function cutoff            BFCut       ... 1.0000e-11
Integration weight cutoff        WCut        ... 1.0000e-14
Partially contracted basis set               ... off
Rotationally invariant grid construction     ... off
Angular grids for H and He will be reduced by one unit

Total number of grid points                  ...    98384
Total number of batches                      ...     1550
Average number of points per batch           ...       63
Average number of grid points per atom       ...     4278

--------------------
COSX GRID GENERATION
--------------------

GRIDX 1
-------
General Integration Accuracy     IntAcc      ... 3.816
Radial Grid Type                 RadialGrid  ... OptM3 with GC (2021)
Angular Grid (max. ang.)         AngularGrid ... 1 (Lebedev-50)
Angular grid pruning method      GridPruning ... 4 (adaptive)
Weight generation scheme         WeightScheme... mBecke (2022)
Basis function cutoff            BFCut       ... 1.0000e-11
Integration weight cutoff        WCut        ... 1.0000e-14
Partially contracted basis set               ... on
Rotationally invariant grid construction     ... off
Angular grids for H and He will be reduced by one unit

Total number of grid points                  ...    12591
Total number of batches                      ...      117
Average number of points per batch           ...      107
Average number of grid points per atom       ...      547
UseSFitting                                  ... on

GRIDX 2
-------
General Integration Accuracy     IntAcc      ... 4.020
Radial Grid Type                 RadialGrid  ... OptM3 with GC (2021)
Angular Grid (max. ang.)         AngularGrid ... 2 (Lebedev-110)
Angular grid pruning method      GridPruning ... 4 (adaptive)
Weight generation scheme         WeightScheme... mBecke (2022)
Basis function cutoff            BFCut       ... 1.0000e-11
Integration weight cutoff        WCut        ... 1.0000e-14
Partially contracted basis set               ... on
Rotationally invariant grid construction     ... off
Angular grids for H and He will be reduced by one unit

Total number of grid points                  ...    26382
Total number of batches                      ...      218
Average number of points per batch           ...      121
Average number of grid points per atom       ...     1147
UseSFitting                                  ... on

GRIDX 3
-------
General Integration Accuracy     IntAcc      ... 4.338
Radial Grid Type                 RadialGrid  ... OptM3 with GC (2021)
Angular Grid (max. ang.)         AngularGrid ... 3 (Lebedev-194)
Angular grid pruning method      GridPruning ... 4 (adaptive)
Weight generation scheme         WeightScheme... mBecke (2022)
Basis function cutoff            BFCut       ... 1.0000e-11
Integration weight cutoff        WCut        ... 1.0000e-14
Partially contracted basis set               ... on
Rotationally invariant grid construction     ... off
Angular grids for H and He will be reduced by one unit

Total number of grid points                  ...    57546
Total number of batches                      ...      462
Average number of points per batch           ...      124
Average number of grid points per atom       ...     2502
UseSFitting                                  ... on
Initializing property integral containers    ... done (  0.0 sec)

SHARK setup successfully completed in   3.3 seconds

Maximum memory used throughout the entire STARTUP-calculation: 60.0 MB
-------------------------------------------------------------------------------
                                 ORCA GUESS
                   Start orbitals & Density for SCF / CASSCF
-------------------------------------------------------------------------------

------------
SCF SETTINGS
------------
Hamiltonian:
 Density Functional     Method          .... DFT(GTOs)
 Exchange Functional    Exchange        .... WB97X-V
 Correlation Functional Correlation     .... WB97X-V
 Gradients option       PostSCFGGA      .... off
 Hybrid DFT is turned on
   Fraction HF Exchange ScalHFX         ....  0.167000
   Scaling of DF-GGA-X  ScalDFX         ....  0.000000
   Scaling of DF-GGA-C  ScalDFC         ....  1.000000
   Scaling of DF-LDA-C  ScalLDAC        ....  1.000000
   Perturbative correction              ....  0.000000
 Long-range corrected/Screened/Range-Separated Hybrid DFT is turned on
   Amount of maximum screened exact exchange              ....  0.833000
   Range separation parameter mu (erf(mu*r12)/r12)        ....  0.300000
   NL short-range parameter             ....  6.000000
   NL long-range parameter              ....  0.010000
 RI-approximation to the Coulomb term is turned on
   Number of AuxJ basis functions       .... 595
   RIJ-COSX (HFX calculated with COS-X)).... on


General Settings:
 Integral files         IntName         .... sp_gas
 Hartree-Fock type      HFTyp           .... RHF
 Total Charge           Charge          ....    0
 Multiplicity           Mult            ....    1
 Number of Electrons    NEL             ....   70
 Basis Dimension        Dim             ....  363
 Nuclear Repulsion      ENuc            ....    471.4188596476 Eh

Convergence Acceleration:
 AO-DIIS                CNVDIIS         .... on
   Start iteration      DIISMaxIt       ....    12
   Startup error        DIISStart       ....  0.200000
   # of expansion vecs  DIISMaxEq       ....     5
   Bias factor          DIISBfac        ....   1.050
   Max. coefficient     DIISMaxC        ....  10.000
 MO-DIIS                CNVKDIIS        .... off
 Trust-Rad. Augm. Hess. CNVTRAH         .... auto
   Auto Start mean grad. ratio tolernc. ....  1.125000
   Auto Start start iteration           ....     1
   Auto Start num. interpolation iter.  ....    10
   Max. Number of Micro iterations      ....    24
   Max. Number of Macro iterations      .... Maxiter - #DIIS iter
   Number of Davidson start vectors     ....     2
   Converg. threshold    (grad. norm)   ....   1.000e-04
   Grad. Scal. Fac. for Micro threshold ....   0.100
   Minimum threshold for Micro iter.    ....   1.000e-02
   NR start threshold (gradient norm)   ....   1.000e-04
   Initial trust radius                 ....   0.400
   Minimum AH scaling param. (alpha)    ....   1.000
   Maximum AH scaling param. (alpha)    .... 1000.000
   Quad. conv. algorithm                .... NR
   White noise on init. David. guess    .... on
   Maximum white noise                  ....   0.010
   Pseudo random numbers                .... off
   Inactive MOs                         .... canonical
   Orbital update algorithm             .... Taylor
   Preconditioner                       .... Diag
   Full preconditioner red. dimension   ....   250
 SOSCF                  CNVSOSCF        .... on
   Start iteration      SOSCFMaxIt      ....   150
   Startup grad/error   SOSCFStart      ....  0.003300
   Hessian update       SOSCFHessUp     .... L-BFGS
 Level Shifting         CNVShift        .... on
   Level shift para.    LevelShift      ....    0.2500
   Turn off err/grad.   ShiftErr        ....    0.0010
 Zerner damping         CNVZerner       .... off
 Static damping         CNVDamp         .... on
   Fraction old density DampFac         ....    0.7000
   Max. Damping (<1)    DampMax         ....    0.9800
   Min. Damping (>=0)   DampMin         ....    0.0000
   Turn off err/grad.   DampErr         ....    0.1000

SCF Procedure:
 Maximum # iterations   MaxIter         ....   125
 SCF integral mode      SCFMode         .... Direct
   Integral package                     .... SHARK and LIBINT hybrid scheme
 Reset frequency        DirectResetFreq ....    20
 Integral Threshold     Thresh          ....  3.000e-11 Eh
 Primitive CutOff       TCut            ....  1.000e-12 Eh

Convergence Tolerance:
 Convergence Check Mode ConvCheckMode   .... Total+1el-Energy
 Convergence forced     ConvForced      .... 0
 Energy Change          TolE            ....  1.000e-07 Eh
 1-El. energy change                    ....  1.000e-04 Eh
 Orbital Gradient       TolG            ....  1.000e-04
 Orbital Rotation angle TolX            ....  1.000e-04
 DIIS Error             TolErr          ....  1.000e-07

---------------------
INITIAL GUESS: MOREAD
---------------------
Guess MOs are being read from file: sp_gas.ges
Input Geometry matches current geometry (good)
Atom 0: N(Shells)= 11 and 9 - projection required
Input basis set needs projection
NBasis(read)= 246
NBasis(calc)= 363
Basis set overlap was calculated
Using GuessMode=FMatrix for the initial guess
C*T matrix was formed
Effective Fockian was calculated
Effective Fockian was diagonalized
Initial density was built
                      ------------------
                      INITIAL GUESS DONE (   0.1 sec)
                      ------------------
             **** ENERGY FILE WAS UPDATED (sp_gas.en.tmp) ****
Finished Guess after   0.5 sec
Maximum memory used throughout the entire GUESS-calculation: 36.9 MB

-------------------------------------------------------------------------------------------
                                      ORCA LEAN-SCF
                              memory conserving SCF solver
-------------------------------------------------------------------------------------------

----------------------------------------D-I-I-S--------------------------------------------
Iteration    Energy (Eh)           Delta-E    RMSDP     MaxDP     DIISErr   Damp  Time(sec)
-------------------------------------------------------------------------------------------
               ***  Starting incremental Fock matrix formation  ***
    1    -388.7970364017315887     0.00e+00  8.98e-04  3.26e-02  4.79e-02  0.700  26.3
    2    -388.8035211741060948    -6.48e-03  7.87e-04  3.25e-02  3.43e-02  0.700  13.0
                               ***Turning on AO-DIIS***
    3    -388.8083219508171169    -4.80e-03  6.38e-04  2.53e-02  2.42e-02  0.700  13.0
    4    -388.8117966618914352    -3.47e-03  1.61e-03  6.46e-02  1.59e-02  0.000  12.7
                              *** Initializing SOSCF ***
---------------------------------------S-O-S-C-F--------------------------------------
Iteration    Energy (Eh)           Delta-E    RMSDP     MaxDP     MaxGrad    Time(sec)
--------------------------------------------------------------------------------------
    5    -388.8208653976256528    -9.07e-03  9.28e-05  4.51e-03  2.44e-03    13.2
               *** Restarting incremental Fock matrix formation ***
    6    -388.8209157389682105    -5.03e-05  8.10e-05  8.94e-03  5.24e-04    26.2
    7    -388.8209272409848154    -1.15e-05  3.88e-05  3.40e-03  9.32e-04    20.0
    8    -388.8209330140642805    -5.77e-06  1.22e-05  4.73e-04  1.86e-04    19.4
    9    -388.8209334567316091    -4.43e-07  2.45e-06  1.40e-04  1.38e-05    18.1
                  *** Gradient check signals convergence ***

               *****************************************************
               *                     SUCCESS                       *
               *           SCF CONVERGED AFTER   9 CYCLES          *
               *****************************************************


------------------
NL GRID GENERATION
------------------

General Integration Accuracy     IntAcc      ... 4.004
Radial Grid Type                 RadialGrid  ... OptM3 with GC (2021)
Angular Grid (max. ang.)         AngularGrid ... 2 (Lebedev-110)
Angular grid pruning method      GridPruning ... 4 (adaptive)
Weight generation scheme         WeightScheme... mBecke (2022)
Basis function cutoff            BFCut       ... 1.0000e-10
Integration weight cutoff        WCut        ... 1.0000e-14
Partially contracted basis set               ... off
Rotationally invariant grid construction     ... off
Angular grids for H and He will be reduced by one unit

Total number of grid points                  ...    29583
Total number of batches                      ...      475
Average number of points per batch           ...       62
Average number of grid points per atom       ...     1286
Final grid set up in    0.3 sec

-------------------------------------------------------------------------------
                    post-SCF DFT-NL dispersion correction                      
-------------------------------------------------------------------------------

SCF Energy:     -388.820933457 
NL    Energy:      0.262057557 
SC+NL Energy:   -388.558875900 
NL done in  :              3.3 sec
-------------------------------------------------------------------------------
Recomputing exchange energy using gridx3       ... done (   47.839 sec)
Old exchange energy                            :    -18.253848880 Eh
New exchange energy                            :    -18.253858912 Eh
Exchange energy change after final integration :     -0.000010032 Eh
Total energy after final integration           :   -388.558885932 Eh
             **** ENERGY FILE WAS UPDATED (sp_gas.en.tmp) ****

----------------
TOTAL SCF ENERGY
----------------

Total Energy       :       -388.55888593195004 Eh          -10573.22482 eV

Components:
Nuclear Repulsion  :        471.41885964756955 Eh           12827.95933 eV
Electronic Energy  :       -860.23979310430116 Eh          -23408.31483 eV
One Electron Energy:      -1459.33158311427860 Eh          -39710.43122 eV
Two Electron Energy:        599.09179000997744 Eh           16302.11639 eV

Virial components:
Potential Energy   :       -775.45796272947655 Eh          -21101.28393 eV
Kinetic Energy     :        386.89907679752656 Eh           10528.05912 eV
Virial Ratio       :          2.00429003126128

DFT components:
N(Alpha)           :       34.999940391981 electrons
N(Beta)            :       34.999940391981 electrons
N(Total)           :       69.999880783962 electrons
E(X)               :      -36.426519507621 Eh       
E(C)               :       -2.849182733015 Eh       
NL Energy, E(C,NL) :        0.262057557211 Eh       
E(XC)              :      -39.013644683425 Eh       

---------------
SCF CONVERGENCE
---------------

  Last Energy change         ...    4.4267e-07  Tolerance :   1.0000e-07
  Last MAX-Density change    ...    1.3959e-04  Tolerance :   1.0000e-05
  Last RMS-Density change    ...    2.4522e-06  Tolerance :   1.0000e-06
  Last DIIS Error            ...    2.4430e-03  Tolerance :   1.0000e-07
  Last Orbital Gradient      ...    1.3814e-05  Tolerance :   1.0000e-04
  Last Orbital Rotation      ...    2.5210e-05  Tolerance :   1.0000e-04


----------------
ORBITAL ENERGIES
----------------

  NO   OCC          E(Eh)            E(eV) 
   0   2.0000     -21.655191      -589.2677 
   1   2.0000     -12.133776      -330.1768 
   2   2.0000     -12.057983      -328.1144 
   3   2.0000     -12.054109      -328.0090 
   4   2.0000     -12.050408      -327.9083 
   5   2.0000     -12.046619      -327.8052 
   6   2.0000     -12.042085      -327.6818 
   7   2.0000     -12.040461      -327.6376 
   8   2.0000     -12.038053      -327.5721 
   9   2.0000      -1.697914       -46.2026 
  10   2.0000      -1.352941       -36.8154 
  11   2.0000      -1.287175       -35.0258 
  12   2.0000      -1.254328       -34.1320 
  13   2.0000      -1.239186       -33.7200 
  14   2.0000      -1.134251       -30.8645 
  15   2.0000      -1.102385       -29.9974 
  16   2.0000      -1.071618       -29.1602 
  17   2.0000      -1.024102       -27.8672 
  18   2.0000      -0.969332       -26.3769 
  19   2.0000      -0.956081       -26.0163 
  20   2.0000      -0.914396       -24.8820 
  21   2.0000      -0.897117       -24.4118 
  22   2.0000      -0.877354       -23.8740 
  23   2.0000      -0.874424       -23.7943 
  24   2.0000      -0.859755       -23.3951 
  25   2.0000      -0.846662       -23.0388 
  26   2.0000      -0.833731       -22.6870 
  27   2.0000      -0.829079       -22.5604 
  28   2.0000      -0.823762       -22.4157 
  29   2.0000      -0.805553       -21.9202 
  30   2.0000      -0.783375       -21.3167 
  31   2.0000      -0.780115       -21.2280 
  32   2.0000      -0.760045       -20.6819 
  33   2.0000      -0.754859       -20.5407 
  34   2.0000      -0.739873       -20.1330 
  35   0.0000      -0.307200        -8.3593 
  36   0.0000      -0.063477        -1.7273 
  37   0.0000      -0.051894        -1.4121 
  38   0.0000      -0.036220        -0.9856 
  39   0.0000      -0.030807        -0.8383 
  40   0.0000      -0.020097        -0.5469 
  41   0.0000      -0.014959        -0.4070 
  42   0.0000      -0.012485        -0.3397 
  43   0.0000       0.006303         0.1715 
  44   0.0000       0.018289         0.4977 
  45   0.0000       0.021850         0.5946 
*Only the first 10 virtual orbitals were printed.

                    ********************************
                    * MULLIKEN POPULATION ANALYSIS *
                    ********************************

-----------------------
MULLIKEN ATOMIC CHARGES
-----------------------
   0 C :   -0.377170
   1 C :    0.210583
   2 O :   -0.317131
   3 C :   -0.047833
   4 C :   -0.210724
   5 C :   -0.166889
   6 C :   -0.184535
   7 C :   -0.172704
   8 C :   -0.249397
   9 H :    0.125265
  10 H :    0.144554
  11 H :    0.138851
  12 H :    0.087893
  13 H :    0.107705
  14 H :    0.111305
  15 H :    0.104242
  16 H :    0.086728
  17 H :    0.090228
  18 H :    0.103529
  19 H :    0.104093
  20 H :    0.089628
  21 H :    0.110486
  22 H :    0.111295
Sum of atomic charges:   -0.0000000

--------------------------------
MULLIKEN REDUCED ORBITAL CHARGES
--------------------------------
  0 C s       :     3.246830  s :     3.246830
      pz      :     0.974082  p :     3.081470
      px      :     1.047052
      py      :     1.060336
      dz2     :     0.015802  d :     0.045729
      dxz     :     0.009353
      dyz     :     0.004710
      dx2y2   :     0.010499
      dxy     :     0.005366
      f0      :     0.000568  f :     0.003141
      f+1     :     0.000846
      f-1     :     0.000454
      f+2     :     0.000374
      f-2     :     0.000180
      f+3     :     0.000087
      f-3     :     0.000632

  1 C s       :     3.159784  s :     3.159784
      pz      :     0.767167  p :     2.399400
      px      :     0.923258
      py      :     0.708975
      dz2     :     0.055902  d :     0.212793
      dxz     :     0.064693
      dyz     :     0.041062
      dx2y2   :     0.028387
      dxy     :     0.022749
      f0      :     0.004455  f :     0.017440
      f+1     :     0.003166
      f-1     :     0.002492
      f+2     :     0.003276
      f-2     :     0.001955
      f+3     :     0.000874
      f-3     :     0.001221

  2 O s       :     3.800907  s :     3.800907
      pz      :     1.392654  p :     4.482437
      px      :     1.730864
      py      :     1.358920
      dz2     :     0.010437  d :     0.031985
      dxz     :     0.008290
      dyz     :     0.008905
      dx2y2   :     0.001885
      dxy     :     0.002468
      f0      :     0.000502  f :     0.001801
      f+1     :     0.000451
      f-1     :     0.000312
      f+2     :     0.000208
      f-2     :     0.000263
      f+3     :     0.000041
      f-3     :     0.000023

  3 C s       :     3.086395  s :     3.086395
      pz      :     0.979764  p :     2.830724
      px      :     0.933244
      py      :     0.917716
      dz2     :     0.025167  d :     0.123331
      dxz     :     0.015002
      dyz     :     0.030937
      dx2y2   :     0.032484
      dxy     :     0.019741
      f0      :     0.000886  f :     0.007383
      f+1     :     0.000936
      f-1     :     0.001029
      f+2     :     0.001411
      f-2     :     0.000783
      f+3     :     0.000971
      f-3     :     0.001367

  4 C s       :     3.176722  s :     3.176722
      pz      :     0.949813  p :     2.937577
      px      :     0.939041
      py      :     1.048723
      dz2     :     0.019175  d :     0.090893
      dxz     :     0.019727
      dyz     :     0.015124
      dx2y2   :     0.016637
      dxy     :     0.020230
      f0      :     0.000666  f :     0.005533
      f+1     :     0.000763
      f-1     :     0.000831
      f+2     :     0.001158
      f-2     :     0.000458
      f+3     :     0.000848
      f-3     :     0.000808

  5 C s       :     3.165850  s :     3.165850
      pz      :     1.027676  p :     2.901536
      px      :     0.924836
      py      :     0.949023
      dz2     :     0.008693  d :     0.094026
      dxz     :     0.017280
      dyz     :     0.023814
      dx2y2   :     0.020334
      dxy     :     0.023905
      f0      :     0.000425  f :     0.005478
      f+1     :     0.000544
      f-1     :     0.000781
      f+2     :     0.000852
      f-2     :     0.000536
      f+3     :     0.000884
      f-3     :     0.001454

  6 C s       :     3.176148  s :     3.176148
      pz      :     0.968222  p :     2.908361
      px      :     1.004630
      py      :     0.935510
      dz2     :     0.018581  d :     0.094546
      dxz     :     0.008582
      dyz     :     0.028422
      dx2y2   :     0.026422
      dxy     :     0.012538
      f0      :     0.000705  f :     0.005479
      f+1     :     0.000449
      f-1     :     0.000995
      f+2     :     0.000997
      f-2     :     0.000653
      f+3     :     0.000779
      f-3     :     0.000902

  7 C s       :     3.170585  s :     3.170585
      pz      :     0.965230  p :     2.901587
      px      :     0.909648
      py      :     1.026709
      dz2     :     0.021098  d :     0.095018
      dxz     :     0.018981
      dyz     :     0.015226
      dx2y2   :     0.019013
      dxy     :     0.020699
      f0      :     0.000679  f :     0.005513
      f+1     :     0.000735
      f-1     :     0.000865
      f+2     :     0.001150
      f-2     :     0.000438
      f+3     :     0.000826
      f-3     :     0.000820

  8 C s       :     3.209937  s :     3.209937
      pz      :     1.045603  p :     2.940732
      px      :     0.959109
      py      :     0.936020
      dz2     :     0.008109  d :     0.093243
      dxz     :     0.018690
      dyz     :     0.023534
      dx2y2   :     0.018179
      dxy     :     0.024731
      f0      :     0.000425  f :     0.005485
      f+1     :     0.000560
      f-1     :     0.000786
      f+2     :     0.000864
      f-2     :     0.000528
      f+3     :     0.000888
      f-3     :     0.001434

  9 H s       :     0.853585  s :     0.853585
      pz      :     0.011736  p :     0.021150
      px      :     0.004950
      py      :     0.004464

 10 H s       :     0.834082  s :     0.834082
      pz      :     0.003897  p :     0.021363
      px      :     0.012349
      py      :     0.005117

 11 H s       :     0.839507  s :     0.839507
      pz      :     0.004399  p :     0.021642
      px      :     0.004348
      py      :     0.012895

 12 H s       :     0.890492  s :     0.890492
      pz      :     0.010623  p :     0.021615
      px      :     0.004200
      py      :     0.006792

 13 H s       :     0.871006  s :     0.871006
      pz      :     0.010853  p :     0.021289
      px      :     0.004240
      py      :     0.006196

 14 H s       :     0.867365  s :     0.867365
      pz      :     0.004454  p :     0.021331
      px      :     0.005929
      py      :     0.010947

 15 H s       :     0.874636  s :     0.874636
      pz      :     0.008655  p :     0.021123
      px      :     0.006220
      py      :     0.006247

 16 H s       :     0.892448  s :     0.892448
      pz      :     0.009349  p :     0.020824
      px      :     0.004201
      py      :     0.007274

 17 H s       :     0.888911  s :     0.888911
      pz      :     0.010126  p :     0.020861
      px      :     0.004049
      py      :     0.006686

 18 H s       :     0.875368  s :     0.875368
      pz      :     0.004507  p :     0.021103
      px      :     0.012350
      py      :     0.004246

 19 H s       :     0.874819  s :     0.874819
      pz      :     0.004396  p :     0.021088
      px      :     0.005648
      py      :     0.011044

 20 H s       :     0.889527  s :     0.889527
      pz      :     0.010665  p :     0.020846
      px      :     0.004118
      py      :     0.006062

 21 H s       :     0.868620  s :     0.868620
      pz      :     0.009517  p :     0.020894
      px      :     0.004163
      py      :     0.007215

 22 H s       :     0.867293  s :     0.867293
      pz      :     0.008822  p :     0.021413
      px      :     0.006381
      py      :     0.006209


------------------------
MULLIKEN OVERLAP CHARGES
------------------------
B(  0-C ,  1-C ) :   0.7146 B(  0-C ,  2-O ) :  -0.1669 B(  0-C ,  3-C ) :  -0.3390 
B(  0-C ,  9-H ) :   0.8174 B(  0-C , 10-H ) :   0.8068 B(  0-C , 11-H ) :   0.7583 
B(  1-C ,  2-O ) :   1.4413 B(  1-C ,  3-C ) :   0.0790 B(  1-C ,  4-C ) :  -0.0679 
B(  1-C ,  9-H ) :  -0.1480 B(  1-C , 10-H ) :  -0.0686 B(  2-O ,  3-C ) :  -0.3386 
B(  3-C ,  4-C ) :   0.5505 B(  3-C ,  5-C ) :  -0.0809 B(  3-C ,  8-C ) :   0.4799 
B(  3-C ,  9-H ) :   0.0848 B(  3-C , 12-H ) :   0.7680 B(  3-C , 13-H ) :  -0.0764 
B(  3-C , 14-H ) :  -0.0711 B(  3-C , 21-H ) :  -0.1087 B(  3-C , 22-H ) :  -0.0753 
B(  4-C ,  5-C ) :   0.6337 B(  4-C ,  6-C ) :  -0.0623 B(  4-C , 12-H ) :  -0.0599 
B(  4-C , 13-H ) :   0.8417 B(  4-C , 14-H ) :   0.8481 B(  4-C , 15-H ) :  -0.0885 
B(  4-C , 16-H ) :  -0.0811 B(  5-C ,  6-C ) :   0.6632 B(  5-C ,  7-C ) :  -0.0680 
B(  5-C , 13-H ) :  -0.0848 B(  5-C , 14-H ) :  -0.0852 B(  5-C , 15-H ) :   0.8511 
B(  5-C , 16-H ) :   0.8262 B(  5-C , 17-H ) :  -0.0860 B(  5-C , 18-H ) :  -0.0713 
B(  6-C ,  7-C ) :   0.6801 B(  6-C ,  8-C ) :  -0.0586 B(  6-C , 15-H ) :  -0.0691 
B(  6-C , 16-H ) :  -0.0886 B(  6-C , 17-H ) :   0.8337 B(  6-C , 18-H ) :   0.8364 
B(  6-C , 19-H ) :  -0.0697 B(  6-C , 20-H ) :  -0.0824 B(  7-C ,  8-C ) :   0.6229 
B(  7-C , 17-H ) :  -0.0888 B(  7-C , 18-H ) :  -0.0745 B(  7-C , 19-H ) :   0.8415 
B(  7-C , 20-H ) :   0.8320 B(  7-C , 21-H ) :  -0.0609 B(  7-C , 22-H ) :  -0.0695 
B(  8-C , 12-H ) :  -0.1203 B(  8-C , 19-H ) :  -0.0826 B(  8-C , 20-H ) :  -0.0816 
B(  8-C , 21-H ) :   0.8120 B(  8-C , 22-H ) :   0.8411 


                     *******************************
                     * LOEWDIN POPULATION ANALYSIS *
                     *******************************

----------------------
LOEWDIN ATOMIC CHARGES
----------------------
   0 C :   -0.262447
   1 C :   -0.313329
   2 O :    0.108496
   3 C :   -0.227116
   4 C :   -0.225880
   5 C :   -0.257906
   6 C :   -0.260012
   7 C :   -0.257282
   8 C :   -0.222078
   9 H :    0.125380
  10 H :    0.133591
  11 H :    0.139807
  12 H :    0.162318
  13 H :    0.143295
  14 H :    0.139570
  15 H :    0.132447
  16 H :    0.132595
  17 H :    0.134604
  18 H :    0.131430
  19 H :    0.132608
  20 H :    0.134305
  21 H :    0.140796
  22 H :    0.134807

-------------------------------
LOEWDIN REDUCED ORBITAL CHARGES
-------------------------------
  0 C s       :     2.826457  s :     2.826457
      pz      :     1.052695  p :     3.182539
      px      :     1.059861
      py      :     1.069983
      dz2     :     0.075591  d :     0.229835
      dxz     :     0.046385
      dyz     :     0.025323
      dx2y2   :     0.057671
      dxy     :     0.024865
      f0      :     0.002660  f :     0.023616
      f+1     :     0.004738
      f-1     :     0.003960
      f+2     :     0.003386
      f-2     :     0.003868
      f+3     :     0.001022
      f-3     :     0.003983

  1 C s       :     2.768228  s :     2.768228
      pz      :     0.959701  p :     2.672827
      px      :     1.000292
      py      :     0.712834
      dz2     :     0.205280  d :     0.764382
      dxz     :     0.242484
      dyz     :     0.130356
      dx2y2   :     0.100191
      dxy     :     0.086070
      f0      :     0.027223  f :     0.107892
      f+1     :     0.020994
      f-1     :     0.016182
      f+2     :     0.020313
      f-2     :     0.010842
      f+3     :     0.005439
      f-3     :     0.006899

  2 O s       :     3.405626  s :     3.405626
      pz      :     1.485580  p :     4.413380
      px      :     1.628694
      py      :     1.299106
      dz2     :     0.023111  d :     0.066873
      dxz     :     0.022425
      dyz     :     0.013517
      dx2y2   :     0.004550
      dxy     :     0.003270
      f0      :     0.001481  f :     0.005625
      f+1     :     0.001644
      f-1     :     0.000979
      f+2     :     0.000803
      f-2     :     0.000567
      f+3     :     0.000080
      f-3     :     0.000070

  3 C s       :     2.724277  s :     2.724277
      pz      :     0.993998  p :     2.960331
      px      :     0.978711
      py      :     0.987622
      dz2     :     0.095151  d :     0.492258
      dxz     :     0.072928
      dyz     :     0.114309
      dx2y2   :     0.124921
      dxy     :     0.084948
      f0      :     0.006186  f :     0.050249
      f+1     :     0.006801
      f-1     :     0.006784
      f+2     :     0.008800
      f-2     :     0.005410
      f+3     :     0.007053
      f-3     :     0.009214

  4 C s       :     2.764914  s :     2.764914
      pz      :     1.010805  p :     3.031786
      px      :     1.005407
      py      :     1.015573
      dz2     :     0.080231  d :     0.390565
      dxz     :     0.079608
      dyz     :     0.068531
      dx2y2   :     0.078785
      dxy     :     0.083409
      f0      :     0.004757  f :     0.038616
      f+1     :     0.006046
      f-1     :     0.005052
      f+2     :     0.007476
      f-2     :     0.004033
      f+3     :     0.005656
      f-3     :     0.005596

  5 C s       :     2.770941  s :     2.770941
      pz      :     1.021224  p :     3.048511
      px      :     1.014977
      py      :     1.012310
      dz2     :     0.042669  d :     0.399811
      dxz     :     0.072963
      dyz     :     0.100394
      dx2y2   :     0.088838
      dxy     :     0.094947
      f0      :     0.003443  f :     0.038643
      f+1     :     0.004826
      f-1     :     0.004669
      f+2     :     0.005054
      f-2     :     0.004708
      f+3     :     0.005761
      f-3     :     0.010181

  6 C s       :     2.771903  s :     2.771903
      pz      :     1.021020  p :     3.050210
      px      :     1.007494
      py      :     1.021696
      dz2     :     0.078997  d :     0.399234
      dxz     :     0.042164
      dyz     :     0.112449
      dx2y2   :     0.107139
      dxy     :     0.058486
      f0      :     0.005050  f :     0.038664
      f+1     :     0.004207
      f-1     :     0.006442
      f+2     :     0.006062
      f-2     :     0.005058
      f+3     :     0.005559
      f-3     :     0.006287

  7 C s       :     2.771437  s :     2.771437
      pz      :     1.018825  p :     3.047178
      px      :     1.011082
      py      :     1.017272
      dz2     :     0.087365  d :     0.400099
      dxz     :     0.076720
      dyz     :     0.068430
      dx2y2   :     0.083178
      dxy     :     0.084407
      f0      :     0.004785  f :     0.038568
      f+1     :     0.005757
      f-1     :     0.005270
      f+2     :     0.007461
      f-2     :     0.003835
      f+3     :     0.005771
      f-3     :     0.005690

  8 C s       :     2.768944  s :     2.768944
      pz      :     1.022845  p :     3.023585
      px      :     1.007756
      py      :     0.992983
      dz2     :     0.042037  d :     0.391749
      dxz     :     0.073890
      dyz     :     0.096826
      dx2y2   :     0.085847
      dxy     :     0.093149
      f0      :     0.003318  f :     0.037800
      f+1     :     0.004787
      f-1     :     0.004511
      f+2     :     0.005007
      f-2     :     0.004522
      f+3     :     0.005740
      f-3     :     0.009916

  9 H s       :     0.813728  s :     0.813728
      pz      :     0.031197  p :     0.060892
      px      :     0.015570
      py      :     0.014125

 10 H s       :     0.805149  s :     0.805149
      pz      :     0.012120  p :     0.061260
      px      :     0.033293
      py      :     0.015847

 11 H s       :     0.799004  s :     0.799004
      pz      :     0.013561  p :     0.061190
      px      :     0.013205
      py      :     0.034424

 12 H s       :     0.781501  s :     0.781501
      pz      :     0.025901  p :     0.056181
      px      :     0.012351
      py      :     0.017929

 13 H s       :     0.798633  s :     0.798633
      pz      :     0.027066  p :     0.058072
      px      :     0.012463
      py      :     0.018543

 14 H s       :     0.802267  s :     0.802267
      pz      :     0.013041  p :     0.058163
      px      :     0.016186
      py      :     0.028936

 15 H s       :     0.809790  s :     0.809790
      pz      :     0.024228  p :     0.057763
      px      :     0.016946
      py      :     0.016589

 16 H s       :     0.810133  s :     0.810133
      pz      :     0.025924  p :     0.057273
      px      :     0.012622
      py      :     0.018727

 17 H s       :     0.808030  s :     0.808030
      pz      :     0.026430  p :     0.057366
      px      :     0.012432
      py      :     0.018504

 18 H s       :     0.810806  s :     0.810806
      pz      :     0.014025  p :     0.057764
      px      :     0.030838
      py      :     0.012901

 19 H s       :     0.809596  s :     0.809596
      pz      :     0.012975  p :     0.057796
      px      :     0.015681
      py      :     0.029140

 20 H s       :     0.808384  s :     0.808384
      pz      :     0.026645  p :     0.057311
      px      :     0.012456
      py      :     0.018209

 21 H s       :     0.801244  s :     0.801244
      pz      :     0.026546  p :     0.057960
      px      :     0.012627
      py      :     0.018787

 22 H s       :     0.806400  s :     0.806400
      pz      :     0.024932  p :     0.058793
      px      :     0.017295
      py      :     0.016566


---------------------------------
LOEWDIN BOND ORDERS (THRESH 0.050000)
---------------------------------
B(  0-C ,  1-C ) :   1.2443 B(  0-C ,  2-O ) :   0.1831 B(  0-C ,  3-C ) :   0.1383 
B(  0-C ,  9-H ) :   0.8941 B(  0-C , 10-H ) :   0.8911 B(  0-C , 11-H ) :   0.8769 
B(  1-C ,  2-O ) :   2.6048 B(  1-C ,  3-C ) :   1.1151 B(  1-C ,  4-C ) :   0.1374 
B(  1-C ,  8-C ) :   0.1508 B(  1-C ,  9-H ) :   0.0815 B(  1-C , 10-H ) :   0.0877 
B(  1-C , 11-H ) :   0.0941 B(  1-C , 12-H ) :   0.0846 B(  2-O ,  3-C ) :   0.1686 
B(  3-C ,  4-C ) :   1.1363 B(  3-C ,  5-C ) :   0.1403 B(  3-C ,  7-C ) :   0.1346 
B(  3-C ,  8-C ) :   1.1035 B(  3-C , 12-H ) :   0.7703 B(  3-C , 13-H ) :   0.0742 
B(  3-C , 14-H ) :   0.0759 B(  3-C , 21-H ) :   0.0699 B(  3-C , 22-H ) :   0.0707 
B(  4-C ,  5-C ) :   1.2009 B(  4-C ,  6-C ) :   0.1392 B(  4-C ,  8-C ) :   0.1273 
B(  4-C , 12-H ) :   0.0664 B(  4-C , 13-H ) :   0.8326 B(  4-C , 14-H ) :   0.8417 
B(  4-C , 15-H ) :   0.0761 B(  4-C , 16-H ) :   0.0733 B(  5-C ,  6-C ) :   1.2073 
B(  5-C ,  7-C ) :   0.1401 B(  5-C , 13-H ) :   0.0731 B(  5-C , 14-H ) :   0.0753 
B(  5-C , 15-H ) :   0.8512 B(  5-C , 16-H ) :   0.8441 B(  5-C , 17-H ) :   0.0731 
B(  5-C , 18-H ) :   0.0754 B(  6-C ,  7-C ) :   1.2081 B(  6-C ,  8-C ) :   0.1375 
B(  6-C , 15-H ) :   0.0755 B(  6-C , 16-H ) :   0.0733 B(  6-C , 17-H ) :   0.8440 
B(  6-C , 18-H ) :   0.8522 B(  6-C , 19-H ) :   0.0751 B(  6-C , 20-H ) :   0.0731 
B(  7-C ,  8-C ) :   1.2026 B(  7-C , 17-H ) :   0.0736 B(  7-C , 18-H ) :   0.0765 
B(  7-C , 19-H ) :   0.8504 B(  7-C , 20-H ) :   0.8430 B(  7-C , 21-H ) :   0.0719 
B(  7-C , 22-H ) :   0.0757 B(  8-C , 12-H ) :   0.0677 B(  8-C , 19-H ) :   0.0773 
B(  8-C , 20-H ) :   0.0744 B(  8-C , 21-H ) :   0.8397 B(  8-C , 22-H ) :   0.8429 


------------------------------------------
LOEWDIN REDUCED ORBITAL POPULATIONS PER MO
-------------------------------------------
THRESHOLD FOR PRINTING IS 0.1%%
                      0         1         2         3         4         5   
                 -21.65519 -12.13378 -12.05798 -12.05411 -12.05041 -12.04662
                   2.00000   2.00000   2.00000   2.00000   2.00000   2.00000
                  --------  --------  --------  --------  --------  --------
 0 C  s               0.0       0.0       0.1       0.0      99.4       0.0
 1 C  s               0.0      99.1       0.0       0.0       0.0       0.0
 2 O  s              99.7       0.0       0.0       0.0       0.0       0.0
 2 O  pz              0.0       0.1       0.0       0.0       0.0       0.0
 3 C  s               0.0       0.0      97.1       1.9       0.1       0.0
 6 C  s               0.0       0.0       0.0       0.0       0.0       1.5
 7 C  s               0.0       0.0       0.0       0.6       0.0      97.3
 8 C  s               0.0       0.0       1.9      96.9       0.0       0.6

                      6         7         8         9        10        11   
                 -12.04208 -12.04046 -12.03805  -1.69791  -1.35294  -1.28718
                   2.00000   2.00000   2.00000   2.00000   2.00000   2.00000
                  --------  --------  --------  --------  --------  --------
 0 C  s               0.0       0.0       0.0       0.5       0.9       9.5
 0 C  pz              0.0       0.0       0.0       1.3       0.1       0.5
 0 C  px              0.0       0.0       0.0       0.2       0.5       1.0
 0 C  py              0.0       0.0       0.0       0.3       0.0       0.2
 0 C  dz2             0.0       0.0       0.0       0.3       0.0       0.0
 0 C  dxz             0.0       0.0       0.0       0.1       0.1       0.2
 0 C  dyz             0.0       0.0       0.0       0.2       0.0       0.0
 1 C  s               0.0       0.0       0.0      13.5       2.7       7.9
 1 C  pz              0.0       0.0       0.0      12.9       1.1       5.7
 1 C  px              0.0       0.0       0.0       2.5       3.3       0.8
 1 C  py              0.0       0.0       0.0       0.9       0.0       0.6
 1 C  dz2             0.0       0.0       0.0       2.3       0.3       0.2
 1 C  dxz             0.0       0.0       0.0       1.8       0.0       0.3
 1 C  dyz             0.0       0.0       0.0       0.6       0.0       0.0
 1 C  dx2y2           0.0       0.0       0.0       0.0       0.4       0.3
 1 C  dxy             0.0       0.0       0.0       0.1       0.0       0.2
 1 C  f0              0.0       0.0       0.0       0.2       0.0       0.0
 1 C  f+1             0.0       0.0       0.0       0.5       0.0       0.0
 1 C  f-1             0.0       0.0       0.0       0.2       0.0       0.0
 1 C  f-2             0.0       0.0       0.0       0.1       0.0       0.0
 2 O  s               0.0       0.0       0.0      52.4       0.6       2.1
 2 O  pz              0.0       0.0       0.0       3.8       0.3       1.8
 2 O  px              0.0       0.0       0.0       0.7       0.2       0.3
 2 O  py              0.0       0.0       0.0       0.3       0.0       0.1
 2 O  dz2             0.0       0.0       0.0       0.2       0.0       0.0
 2 O  dxz             0.0       0.0       0.0       0.2       0.0       0.0
 3 C  s               0.0       0.0       0.1       0.5      14.9       6.9
 3 C  pz              0.0       0.0       0.0       0.4       0.2       0.1
 3 C  px              0.0       0.0       0.0       1.3       0.7       3.3
 3 C  py              0.0       0.0       0.0       0.0       0.4       0.2
 3 C  dz2             0.0       0.0       0.0       0.0       0.1       0.1
 3 C  dxz             0.0       0.0       0.1       0.4       0.1       0.0
 3 C  dyz             0.0       0.0       0.1       0.0       0.2       0.0
 3 C  dx2y2           0.0       0.0       0.0       0.2       0.0       0.1
 4 C  s               0.1       5.7      93.5       0.1       9.1       0.0
 4 C  pz              0.0       0.0       0.0       0.0       1.9       0.2
 4 C  px              0.0       0.0       0.0       0.3       0.1       3.5
 4 C  py              0.0       0.0       0.0       0.0       0.8       0.2
 4 C  dxz             0.0       0.0       0.0       0.0       0.0       0.4
 4 C  dyz             0.0       0.0       0.0       0.0       0.2       0.1
 4 C  dx2y2           0.0       0.1       0.0       0.0       0.1       0.2
 4 C  dxy             0.0       0.0       0.0       0.0       0.1       0.1
 5 C  s              12.9      81.0       5.5       0.0       6.7       6.1
 5 C  px              0.0       0.0       0.0       0.0       0.8       0.5
 5 C  py              0.0       0.0       0.0       0.0       1.3       1.4
 5 C  dz2             0.0       0.0       0.0       0.0       0.2       0.0
 5 C  dx2y2           0.0       0.0       0.1       0.0       0.0       0.2
 5 C  dxy             0.1       0.0       0.0       0.0       0.0       0.2
 6 C  s              85.2      12.4       0.3       0.0       6.4      11.3
 6 C  pz              0.0       0.0       0.0       0.0       0.3       0.2
 6 C  px              0.0       0.0       0.0       0.0       1.7       0.5
 6 C  py              0.0       0.0       0.0       0.0       0.1       0.2
 6 C  dyz             0.0       0.0       0.0       0.0       0.1       0.1
 7 C  s               1.2       0.3       0.0       0.0       7.9       5.1
 7 C  pz              0.0       0.0       0.0       0.0       1.1       0.9
 7 C  px              0.0       0.0       0.0       0.0       0.9       1.0
 7 C  py              0.0       0.0       0.0       0.0       0.4       0.5
 7 C  dxz             0.0       0.0       0.0       0.0       0.0       0.1
 7 C  dyz             0.0       0.0       0.0       0.0       0.1       0.2
 7 C  dx2y2           0.0       0.0       0.0       0.0       0.2       0.0
 7 C  dxy             0.0       0.0       0.0       0.0       0.0       0.1
 8 C  s               0.0       0.0       0.0       0.0      10.9       0.2
 8 C  px              0.0       0.0       0.0       0.1       0.2       4.2
 8 C  py              0.0       0.0       0.0       0.0       2.4       0.6
 8 C  dz2             0.0       0.0       0.0       0.0       0.3       0.0
 8 C  dx2y2           0.0       0.0       0.0       0.0       0.0       0.3
 8 C  dxy             0.0       0.0       0.0       0.0       0.1       0.4
 9 H  s               0.0       0.0       0.0       0.1       0.2       2.0
 9 H  pz              0.0       0.0       0.0       0.0       0.0       0.2
10 H  s               0.0       0.0       0.0       0.1       0.1       1.8
10 H  px              0.0       0.0       0.0       0.0       0.0       0.2
11 H  s               0.0       0.0       0.0       0.1       0.2       1.9
11 H  py              0.0       0.0       0.0       0.0       0.0       0.2
12 H  s               0.0       0.0       0.0       0.1       2.5       1.5
12 H  pz              0.0       0.0       0.0       0.0       0.2       0.1
13 H  s               0.0       0.0       0.0       0.0       1.4       0.0
13 H  pz              0.0       0.0       0.0       0.0       0.1       0.0
14 H  s               0.0       0.0       0.0       0.0       1.4       0.0
15 H  s               0.0       0.0       0.0       0.0       1.1       1.1
16 H  s               0.0       0.0       0.0       0.0       1.0       1.1
17 H  s               0.0       0.0       0.0       0.0       1.0       2.1
17 H  pz              0.0       0.0       0.0       0.0       0.1       0.1
18 H  s               0.0       0.0       0.0       0.0       1.0       2.1
18 H  px              0.0       0.0       0.0       0.0       0.1       0.2
19 H  s               0.0       0.0       0.0       0.0       1.3       1.0
20 H  s               0.0       0.0       0.0       0.0       1.2       0.9
21 H  s               0.0       0.0       0.0       0.0       1.7       0.0
22 H  s               0.0       0.0       0.0       0.0       1.8       0.1

                     12        13        14        15        16        17   
                  -1.25433  -1.23919  -1.13425  -1.10239  -1.07162  -1.02410
                   2.00000   2.00000   2.00000   2.00000   2.00000   2.00000
                  --------  --------  --------  --------  --------  --------
 0 C  s               0.3      21.5       4.7       0.2       1.9       0.0
 0 C  pz              0.0       0.3       0.4       0.0       1.7       0.0
 0 C  px              0.0       0.2       1.0       0.2       0.2       0.6
 0 C  py              0.0       0.1       0.3       0.0       0.4       0.2
 0 C  dz2             0.0       0.0       0.0       0.0       0.2       0.1
 0 C  dxz             0.0       0.0       0.2       0.0       0.2       0.0
 0 C  dyz             0.0       0.0       0.0       0.0       0.2       0.0
 0 C  dxy             0.0       0.0       0.1       0.0       0.0       0.1
 1 C  s               0.0       2.7       3.5       0.0       4.1       0.3
 1 C  pz              0.1       4.9       0.1       0.1       2.6       1.8
 1 C  px              0.4       6.8       7.1       0.1       1.1       2.3
 1 C  py              0.3       1.6       0.7       0.4       0.1       0.4
 1 C  dz2             0.0       0.1       0.3       0.0       0.4       0.1
 1 C  dxz             0.0       1.2       0.1       0.3       0.3       0.3
 1 C  dyz             0.0       0.2       0.2       0.0       0.2       0.0
 1 C  dx2y2           0.0       0.1       0.1       0.0       0.1       0.0
 1 C  dxy             0.1       0.2       0.0       0.3       0.0       0.0
 2 O  s               0.0       0.7       2.1       0.1      10.0       1.1
 2 O  pz              0.0       1.3       3.3       0.1      33.9       5.0
 2 O  px              0.1       0.1       3.3       0.1       5.2       0.2
 2 O  py              0.0       0.3       0.1       0.0       2.8       0.9
 2 O  dz2             0.0       0.1       0.0       0.0       0.3       0.0
 2 O  dxz             0.0       0.0       0.2       0.0       0.2       0.0
 3 C  s               0.5       4.4       3.0       0.0       2.4       0.8
 3 C  pz              2.7       0.1       0.1       3.3       0.3       3.3
 3 C  px              0.1       1.4       7.1       0.1       0.5       2.6
 3 C  py              5.2       0.1       0.4       6.8       0.1       1.0
 3 C  dz2             0.2       0.1       0.0       0.4       0.1       0.0
 3 C  dxz             0.4       0.0       0.3       0.2       0.2       0.1
 3 C  dyz             0.0       0.1       0.3       0.1       0.0       0.2
 3 C  dx2y2           0.1       0.4       0.5       0.2       0.2       0.5
 3 C  dxy             0.8       0.2       0.0       0.2       0.0       0.0
 4 C  s              13.8       0.9       3.7       7.1       0.0       2.1
 4 C  pz              0.1       0.3       0.5       0.3       0.6       1.9
 4 C  px              1.0       1.9       1.9       3.7       1.8       1.2
 4 C  py              0.2       0.3       0.5       0.0       0.7       0.8
 4 C  dz2             0.0       0.1       0.0       0.1       0.2       0.0
 4 C  dxz             0.0       0.2       0.3       0.1       0.1       0.0
 4 C  dyz             0.0       0.1       0.0       0.0       0.1       0.0
 4 C  dx2y2           0.4       0.1       0.0       0.2       0.1       0.5
 4 C  dxy             0.0       0.1       0.0       0.0       0.0       0.3
 5 C  s               9.8       2.9       0.9       6.3       1.5       3.8
 5 C  pz              0.4       0.1       0.5       0.1       0.1       0.7
 5 C  px              2.3       1.4       3.7       4.8       0.3       0.2
 5 C  py              0.2       0.7       2.0       0.1       1.7       4.8
 5 C  dz2             0.1       0.0       0.0       0.1       0.1       0.4
 5 C  dxz             0.0       0.0       0.0       0.1       0.0       0.1
 5 C  dx2y2           0.6       0.2       0.5       0.3       0.0       0.0
 5 C  dxy             0.0       0.2       0.3       0.1       0.1       0.2
 6 C  s               0.2       6.4       7.2       0.1       2.3       3.8
 6 C  pz              2.3       0.0       0.0       3.3       0.1       2.8
 6 C  px              0.0       0.1       1.1       0.1       0.6       1.2
 6 C  py              4.8       0.3       0.2       6.7       0.3       1.5
 6 C  dz2             0.2       0.0       0.1       0.4       0.0       0.0
 6 C  dxz             0.4       0.0       0.0       0.1       0.0       0.1
 6 C  dyz             0.0       0.0       0.0       0.1       0.1       0.4
 6 C  dx2y2           0.1       0.1       0.0       0.2       0.1       0.4
 6 C  dxy             0.8       0.0       0.0       0.2       0.0       0.0
 7 C  s              12.7       0.3       0.1       7.7       0.8       3.5
 7 C  pz              0.1       0.4       0.8       0.6       0.9       5.9
 7 C  px              1.2       2.7       5.4       3.0       0.8       0.1
 7 C  py              0.3       0.4       1.0       0.1       0.7       0.0
 7 C  dz2             0.1       0.1       0.2       0.1       0.0       0.0
 7 C  dxz             0.0       0.2       0.5       0.0       0.1       0.1
 7 C  dyz             0.0       0.1       0.1       0.0       0.1       0.1
 7 C  dx2y2           0.4       0.2       0.1       0.2       0.0       0.4
 7 C  dxy             0.0       0.1       0.0       0.1       0.0       0.2
 8 C  s               9.8       3.9       4.6       5.7       0.3       2.0
 8 C  pz              0.5       0.0       0.1       0.1       0.2       2.2
 8 C  px              2.2       0.3       0.7       5.4       1.0       1.1
 8 C  py              0.4       0.4       1.2       0.2       1.6       1.2
 8 C  dz2             0.1       0.0       0.1       0.1       0.0       0.2
 8 C  dxz             0.0       0.0       0.0       0.2       0.1       0.3
 8 C  dx2y2           0.6       0.2       0.0       0.3       0.2       0.2
 8 C  dxy             0.0       0.1       0.2       0.0       0.0       0.2
 9 H  s               0.1       4.9       1.6       0.1       1.6       0.0
 9 H  pz              0.0       0.5       0.1       0.0       0.1       0.0
10 H  s               0.1       5.0       2.1       0.1       0.8       0.2
10 H  px              0.0       0.5       0.2       0.0       0.0       0.0
11 H  s               0.1       5.2       1.9       0.1       1.0       0.1
11 H  py              0.0       0.5       0.2       0.0       0.1       0.0
12 H  s               0.1       0.9       1.2       0.0       1.6       2.3
13 H  s               2.7       0.2       1.2       2.9       0.0       2.7
13 H  pz              0.2       0.0       0.1       0.2       0.0       0.2
14 H  s               2.8       0.2       1.2       3.3       0.1       0.9
14 H  py              0.2       0.0       0.1       0.3       0.0       0.1
15 H  s               2.0       0.6       0.4       3.0       0.9       2.5
15 H  pz              0.1       0.0       0.0       0.2       0.0       0.2
16 H  s               2.0       0.6       0.3       2.6       0.8       4.4
16 H  pz              0.1       0.0       0.0       0.2       0.1       0.3
17 H  s               0.0       1.4       2.4       0.1       1.3       4.5
17 H  pz              0.0       0.1       0.2       0.0       0.1       0.2
18 H  s               0.0       1.4       2.9       0.1       1.3       2.3
18 H  px              0.0       0.2       0.3       0.0       0.1       0.1
19 H  s               2.7       0.1       0.0       3.7       0.5       2.3
19 H  py              0.2       0.0       0.0       0.4       0.0       0.2
20 H  s               2.6       0.1       0.0       3.3       0.4       4.4
20 H  pz              0.2       0.0       0.0       0.2       0.0       0.2
20 H  py              0.1       0.0       0.0       0.1       0.0       0.1
21 H  s               2.0       0.8       1.7       2.6       0.2       3.1
21 H  pz              0.1       0.1       0.1       0.2       0.0       0.1
22 H  s               2.2       0.8       1.9       3.0       0.2       0.9
22 H  pz              0.1       0.1       0.1       0.2       0.0       0.1
22 H  px              0.1       0.0       0.1       0.0       0.0       0.0

                     18        19        20        21        22        23   
                  -0.96933  -0.95608  -0.91440  -0.89712  -0.87735  -0.87442
                   2.00000   2.00000   2.00000   2.00000   2.00000   2.00000
                  --------  --------  --------  --------  --------  --------
 0 C  s               0.0       1.7       0.0       0.0       0.0       0.0
 0 C  pz              0.8      12.1       1.6       0.0       0.5       0.0
 0 C  px              1.4       8.4       0.6       0.3       0.6       0.1
 0 C  py              0.1       3.7       3.1       4.3       0.0       1.3
 0 C  dz2             0.2       0.1       0.0       0.0       0.0       0.0
[...]
                   5.94770   6.11144   6.12518   6.41762   6.61755   6.63167
                   0.00000   0.00000   0.00000   0.00000   0.00000   0.00000
                  --------  --------  --------  --------  --------  --------
 0 C  s               0.0       0.2       0.3       0.0       0.1       0.0
 0 C  pz              0.0       0.0       0.4       0.0       0.0       0.1
 0 C  px              0.0       0.1       0.0       0.0       0.1       0.0
 0 C  py              0.1       0.0       0.0       0.0       0.0       0.0
 0 C  dz2             0.0       0.7       0.2       0.0       0.0       0.0
 0 C  dx2y2           0.0       0.2       0.1       0.0       0.0       0.0
 0 C  f0              0.0       0.1       0.1       0.0       0.0       0.0
 0 C  f+1             0.0       0.2       0.0       0.0       0.1       0.0
 0 C  f-1             0.0       0.2       0.1       0.0       0.0       0.0
 0 C  f+2             0.0       0.2       0.1       0.0       0.0       0.0
 0 C  f-3             0.0       0.1       0.0       0.0       0.0       0.0
 1 C  s               0.0       0.0       1.6       0.0       2.7       1.6
 1 C  pz              0.0       0.0       0.3       0.2       1.1       0.8
 1 C  px              0.0       0.5       0.5       0.1       0.7       1.2
 1 C  py              0.0       0.0       0.0       1.6       0.1       0.2
 1 C  dz2             0.0       0.9       0.4       0.8       0.9       0.4
 1 C  dxz             0.1       2.9       0.3       0.0       0.4       1.7
 1 C  dyz             0.0       0.6       0.1       1.7       0.4       0.2
 1 C  dx2y2           0.2       0.8       0.7       0.1       0.1       0.6
 1 C  dxy             0.6       0.1       0.3       0.5       0.0       0.0
 1 C  f0              0.0       4.6       0.5       0.3       0.9       0.0
 1 C  f+1             0.0       2.3       0.2       0.0       0.4       1.1
 1 C  f-1             0.0       1.7       0.3       0.1       0.4       0.0
 1 C  f+2             0.0       5.5       0.3       0.0       0.1       0.3
 1 C  f-2             0.1       0.0       0.0       0.2       0.1       0.3
 1 C  f+3             0.0       0.1       0.0       0.0       0.1       0.0
 1 C  f-3             0.0       0.6       0.0       0.0       0.0       0.0
 2 O  s               0.0       0.0       0.3       0.0       1.2       0.6
 2 O  pz              0.0       0.2       0.0       0.2       2.1       0.2
 2 O  px              0.0       1.4       0.1       0.1       0.4       2.9
 2 O  py              0.0       0.2       0.0       1.9       0.3       0.1
 2 O  dz2             3.4       8.6       0.8      16.1      49.1       0.2
 2 O  dxz            11.6       8.9       9.0       0.1       1.2      53.0
 2 O  dyz             3.5       0.8      18.0      37.8      15.5       0.1
 2 O  dx2y2          19.0      18.8      37.8       1.7       2.0      10.0
 2 O  dxy            56.4       0.4      17.1      12.0       0.5       1.8
 2 O  f0              0.4      10.7       1.1       8.7       9.2       1.8
 2 O  f+1             0.8       5.9       0.0       0.4       0.7       9.5
 2 O  f-1             0.4       7.6       0.2       6.1       6.3       0.2
 2 O  f+2             0.4       8.6       3.6       1.2       1.3       7.6
 2 O  f-2             0.8       0.3       0.2       6.7       0.3       1.0
 2 O  f+3             0.0       0.1       1.5       0.6       0.1       0.4
 2 O  f-3             1.0       0.6       0.0       0.4       0.0       0.5
 3 C  s               0.0       0.1       1.2       0.0       0.1       0.1
 3 C  pz              0.0       0.3       0.2       0.0       0.0       0.0
 3 C  px              0.0       0.1       1.0       0.0       0.0       0.1
 3 C  dxz             0.0       0.8       0.0       0.0       0.0       0.1
 3 C  dx2y2           0.0       0.0       0.1       0.0       0.0       0.1
 3 C  dxy             0.2       0.1       0.0       0.0       0.0       0.1
 3 C  f0              0.0       0.5       0.0       0.0       0.0       0.1
 3 C  f+1             0.0       0.2       0.0       0.0       0.0       0.1
 3 C  f+2             0.0       0.8       0.0       0.0       0.0       0.0
 3 C  f-3             0.0       0.2       0.0       0.0       0.0       0.0
 4 C  px              0.0       0.0       0.1       0.0       0.1       0.0

                    354       355       356       357       358       359   
                  20.75628  20.85107  20.87203  20.91212  20.93468  21.02375
                   0.00000   0.00000   0.00000   0.00000   0.00000   0.00000
                  --------  --------  --------  --------  --------  --------
 0 C  s              84.3       5.6       3.7       2.5       0.7       1.0
 1 C  s               0.2       0.2       0.3       0.3       0.3       0.0
 3 C  s               0.7       4.1       0.5       4.9      10.7       0.7
 4 C  s               0.0       4.8      18.5       5.0      19.7      46.4
 5 C  s               0.4      18.5      21.5      12.0      28.3      13.7
 6 C  s               1.6      24.3       3.2      34.0      29.4       0.1
 7 C  s               1.4      29.3      16.1      25.7       7.8      13.2
 8 C  s               9.8      11.3      35.0      14.1       1.6      23.7
 9 H  s               0.2       0.0       0.0       0.0       0.0       0.0
10 H  s               0.2       0.0       0.0       0.0       0.0       0.0
11 H  s               0.2       0.0       0.0       0.0       0.0       0.0
13 H  s               0.0       0.0       0.0       0.0       0.1       0.1
18 H  s               0.0       0.1       0.0       0.1       0.0       0.0
19 H  s               0.0       0.1       0.0       0.1       0.0       0.0

                    360       361       362   
                  21.12685  21.47804  41.54830
                   0.00000   0.00000   0.00000
                  --------  --------  --------
 0 C  s               0.2       0.5       0.0
 1 C  s               0.0      95.4       0.0
 1 C  pz              0.0       0.3       0.0
 2 O  s               0.0       1.1      99.8
 2 O  pz              0.0       0.6       0.0
 2 O  px              0.0       0.1       0.0
 3 C  s              76.7       0.3       0.0
 4 C  s               3.8       0.2       0.0
 5 C  s               4.2       0.0       0.0
 6 C  s               5.9       0.1       0.0
 7 C  s               5.1       0.0       0.0
 8 C  s               2.8       0.4       0.0
12 H  s               0.3       0.0       0.0


                      *****************************
                      * MAYER POPULATION ANALYSIS *
                      *****************************

  NA   - Mulliken gross atomic population
  ZA   - Total nuclear charge
  QA   - Mulliken gross atomic charge
  VA   - Mayer's total valence
  BVA  - Mayer's bonded valence
  FA   - Mayer's free valence

  ATOM       NA         ZA         QA         VA         BVA        FA
  0 C      6.3772     6.0000    -0.3772     3.8474     3.8474     0.0000
  1 C      5.7894     6.0000     0.2106     4.0433     4.0433    -0.0000
  2 O      8.3171     8.0000    -0.3171     2.1617     2.1617    -0.0000
  3 C      6.0478     6.0000    -0.0478     3.7227     3.7227     0.0000
  4 C      6.2107     6.0000    -0.2107     4.0067     4.0067    -0.0000
  5 C      6.1669     6.0000    -0.1669     3.9208     3.9208    -0.0000
  6 C      6.1845     6.0000    -0.1845     3.9450     3.9450     0.0000
  7 C      6.1727     6.0000    -0.1727     3.9427     3.9427    -0.0000
  8 C      6.2494     6.0000    -0.2494     3.9356     3.9356    -0.0000
  9 H      0.8747     1.0000     0.1253     0.9709     0.9709     0.0000
 10 H      0.8554     1.0000     0.1446     0.9886     0.9886     0.0000
 11 H      0.8611     1.0000     0.1389     0.9736     0.9736     0.0000
 12 H      0.9121     1.0000     0.0879     0.9704     0.9704    -0.0000
 13 H      0.8923     1.0000     0.1077     0.9899     0.9899    -0.0000
 14 H      0.8887     1.0000     0.1113     0.9836     0.9836    -0.0000
 15 H      0.8958     1.0000     0.1042     0.9731     0.9731    -0.0000
 16 H      0.9133     1.0000     0.0867     0.9765     0.9765    -0.0000
 17 H      0.9098     1.0000     0.0902     0.9778     0.9778     0.0000
 18 H      0.8965     1.0000     0.1035     0.9710     0.9710    -0.0000
 19 H      0.8959     1.0000     0.1041     0.9719     0.9719     0.0000
 20 H      0.9104     1.0000     0.0896     0.9783     0.9783    -0.0000
 21 H      0.8895     1.0000     0.1105     0.9762     0.9762     0.0000
 22 H      0.8887     1.0000     0.1113     0.9704     0.9704     0.0000

  Mayer bond orders larger than 0.100000
B(  0-C ,  1-C ) :   0.9689 B(  0-C ,  9-H ) :   0.9771 B(  0-C , 10-H ) :   0.9750 
B(  0-C , 11-H ) :   0.9496 B(  1-C ,  2-O ) :   2.1353 B(  1-C ,  3-C ) :   0.9301 
B(  3-C ,  4-C ) :   0.9956 B(  3-C ,  8-C ) :   0.9302 B(  3-C , 12-H ) :   0.9446 
B(  4-C ,  5-C ) :   0.9761 B(  4-C , 13-H ) :   0.9717 B(  4-C , 14-H ) :   0.9758 
B(  5-C ,  6-C ) :   0.9852 B(  5-C , 15-H ) :   0.9791 B(  5-C , 16-H ) :   0.9740 
B(  6-C ,  7-C ) :   0.9927 B(  6-C , 17-H ) :   0.9743 B(  6-C , 18-H ) :   0.9762 
B(  7-C ,  8-C ) :   0.9876 B(  7-C , 19-H ) :   0.9765 B(  7-C , 20-H ) :   0.9743 
B(  8-C , 21-H ) :   0.9679 B(  8-C , 22-H ) :   0.9728 

-------
TIMINGS
-------

Total SCF time: 0 days 0 hours 3 min 34 sec 

Total time                  ....     214.197 sec
Sum of individual times     ....     210.365 sec  ( 98.2%)

SCF preparation             ....       0.326 sec  (  0.2%)
Fock matrix formation       ....     207.798 sec  ( 97.0%)
  Startup                   ....       0.088 sec  (  0.0% of F)
  Split-RI-J                ....       8.360 sec  (  4.0% of F)
  Chain of spheres X        ....     181.052 sec  ( 87.1% of F)
  XC integration            ....      20.876 sec  ( 10.0% of F)
    Basis function eval.    ....       4.487 sec  ( 21.5% of XC)
    Density eval.           ....       4.329 sec  ( 20.7% of XC)
    XC-Functional eval.     ....       4.201 sec  ( 20.1% of XC)
    XC-Potential eval.      ....       6.677 sec  ( 32.0% of XC)
Diagonalization             ....       0.000 sec  (  0.0%)
Density matrix formation    ....       0.278 sec  (  0.1%)
Total Energy calculation    ....       0.098 sec  (  0.0%)
Population analysis         ....       0.247 sec  (  0.1%)
Orbital Transformation      ....       0.140 sec  (  0.1%)
Orbital Orthonormalization  ....       0.000 sec  (  0.0%)
DIIS solution               ....       0.861 sec  (  0.4%)
  MO trafo                  ....       0.000 sec  (  0.0 % of DIIS)
  Orb grad                  ....       0.000 sec  (  0.0 % of DIIS)
  Energy W gradient         ....       0.000 sec  (  0.0 % of DIIS)
  DIIS error                ....       0.020 sec  (  2.3 % of DIIS)
  DIIS work                 ....       0.745 sec  ( 86.4 % of DIIS)
  Form Q                    ....       0.000 sec  (  0.0 % of DIIS)
  Form QpQm                 ....       0.000 sec  (  0.0 % of DIIS)
  Exp/Cayley                ....       0.000 sec  (  0.0 % of DIIS)
  Orb update                ....       0.000 sec  (  0.0 % of DIIS)
  Wake-sleep                ....       0.020 sec  (  2.3 % of DIIS)
SOSCF solution              ....       0.350 sec  (  0.2%)
  MO trafo                  ....       0.130 sec  ( 37.2 % of SOSCF)
  Orb grad                  ....       0.005 sec  (  1.4 % of SOSCF)
  Rot update                ....       0.064 sec  ( 18.3 % of SOSCF)
  Step                      ....       0.151 sec  ( 43.1 % of SOSCF)
Grid generation             ....       0.266 sec  (  0.1%)
Finished LeanSCF after 214.3 sec

Maximum memory used throughout the entire LEANSCF-calculation: 54.3 MB
------------------   -----------------
gCP correction             0.015782946
------------------   -----------------

-------------------------   --------------------
FINAL SINGLE POINT ENERGY      -388.543102986250
-------------------------   --------------------


------------------------------------------------------------------------------
                              ORCA PROPERTY CALCULATIONS
------------------------------------------------------------------------------

GBWName                                 ... sp_gas.gbw
Number of atoms                         ...     23
Number of basis functions               ...    363
Max core memory                         ...   1024 MB

Electric properties:
Dipole moment                           ... YES
Quadrupole moment                       ...  NO
Static polarizability (Dipole/Dipole)   ...  NO
Static polarizability (Dipole/Quad.)    ...  NO
Static polarizability (Quad./Quad.)     ...  NO
Static polarizability (Velocity)        ...  NO

Atomic electric properties:
Dipole moment                           ...  NO
Quadrupole moment                       ...  NO
Static polarizability                   ...  NO

Choice of electric origin               ... Center of mass
Position of electric origin             ...    -0.022556     0.081974     0.018123

General magnetic properties:
Magnetizability                         ...  NO

EPR properties:
g-Tensor (aka g-matrix)                 ...  NO
Zero-Field splitting spin-orbit         ...  NO
Zero-field splitting spin-spin          ...  NO
Hyperfine couplings                     ...  NO (   0 nuclei)
Quadrupole couplings                    ...  NO (   0 nuclei)
Contact density                         ...  NO (   0 nuclei)

NMR properties:
Chemical shifts                         ...  NO (   0 nuclei)
Spin-rotation constants                 ...  NO (   0 nuclei)
Spin-spin couplings                     ...  NO (   0 nuclei,    0 pairs)

Choice of magnetic origin               ... GIAO
Position of magnetic origin             ...     0.000000     0.000000     0.000000

Properties with geometric perturbations:
SCF Hessian                             ...  NO
IR spectrum                             ...  NO
VCD spectrum                            ...  NO
X-ray spectroscopy properties:
SCF XES/XAS/RIXS spectra                ...  NO


-------------
DIPOLE MOMENT
-------------

Method             : SCF
Type of density    : Electron Density
Multiplicity       :   1
Irrep              :   0
Energy             :  -388.5588859319500443 Eh
Relativity type    : 
Basis              : AO
                                X                 Y                 Z
Electronic contribution:     -5.488963332       1.545678720      -2.956521763
Nuclear contribution   :      6.071303934      -1.875416315       3.950858102
                        -----------------------------------------
Total Dipole Moment    :      0.582340602      -0.329737595       0.994336339
                        -----------------------------------------
Magnitude (a.u.)       :      1.198562561
Magnitude (Debye)      :      3.046503921



--------------------
Rotational spectrum 
--------------------
 
Rotational constants in cm-1:             0.102261             0.036330             0.029325 
Rotational constants in MHz :          3065.692767          1089.140050           879.149706 

Dipole components along the rotational axes: 
x,y,z [a.u.] :     0.563048    -0.942902     0.480067 
x,y,z [Debye]:     1.431154    -2.396668     1.220233 

 

Dipole moment calculation done in   0.0 sec 

Maximum memory used throughout the entire PROP-calculation: 33.4 MB

--------------------------------
SUGGESTED CITATIONS FOR THIS RUN
--------------------------------

Below you find a list of papers that are relevant to this ORCA run
We neither can nor want to force you to cite these papers, but we appreciate if you do
You receive ORCA, which is the product of decades of hard work by many enthusiastic individuals, for free
The only thing we kindly ask in return is that you cite our papers,
We deeply appreciate it, if you show your appreciation for ORCA by not just citing the generic ORCA reference.

Please note that relegating all ORCA citations to the supporting information does *not* help us.
SI sections are not indexed - citations you put there will not count into any citation statistics
But we need these citations in order to attract the funding resources that allow us to do what we are doing

Therefore, if you are a happy ORCA user, please consider citing a few of the papers listed below in the main body of your paper

In addition to the list printed below, the program has created the file sp_gas.bibtex that contains the list in bibtex format
You can import this file easily into all common literature databanks and citation aid programs


List of essential papers. We consider these as the minimum necessary citations

  1. Neese,F.
     Software update: the ORCA program system, version 5.0
     WIRES Comput. Molec. Sci., 2022 12(1)e1606
     doi.org/10.1002/wcms.1606

List of papers to cite with high priority. The work reported in these papers was absolutely
necessary for this run to complete.
Our perspective: the developers of density functionals and basis sets usually get cited in chemistry papers
Good! But without the algorithms to do something with them, the functionals or basis sets would not do anything.
Hence, in our opinion, the algorithm design and method developments papers are equally worthy of getting cited

  1. Neese,F.
     An improvement of the resolution of the identity approximation for the formation of the Coulomb matrix
     J. Comp. Chem., 2003 24(14)1740-1747
     doi.org/10.1002/jcc.10318
  2. Neese,F.; Wennmohs,F.; Hansen,A.; Becker,U.
     Efficient, approximate and parallel Hartree-Fock and hybrid DFT calculations. A 'chain-of-spheres' algorithm for the Hartree-Fock exchange
     Chem. Phys., 2009 356(1-3)98-109
     doi.org/10.1016/j.chemphys.2008.10.036
  3. Helmich-Paris,B.; de Souza,B.; Neese,F.; Izsák,R.
     An improved chain of spheres for exchange algorithm
     J. Chem. Phys., 2021 155 104109
     doi.org/doi: 10.1063/5.0058766.
  4. Neese,F.
     The SHARK Integral Generation and Digestion System
     J. Comp. Chem., 2022  1-16
     doi.org/10.1002/jcc.26942

List of suggested additional citations. These are papers that are important in the 'surrounding' of 
of this run, or papers that preceded the highly important papers. If you like your results we are grateful for a citation.

  1. Izsak,R.; Neese,F.
     An overlap fitted chain of spheres exchange method
     J. Chem. Phys., 2011 135 144105
     doi.org/10.1063/1.3646921
  2. Izsak,R.; Hansen,A.; Neese,F.
     The resolution of identity and chain of spheres approximations for the LPNO-CCSD singles Fock term
     Molec. Phys., 2012 110 2413-2417
     doi.org/10.1080/00268976.2012.687466
  3. Neese,F.
     The ORCA program system
     WIRES Comput. Molec. Sci., 2012 2(1)73-78
     doi.org/10.1002/wcms.81
  4. Izsak,R.; Neese,F.; Klopper,W.
     Robust fitting techniques in the chain of spheres approximation to the Fock exchange: The role of the complementary space
     J. Chem. Phys., 2013 139 
     doi.org/10.1063/1.4819264
  5. Neese,F.
     Software update: the ORCA program system, version 4.0
     WIRES Comput. Molec. Sci., 2018 8(1)1-6
     doi.org/10.1002/wcms.1327
  6. Neese,F.; Wennmohs,F.; Becker,U.; Riplinger,C.
     The ORCA quantum chemistry program package
     J. Chem. Phys., 2020 152 Art. No. L224108
     doi.org/10.1063/5.0004608

List of optional additional citations

  1. Neese,F.
     Approximate second-order SCF convergence for spin unrestricted wavefunctions
     Chem. Phys. Lett., 2000 325(1-3)93-98
     doi.org/10.1016/s0009-2614(00)00662-x

Timings for individual modules:

Sum of individual times          ...      218.282 sec (=   3.638 min)
Startup calculation              ...        3.355 sec (=   0.056 min)   1.5 %
SCF iterations                   ...      214.809 sec (=   3.580 min)  98.4 %
Property calculations            ...        0.118 sec (=   0.002 min)   0.1 %
                             ****ORCA TERMINATED NORMALLY****
TOTAL RUN TIME: 0 days 0 hours 3 minutes 39 seconds 234 msec
