      -----------------------------------------------------------      
     |                   =====================                   |     
     |                           x T B                           |     
     |                   =====================                   |     
     |                         S. Grimme                         |     
     |          Mulliken Center for Theoretical Chemistry        |     
     |                    University of Bonn                     |     
      -----------------------------------------------------------      

   * xtb version 6.7.1 (edcfbbe) compiled by 'albert@albert-system' on 2024-07-22

   xtb is free software: you can redistribute it and/or modify it under
   the terms of the GNU Lesser General Public License as published by
   the Free Software Foundation, either version 3 of the License, or
   (at your option) any later version.
   
   xtb is distributed in the hope that it will be useful,
   but WITHOUT ANY WARRANTY; without even the implied warranty of
   MERCHANTABILITY or FITNESS FOR A PARTICULAR PURPOSE.  See the
   GNU Lesser General Public License for more details.
   
   Cite this work as:
   * C. Bannwarth, E. Caldeweyher, S. Ehlert, A. Hansen, P. Pracht,
     J. Seibert, S. Spicher, S. Grimme, WIREs Comput. Mol. Sci., 2020, 11,
     e01493. DOI: 10.1002/wcms.1493
   
   for GFN2-xTB:
   * C. Bannwarth, S. Ehlert and S. Grimme., J. Chem. Theory Comput., 2019,
     15, 1652-1671. DOI: 10.1021/acs.jctc.8b01176
   for GFN1-xTB:
   * S. Grimme, C. Bannwarth, P. Shushkov, J. Chem. Theory Comput., 2017,
     13, 1989-2009. DOI: 10.1021/acs.jctc.7b00118
   for GFN0-xTB:
   * P. Pracht, E. Caldeweyher, S. Ehlert, S. Grimme, ChemRxiv, 2019, preprint.
     DOI: 10.26434/chemrxiv.8326202.v1
   for GFN-FF:
   * S. Spicher and S. Grimme, Angew. Chem. Int. Ed., 2020, 59, 15665-15673.
     DOI: 10.1002/anie.202004239
   
   for ALPB and GBSA implicit solvation:
   * S. Ehlert, M. Stahn, S. Spicher, S. Grimme, J. Chem. Theory Comput.,
     2021, 17, 4250-4261. DOI: 10.1021/acs.jctc.1c00471
   
   for ddCOSMO and CPCM-X implicit solvation:
   * M. Stahn, S. Ehlert, S. Grimme, J. Phys. Chem. A,
     2023, XX, XXXX-XXXX. DOI: 10.1021/acs.jpca.3c04382
   
   for DFT-D4:
   * E. Caldeweyher, C. Bannwarth and S. Grimme, J. Chem. Phys., 2017,
     147, 034112. DOI: 10.1063/1.4993215
   * E. Caldeweyher, S. Ehlert, A. Hansen, H. Neugebauer, S. Spicher,
     C. Bannwarth and S. Grimme, J. Chem. Phys., 2019, 150, 154122.
     DOI: 10.1063/1.5090222
   * E. Caldeweyher, J.-M. Mewes, S. Ehlert and S. Grimme, Phys. Chem. Chem. Phys.
     2020, 22, 8499-8512. DOI: 10.1039/D0CP00502A
   
   for sTDA-xTB:
   * S. Grimme and C. Bannwarth, J. Chem. Phys., 2016, 145, 054103.
     DOI: 10.1063/1.4959605
   
   in the mass-spec context:
   * V. Asgeirsson, C. Bauer and S. Grimme, Chem. Sci., 2017, 8, 4879.
     DOI: 10.1039/c7sc00601b
   * J. Koopman and S. Grimme, ACS Omega 2019, 4, 12, 15120-15133.
     DOI: 10.1021/acsomega.9b02011
   
   for metadynamics refer to:
   * S. Grimme, J. Chem. Theory Comput., 2019, 155, 2847-2862
     DOI: 10.1021/acs.jctc.9b00143
   
   for SPH calculations refer to:
   * S. Spicher and S. Grimme, J. Chem. Theory Comput., 2021, 17, 1701-1714
     DOI: 10.1021/acs.jctc.0c01306
   
   for ONIOM refer to:
   * C. Plett, A. Katbashev, S. Ehlert, S. Grimme, M. Bursch,
     Phys. Chem. Chem. Phys., 2023, 25, 17860-17868. DOI: 10.1039/D3CP02178E
   
   for DIPRO refer to:
   * J. Kohn, N. Gildemeister, S. Grimme, D. Fazzi, A. Hansen,
     J. Chem. Phys., 2023, just accepted.
   
   for PTB refer to:
   * S. Grimme, M. Mueller, A. Hansen, J. Chem. Phys., 2023, 158, 124111.
     DOI: 10.1063/5.0137838
   
   with help from (in alphabetical order)
   P. Atkinson, C. Bannwarth, F. Bohle, G. Brandenburg, E. Caldeweyher
   M. Checinski, S. Dohm, S. Ehlert, S. Ehrlich, I. Gerasimov, C. Hölzer
   A. Katbashev, J. Kohn, J. Koopman, C. Lavigne, S. Lehtola, F. März, M. Müller,
   F. Musil, H. Neugebauer, J. Pisarek, C. Plett, P. Pracht, F. Pultar,
   J. Seibert, P. Shushkov, S. Spicher, M. Stahn, M. Steiner, T. Strunk,
   J. Stückrath, T. Rose, and J. Unsleber
   
 * started run on 2025/04/04 at 21:57:00.073     
   ID    Z sym.   atoms
    1    6 C      1, 3-8
    2    8 O      2, 9
    3    1 H      10-17

           -------------------------------------------------
          |                Calculation Setup                |
           -------------------------------------------------

          program call               : /srv/scratch/z5358697/.xtb/bin/xtb xtb_rrho.coord --gfn2 --ohess vtight --chrg 0 --enso --norestart -I rrho-xcontrol-inp --parallel 1 --alpb water
          hostname                   : k151
          coordinate file            : xtb_rrho.coord
          omp threads                :                     1


           -------------------------------------------------
          |                 G F N 2 - x T B                 |
           -------------------------------------------------

        Reference                      10.1021/acs.jctc.8b01176
      * Hamiltonian:
        H0-scaling (s, p, d)           1.850000    2.230000    2.230000
        zeta-weighting                 0.500000
      * Dispersion:
        s8                             2.700000
        a1                             0.520000
        a2                             5.000000
        s9                             5.000000
      * Repulsion:
        kExp                           1.500000    1.000000
        rExp                           1.000000
      * Coulomb:
        alpha                          2.000000
        third order                    shell-resolved
        anisotropic                    true
        a3                             3.000000
        a5                             4.000000
        cn-shift                       1.200000
        cn-exp                         4.000000
        max-rad                        5.000000

      * Solvation model:               ALPB
        Solvent                        water
        Parameter file                 internal GFN2-xTB/ALPB
        Dielectric constant                8.0200E+01
        Reference state                gsolv [1 M gas/solution]
        Free energy shift                  1.0808E-03 Eh       6.7819E-01 kcal/mol
        Temperature                        2.9815E+02 K
        Density                            1.0000E+00 kg/L
        Solvent mass                       1.8000E+01 g/mol
        Interaction kernel             P16
        Born radius scaling (c1)           1.4744E+00
        Born radii integrator          GBOBC
        Born offset                        0.0000E+00 a0       0.0000E+00 AA
        H-bond correction              true
        Ion screening                  false
        Surface tension                    1.0000E-05 Eh       1.5569E+01 dyn/cm
        Grid points                               974 per atom

          ...................................................
          :                      SETUP                      :
          :.................................................:
          :  # basis functions                  44          :
          :  # atomic orbitals                  44          :
          :  # shells                           26          :
          :  # electrons                        48          :
          :  max. iterations                   250          :
          :  Hamiltonian                  GFN2-xTB          :
          :  restarted?                      false          :
          :  GBSA solvation                   true          :
          :  PC potential                    false          :
          :  electronic temp.          300.0000000     K    :
          :  accuracy                    1.0000000          :
          :  -> integral cutoff          0.2500000E+02      :
          :  -> integral neglect         0.1000000E-07      :
          :  -> SCF convergence          0.1000000E-05 Eh   :
          :  -> wf. convergence          0.1000000E-03 e    :
          :  Broyden damping             0.4000000          :
          :  net charge                          0          :
          :  unpaired electrons                  0          :
          ...................................................

 iter      E             dE          RMSdq      gap      omega  full diag
   1    -27.5303876 -0.275304E+02  0.487E+00    4.11       0.0  T
   2    -27.5477856 -0.173980E-01  0.271E+00    4.13       1.0  T
   3    -27.5475697  0.215926E-03  0.604E-01    4.01       1.0  T
   4    -27.5488476 -0.127792E-02  0.197E-01    4.12       1.0  T
   5    -27.5491000 -0.252356E-03  0.803E-02    4.11       1.0  T
   6    -27.5491036 -0.359380E-05  0.282E-02    4.11       1.0  T
   7    -27.5491051 -0.157142E-05  0.113E-02    4.11       2.1  T
   8    -27.5491059 -0.775368E-06  0.490E-03    4.11       4.9  T
   9    -27.5491060 -0.312580E-07  0.232E-03    4.11      10.5  T
  10    -27.5491060 -0.306209E-07  0.874E-04    4.11      27.7  T
  11    -27.5491060 -0.274232E-08  0.315E-04    4.11      77.0  T

   *** convergence criteria satisfied after 11 iterations ***

         #    Occupation            Energy/Eh            Energy/eV
      -------------------------------------------------------------
         1        2.0000           -0.7216721             -19.6377
       ...           ...                  ...                  ...
        18        2.0000           -0.4683333             -12.7440
        19        2.0000           -0.4657474             -12.6736
        20        2.0000           -0.4464435             -12.1483
        21        2.0000           -0.4370876             -11.8938
        22        2.0000           -0.4265001             -11.6057
        23        2.0000           -0.3946932             -10.7401
        24        2.0000           -0.3714712             -10.1082 (HOMO)
        25                         -0.2204277              -5.9981 (LUMO)
        26                         -0.2139522              -5.8219
        27                         -0.0907077              -2.4683
        28                         -0.0054782              -0.1491
        29                          0.0703903               1.9154
       ...                                ...                  ...
        44                          0.6469005              17.6031
      -------------------------------------------------------------
                  HL-Gap            0.1510434 Eh            4.1101 eV
             Fermi-level           -0.2959494 Eh           -8.0532 eV

 SCC (total)                   0 d,  0 h,  0 min,  0.025 sec
 SCC setup                      ...        0 min,  0.001 sec (  3.835%)
 Dispersion                     ...        0 min,  0.000 sec (  0.364%)
 classical contributions        ...        0 min,  0.000 sec (  0.073%)
 integral evaluation            ...        0 min,  0.002 sec (  6.256%)
 iterations                     ...        0 min,  0.018 sec ( 72.458%)
 molecular gradient             ...        0 min,  0.004 sec ( 16.369%)
 printout                       ...        0 min,  0.000 sec (  0.567%)

         :::::::::::::::::::::::::::::::::::::::::::::::::::::
         ::                     SUMMARY                     ::
         :::::::::::::::::::::::::::::::::::::::::::::::::::::
         :: total energy             -27.193431029052 Eh    ::
         :: total w/o Gsasa/hb       -27.189225912080 Eh    ::
         :: gradient norm              0.027063545317 Eh/a0 ::
         :: HOMO-LUMO gap              4.110100400676 eV    ::
         ::.................................................::
         :: SCC energy               -27.549074677726 Eh    ::
         :: -> isotropic ES            0.044397309415 Eh    ::
         :: -> anisotropic ES          0.002171915017 Eh    ::
         :: -> anisotropic XC          0.007721081838 Eh    ::
         :: -> dispersion             -0.012731274869 Eh    ::
         :: -> Gsolv                  -0.009442981029 Eh    ::
         ::    -> Gelec               -0.005237864056 Eh    ::
         ::    -> Gsasa                0.000490169856 Eh    ::
         ::    -> Ghb                 -0.005776046526 Eh    ::
         ::    -> Gshift               0.001080759698 Eh    ::
         :: repulsion energy           0.355643648674 Eh    ::
         :: add. restraining           0.000000000000 Eh    ::
         :: total charge               0.000000000000 e     ::
         :::::::::::::::::::::::::::::::::::::::::::::::::::::

      ----------------------------------------------------------- 
     |                   =====================                   |
     |                        A N C O P T                        |
     |                   =====================                   |
     |               Approximate Normal Coordinate               |
     |                Rational Function Optimizer                |
      ----------------------------------------------------------- 
      ----------------------------------------------------------- 
     |                   =====================                   |
     |                        A N C O P T                        |
     |                   =====================                   |
     |               Approximate Normal Coordinate               |
     |                Rational Function Optimizer                |
      ----------------------------------------------------------- 

          ...................................................
          :                      SETUP                      :
          :.................................................:
          :   optimization level         verytight          :
          :   max. optcycles                   340          :
          :   ANC micro-cycles                  20          :
          :   degrees of freedom                45          :
          :.................................................:
          :   RF solver                   davidson          :
          :   write xtbopt.log                true          :
          :   linear?                        false          :
          :   energy convergence         0.1000000E-06 Eh   :
          :   grad. convergence          0.2000000E-03 Eh/α :
          :   maxmium RF displ.          1.0000000          :
          :   Hlow (freq-cutoff)         0.1000000E-01      :
          :   Hmax (freq-cutoff)         5.0000000          :
          :   S6 in model hess.         20.0000000          :
          ...................................................

generating ANC from exact Hessian ...
Using Lindh-Hessian (1995)
 Shifting diagonal of input Hessian by   7.314769481824969E-003
 Lowest  eigenvalues of input Hessian
    0.000000    0.000000    0.000000    0.000000    0.000000    0.000000
    0.010000    0.012213    0.015113    0.016642    0.023016    0.027852
    0.032558    0.036190    0.050277    0.058493    0.069954    0.076222
 Highest eigenvalues
    1.511778    1.661362    1.758120    1.880008    2.023672    2.098839
 

........................................................................
.............................. CYCLE    1 ..............................
........................................................................

 iter      E             dE          RMSdq      gap      omega  full diag
   1    -27.5491060 -0.275491E+02  0.865E-05    4.11       0.0  T
   2    -27.5491060 -0.519655E-10  0.508E-05    4.11     477.2  T
   3    -27.5491060 -0.179980E-10  0.313E-05    4.11     775.5  T
     SCC iter.                  ...        0 min,  0.001 sec
     gradient                   ...        0 min,  0.004 sec
 * total energy  :   -27.1934310 Eh     change       -0.2034426E-09 Eh
   gradient norm :     0.0270655 Eh/α   predicted     0.0000000E+00 (-100.00%)
   displ. norm   :     0.0819110 α      lambda       -0.1386167E-02
   maximum displ.:     0.0408791 α      in ANC's #26, #3, #21, ...

........................................................................
.............................. CYCLE    2 ..............................
........................................................................

 iter      E             dE          RMSdq      gap      omega  full diag
   1    -27.5625737 -0.275626E+02  0.966E-02    4.15       0.0  T
   2    -27.5625818 -0.812990E-05  0.572E-02    4.16       1.0  T
   3    -27.5625806  0.123405E-05  0.321E-02    4.16       1.0  T
   4    -27.5625859 -0.535903E-05  0.488E-03    4.16       5.0  T
   5    -27.5625860 -0.679020E-07  0.311E-03    4.16       7.8  T
   6    -27.5625860 -0.300248E-07  0.155E-03    4.16      15.7  T
   7    -27.5625860 -0.747883E-08  0.448E-04    4.16      54.1  T
   8    -27.5625860 -0.474973E-09  0.163E-04    4.16     148.9  T
     SCC iter.                  ...        0 min,  0.003 sec
     gradient                   ...        0 min,  0.004 sec
 * total energy  :   -27.1942980 Eh     change       -0.8669220E-03 Eh
   gradient norm :     0.0116825 Eh/α   predicted    -0.6977334E-03 ( -19.52%)
   displ. norm   :     0.0359730 α      lambda       -0.1836656E-03
   maximum displ.:     0.0262977 α      in ANC's #3, #26, #11, ...

........................................................................
.............................. CYCLE    3 ..............................
........................................................................

 iter      E             dE          RMSdq      gap      omega  full diag
   1    -27.5661583 -0.275662E+02  0.438E-02    4.16       0.0  T
   2    -27.5661629 -0.454309E-05  0.254E-02    4.17       1.0  T
   3    -27.5661642 -0.132945E-05  0.159E-02    4.16       1.5  T
   4    -27.5661649 -0.693057E-06  0.321E-03    4.17       7.6  T
   5    -27.5661649 -0.344462E-07  0.194E-03    4.17      12.5  T
   6    -27.5661650 -0.124059E-07  0.112E-03    4.17      21.7  T
   7    -27.5661650 -0.391995E-08  0.300E-04    4.17      80.9  T
   8    -27.5661650 -0.229370E-09  0.991E-05    4.17     244.7  T
     SCC iter.                  ...        0 min,  0.003 sec
     gradient                   ...        0 min,  0.004 sec
 * total energy  :   -27.1944060 Eh     change       -0.1080966E-03 Eh
   gradient norm :     0.0045245 Eh/α   predicted    -0.9195116E-04 ( -14.94%)
   displ. norm   :     0.0153376 α      lambda       -0.2539796E-04
   maximum displ.:     0.0133902 α      in ANC's #3, #11, #38, ...

........................................................................
.............................. CYCLE    4 ..............................
........................................................................

 iter      E             dE          RMSdq      gap      omega  full diag
   1    -27.5658581 -0.275659E+02  0.188E-02    4.16       0.0  T
   2    -27.5658589 -0.814927E-06  0.111E-02    4.16       2.2  T
   3    -27.5658591 -0.225863E-06  0.692E-03    4.16       3.5  T
   4    -27.5658593 -0.123015E-06  0.131E-03    4.16      18.5  T
   5    -27.5658593 -0.620884E-08  0.758E-04    4.16      32.0  T
   6    -27.5658593 -0.204978E-08  0.447E-04    4.16      54.3  T
     SCC iter.                  ...        0 min,  0.002 sec
     gradient                   ...        0 min,  0.004 sec
 * total energy  :   -27.1944226 Eh     change       -0.1657353E-04 Eh
   gradient norm :     0.0015716 Eh/α   predicted    -0.1270255E-04 ( -23.36%)
   displ. norm   :     0.0115733 α      lambda       -0.5600110E-05
   maximum displ.:     0.0086048 α      in ANC's #3, #21, #7, ...

........................................................................
.............................. CYCLE    5 ..............................
........................................................................

 iter      E             dE          RMSdq      gap      omega  full diag
   1    -27.5649066 -0.275649E+02  0.148E-02    4.16       0.0  T
   2    -27.5649068 -0.262252E-06  0.866E-03    4.16       2.8  T
   3    -27.5649068 -0.937927E-08  0.522E-03    4.16       4.6  T
   4    -27.5649070 -0.107286E-06  0.777E-04    4.16      31.2  T
   5    -27.5649070 -0.213004E-08  0.434E-04    4.16      55.8  T
     SCC iter.                  ...        0 min,  0.002 sec
     gradient                   ...        0 min,  0.004 sec
 * total energy  :   -27.1944254 Eh     change       -0.2733746E-05 Eh
   gradient norm :     0.0006900 Eh/α   predicted    -0.2800875E-05 (   2.46%)
   displ. norm   :     0.0037913 α      lambda       -0.6723772E-06
   maximum displ.:     0.0032153 α      in ANC's #3, #7, #21, ...

........................................................................
.............................. CYCLE    6 ..............................
........................................................................

 iter      E             dE          RMSdq      gap      omega  full diag
   1    -27.5651113 -0.275651E+02  0.426E-03    4.16       0.0  T
   2    -27.5651113 -0.292082E-07  0.256E-03    4.16       9.5  T
   3    -27.5651113 -0.300916E-08  0.151E-03    4.16      16.1  T
   4    -27.5651113 -0.783822E-08  0.223E-04    4.16     109.0  T
   5    -27.5651113 -0.202860E-09  0.120E-04    4.16     202.5  T
     SCC iter.                  ...        0 min,  0.002 sec
     gradient                   ...        0 min,  0.004 sec
 * total energy  :   -27.1944259 Eh     change       -0.5023320E-06 Eh
   gradient norm :     0.0001110 Eh/α   predicted    -0.3377795E-06 ( -32.76%)
   displ. norm   :     0.0003207 α      lambda       -0.1367286E-07
   maximum displ.:     0.0001354 α      in ANC's #15, #26, #7, ...

........................................................................
.............................. CYCLE    7 ..............................
........................................................................

 iter      E             dE          RMSdq      gap      omega  full diag
   1    -27.5651526 -0.275652E+02  0.546E-04    4.16       0.0  T
   2    -27.5651526 -0.128375E-08  0.315E-04    4.16      76.9  T
   3    -27.5651526 -0.536403E-09  0.171E-04    4.16     141.6  T
     SCC iter.                  ...        0 min,  0.001 sec
     gradient                   ...        0 min,  0.004 sec
 * total energy  :   -27.1944259 Eh     change       -0.1120310E-07 Eh
   gradient norm :     0.0000288 Eh/α   predicted    -0.7207720E-08 ( -35.66%)
   displ. norm   :     0.0001800 α      lambda       -0.2226352E-08
   maximum displ.:     0.0001073 α      in ANC's #3, #15, #21, ...

   *** GEOMETRY OPTIMIZATION CONVERGED AFTER 7 ITERATIONS ***

------------------------------------------------------------------------
 total energy gain   :        -0.0009948 Eh       -0.6243 kcal/mol
 total RMSD          :         0.0299863 a0        0.0159 Å
 total power (kW/mol):        -0.3731358 (step)  -38.1212 (real)
------------------------------------------------------------------------

 ANCopt (total)                0 d,  0 h,  0 min,  0.069 sec
 optimizer setup                ...        0 min,  0.000 sec (  0.410%)
 model hessian                  ...        0 min,  0.002 sec (  2.918%)
 ANC generation                 ...        0 min,  0.000 sec (  0.557%)
 coordinate transformation      ...        0 min,  0.000 sec (  0.069%)
 single point calculation       ...        0 min,  0.059 sec ( 86.655%)
 optimization log               ...        0 min,  0.005 sec (  7.545%)
 hessian update                 ...        0 min,  0.000 sec (  0.063%)
 rational function              ...        0 min,  0.001 sec (  1.274%)

================
 final structure:
================
$coord
       -5.23306178681954       -1.46933668191375       -0.00023811440681      C
       -3.38987988296214        0.46205825771577       -0.00000774962156      O
       -0.88023993242813       -0.22519003086339       -0.00001099586413      C
        0.02672557215849       -2.67749938137055       -0.00000189147255      C
        2.61203064765949       -3.11979700183967       -0.00001404248275      C
        4.29301087708851       -1.12461501887934       -0.00003832559321      C
        3.40242917713334        1.33793573255520       -0.00004000228684      C
        0.82924339128429        1.80759132257504       -0.00002240802595      C
       -0.02073001908448        4.23669095312985       -0.00002065428122      O
       -5.07728781541528       -2.64586517749693       -1.69053159191596      H
       -7.04100260226878       -0.49155844233097       -0.00033295585760      H
       -5.07755659148353       -2.64602325243368        1.68996984393971      H
       -1.25894341978629       -4.25729910146730        0.00001740557435      H
        3.29389744313642       -5.04057076558861       -0.00000649121538      H
        6.30149089716746       -1.46887687776971       -0.00005646910054      H
        4.67481450456197        2.92919120411656       -0.00005940240630      H
       -1.85546812330172        4.22338160460425       -0.00002512140442      H
$end
 
 Bond Distances (Angstroems)
 ---------------------------
C1-O2=1.4128         C1-H10=1.0929        C1-H11=1.0877        C1-H12=1.0929        O2-C1=1.4128         O2-C3=1.3769         
C3-O2=1.3769         C3-C4=1.3836         C3-C8=1.4055         C4-C3=1.3836         C4-C5=1.3880         C4-H13=1.0778        
C5-C4=1.3880         C5-C6=1.3806         C5-H14=1.0786        C6-C5=1.3806         C6-C7=1.3857         C6-H15=1.0783        
C7-C6=1.3857         C7-C8=1.3842         C7-H16=1.0782        C8-C3=1.4055         C8-C7=1.3842         C8-O9=1.3618         
O9-C8=1.3618         O9-H17=0.9709        H10-C1=1.0929        H11-C1=1.0877        H12-C1=1.0929        H13-C4=1.0778        
H14-C5=1.0786        H15-C6=1.0783        H16-C7=1.0782        H17-O9=0.9709        
 C  H  Rav=1.0838 sigma=0.0066  Rmin=1.0778  Rmax=1.0929     7
 C  C  Rav=1.3879 sigma=0.0082  Rmin=1.3806  Rmax=1.4055     6
 O  H  Rav=0.9709 sigma=0.0000  Rmin=0.9709  Rmax=0.9709     1
 O  C  Rav=1.3839 sigma=0.0214  Rmin=1.3618  Rmax=1.4128     3
 
 selected bond angles (degree)
 --------------------
H10-C1-O2=111.11               H11-C1-O2=105.26               H11-C1-H10=109.71              H12-C1-O2=111.11               
H12-C1-H10=109.85              H12-C1-H11=109.71              C3-O2-C1=118.35                C4-C3-O2=125.61                
C8-C3-O2=114.75                C8-C3-C4=119.64                C5-C4-C3=120.00                H13-C4-C3=120.56               
H13-C4-C5=119.43               C6-C5-C4=120.41                H14-C5-C4=119.25               H14-C5-C6=120.34               
C7-C6-C5=120.00                H15-C6-C5=120.39               H15-C6-C7=119.61               C8-C7-C6=120.23                
H16-C7-C6=121.47               H16-C7-C8=118.30               C7-C8-C3=119.72                O9-C8-C3=120.65                
O9-C8-C7=119.63                H17-O9-C8=108.87               
 
 selected dihedral angles (degree)
 ---------------------------------
C3-O2-C1-H10=298.69           C3-O2-C1-H11=180.00           C3-O2-C1-H12= 61.32           C4-C3-O2-C1=  0.00            
C8-C3-O2-C1=179.99            C5-C4-C3-O2=180.00            C5-C4-C3-C8=  0.00            H13-C4-C3-O2=  0.00           
H13-C4-C3-C8=180.00           C6-C5-C4-C3=  0.00            C6-C5-C4-H13=180.00           H14-C5-C4-C3=180.00           
H14-C5-C4-H13=  0.00          C7-C6-C5-C4=  0.00            C7-C6-C5-H14=180.00           H15-C6-C5-C4=180.00           
H15-C6-C5-H14=  0.00          C8-C7-C6-C5=  0.00            C8-C7-C6-H15=180.00           H16-C7-C6-C5=180.00           
H16-C7-C6-H15=  0.00          C7-C8-C3-O2=180.00            C7-C8-C3-C4=  0.00            O9-C8-C3-O2=  0.00            
O9-C8-C3-C4=180.00            C3-C8-C7-C6=  0.00            C3-C8-C7-H16=180.00           O9-C8-C7-C6=180.00            
O9-C8-C7-H16=  0.00           H17-O9-C8-C3=  0.00           H17-O9-C8-C7=180.00           
           -------------------------------------------------
          |                Final Singlepoint                |
           -------------------------------------------------

          ...................................................
          :                      SETUP                      :
          :.................................................:
          :  # basis functions                  44          :
          :  # atomic orbitals                  44          :
          :  # shells                           26          :
          :  # electrons                        48          :
          :  max. iterations                   250          :
          :  Hamiltonian                  GFN2-xTB          :
          :  restarted?                      false          :
          :  GBSA solvation                   true          :
          :  PC potential                    false          :
          :  electronic temp.          300.0000000     K    :
          :  accuracy                    1.0000000          :
          :  -> integral cutoff          0.2500000E+02      :
          :  -> integral neglect         0.1000000E-07      :
          :  -> SCF convergence          0.1000000E-05 Eh   :
          :  -> wf. convergence          0.1000000E-03 e    :
          :  Broyden damping             0.4000000          :
          :  net charge                          0          :
          :  unpaired electrons                  0          :
          ...................................................

 iter      E             dE          RMSdq      gap      omega  full diag
   1    -27.5651526 -0.275652E+02  0.391E-05    4.16       0.0  T
   2    -27.5651526 -0.627765E-11  0.220E-05    4.16    1103.0  T
   3    -27.5651526 -0.190425E-11  0.126E-05    4.16    1926.7  T

   *** convergence criteria satisfied after 3 iterations ***

         #    Occupation            Energy/Eh            Energy/eV
      -------------------------------------------------------------
         1        2.0000           -0.7226704             -19.6649
       ...           ...                  ...                  ...
        18        2.0000           -0.4685626             -12.7502
        19        2.0000           -0.4649060             -12.6507
        20        2.0000           -0.4469127             -12.1611
        21        2.0000           -0.4365545             -11.8793
        22        2.0000           -0.4257097             -11.5842
        23        2.0000           -0.3954202             -10.7599
        24        2.0000           -0.3710823             -10.0977 (HOMO)
        25                         -0.2181808              -5.9370 (LUMO)
        26                         -0.2120575              -5.7704
        27                         -0.0863281              -2.3491
        28                          0.0090085               0.2451
        29                          0.0836592               2.2765
       ...                                ...                  ...
        44                          0.6683539              18.1868
      -------------------------------------------------------------
                  HL-Gap            0.1529015 Eh            4.1607 eV
             Fermi-level           -0.2946315 Eh           -8.0173 eV

 SCC (total)                   0 d,  0 h,  0 min,  0.008 sec
 SCC setup                      ...        0 min,  0.001 sec ( 11.269%)
 Dispersion                     ...        0 min,  0.000 sec (  0.759%)
 classical contributions        ...        0 min,  0.000 sec (  0.214%)
 integral evaluation            ...        0 min,  0.002 sec ( 19.721%)
 iterations                     ...        0 min,  0.001 sec ( 16.221%)
 molecular gradient             ...        0 min,  0.004 sec ( 50.157%)
 printout                       ...        0 min,  0.000 sec (  1.401%)

         :::::::::::::::::::::::::::::::::::::::::::::::::::::
         ::                     SUMMARY                     ::
         :::::::::::::::::::::::::::::::::::::::::::::::::::::
         :: total energy             -27.194425868620 Eh    ::
         :: total w/o Gsasa/hb       -27.190189956801 Eh    ::
         :: gradient norm              0.000028412350 Eh/a0 ::
         :: HOMO-LUMO gap              4.160661418394 eV    ::
         ::.................................................::
         :: SCC energy               -27.565121550065 Eh    ::
         :: -> isotropic ES            0.043439028813 Eh    ::
         :: -> anisotropic ES          0.001826824798 Eh    ::
         :: -> anisotropic XC          0.006814231055 Eh    ::
         :: -> dispersion             -0.012777997103 Eh    ::
         :: -> Gsolv                  -0.009165203856 Eh    ::
         ::    -> Gelec               -0.004929292037 Eh    ::
         ::    -> Gsasa                0.000457147190 Eh    ::
         ::    -> Ghb                 -0.005773818708 Eh    ::
         ::    -> Gshift               0.001080759698 Eh    ::
         :: repulsion energy           0.370695681444 Eh    ::
         :: add. restraining           0.000000000000 Eh    ::
         :: total charge              -0.000000000000 e     ::
         :::::::::::::::::::::::::::::::::::::::::::::::::::::

           ------------------------------------------------- 
          |                Numerical Hessian                |
           ------------------------------------------------- 
step length          :   0.00500
SCC accuracy         :   0.30000
Hessian scale factor :   1.00000
frozen atoms in %    :   0.00000    0
RMS gradient         :   0.00003
estimated CPU  time      0.01 min
estimated wall time      0.01 min

writing file <hessian>.

 projected vibrational frequencies (cm⁻¹)
eigval :       -0.00    -0.00    -0.00    -0.00     0.00     0.00
eigval :       81.43   165.89   211.43   228.31   287.08   320.29
eigval :      425.49   437.10   472.90   509.12   525.84   562.39
eigval :      667.81   772.80   777.96   817.19   860.26   893.35
eigval :      914.35  1030.36  1082.99  1100.04  1117.88  1136.51
eigval :     1146.94  1170.50  1193.86  1261.68  1264.60  1352.20
eigval :     1391.89  1445.83  1456.94  1472.08  1482.92  1589.19
eigval :     1594.09  2948.66  2960.92  3035.59  3089.06  3097.71
eigval :     3108.54  3113.27  3425.37
           -------------------------------------------------
          |                Property Printout                |
           -------------------------------------------------

    * Orbital Energies and Occupations

         #    Occupation            Energy/Eh            Energy/eV
      -------------------------------------------------------------
         1        2.0000           -0.7226705             -19.6649
       ...           ...                  ...                  ...
        12        2.0000           -0.5313531             -14.4589
        13        2.0000           -0.5220065             -14.2045
        14        2.0000           -0.5164512             -14.0534
        15        2.0000           -0.4981694             -13.5559
        16        2.0000           -0.4884731             -13.2920
        17        2.0000           -0.4745429             -12.9130
        18        2.0000           -0.4685627             -12.7502
        19        2.0000           -0.4649061             -12.6507
        20        2.0000           -0.4469128             -12.1611
        21        2.0000           -0.4365545             -11.8793
        22        2.0000           -0.4257097             -11.5842
        23        2.0000           -0.3954203             -10.7599
        24        2.0000           -0.3710823             -10.0977 (HOMO)
        25                         -0.2181808              -5.9370 (LUMO)
        26                         -0.2120575              -5.7704
        27                         -0.0863281              -2.3491
        28                          0.0090084               0.2451
        29                          0.0836592               2.2765
        30                          0.1083104               2.9473
        31                          0.1248325               3.3969
        32                          0.1552395               4.2243
        33                          0.1685100               4.5854
        34                          0.1858421               5.0570
        35                          0.1913936               5.2081
       ...                                ...                  ...
        44                          0.6683539              18.1868
      -------------------------------------------------------------
                  HL-Gap            0.1529015 Eh            4.1607 eV
             Fermi-level           -0.2946316 Eh           -8.0173 eV

     #   Z          covCN         q      C6AA      α(0)
     1   6 C        3.640     0.023    20.544     6.518
     2   8 O        1.704    -0.312    19.210     5.918
     3   6 C        2.862     0.103    25.712     8.312
     4   6 C        2.917    -0.073    29.815     8.954
     5   6 C        2.921    -0.051    29.263     8.871
     6   6 C        2.919    -0.048    29.198     8.861
     7   6 C        2.919    -0.066    29.643     8.928
     8   6 C        2.846     0.122    25.305     8.244
     9   8 O        1.659    -0.450    21.845     6.309
    10   1 H        0.924     0.053     2.283     2.363
    11   1 H        0.925     0.079     1.986     2.204
    12   1 H        0.924     0.053     2.283     2.363
    13   1 H        0.926     0.050     2.324     2.384
    14   1 H        0.926     0.045     2.380     2.413
    15   1 H        0.926     0.046     2.367     2.406
    16   1 H        0.926     0.054     2.276     2.359
    17   1 H        0.804     0.372     0.540     1.154

 Mol. C6AA /au·bohr⁶  :       3198.455846
 Mol. C8AA /au·bohr⁸  :      75512.515381
 Mol. α(0) /au        :         88.560276


Wiberg/Mayer (AO) data.
largest (>0.10) Wiberg bond orders for each atom

 ---------------------------------------------------------------------------
     #   Z sym  total        # sym  WBO       # sym  WBO       # sym  WBO
 ---------------------------------------------------------------------------
     1   6 C    3.932 --    11 H    0.977    10 H    0.977    12 H    0.977
                             2 O    0.972
     2   8 O    2.189 --     3 C    1.032     1 C    0.972
     3   6 C    3.930 --     4 C    1.408     8 C    1.290     2 O    1.032
     4   6 C    3.986 --     5 C    1.414     3 C    1.408    13 H    0.965
     5   6 C    3.991 --     6 C    1.453     4 C    1.414    14 H    0.970
     6   6 C    3.991 --     5 C    1.453     7 C    1.422    15 H    0.970
     7   6 C    3.986 --     6 C    1.422     8 C    1.402    16 H    0.967
     8   6 C    3.941 --     7 C    1.402     3 C    1.290     9 O    1.074
     9   8 O    2.080 --     8 C    1.074    17 H    0.839
    10   1 H    0.997 --     1 C    0.977
    11   1 H    0.993 --     1 C    0.977
    12   1 H    0.997 --     1 C    0.977
    13   1 H    0.998 --     4 C    0.965
    14   1 H    0.998 --     5 C    0.970
    15   1 H    0.998 --     6 C    0.970
    16   1 H    0.996 --     7 C    0.967
    17   1 H    0.862 --     9 O    0.839
 ---------------------------------------------------------------------------

Topologies differ in total number of bonds
Writing topology from bond orders to xtbtopo.mol

molecular dipole:
                 x           y           z       tot (Debye)
 q only:       -0.765      -0.667      -0.000
   full:       -0.963      -0.834      -0.000       3.238
molecular quadrupole (traceless):
                xx          xy          yy          xz          yz          zz
 q only:        6.018      -0.200      -2.402       0.000       0.000      -3.616
  q+dip:        7.009      -0.318      -2.118       0.000      -0.000      -4.892
   full:        6.428      -0.249      -3.085       0.000       0.000      -3.343

           -------------------------------------------------
          |                Geometry Summary                 |
           -------------------------------------------------

      molecular mass/u    :      124.1374871
   center of mass at/Å    :        0.0000005      -0.0000201      -0.0000251
  moments of inertia/u·Å² :        0.1929045E+03   0.3243982E+03   0.5140772E+03
rotational constants/cm⁻¹ :        0.8738847E-01   0.5196586E-01   0.3279202E-01

 * 17 selected distances

     #   Z          #   Z                                           value/Å
     1   6 C        2   8 O                                       1.4127750 (max)
     2   8 O        3   6 C                                       1.3769395
     3   6 C        4   6 C                                       1.3836146
     4   6 C        5   6 C                                       1.3879614
     5   6 C        6   6 C                                       1.3805793
     6   6 C        7   6 C                                       1.3857264
     3   6 C        8   6 C                                       1.4055145
     7   6 C        8   6 C                                       1.3841664
     8   6 C        9   8 O                                       1.3618457
     1   6 C       10   1 H                                       1.0929242
     1   6 C       11   1 H                                       1.0876749
     1   6 C       12   1 H                                       1.0929241
     4   6 C       13   1 H                                       1.0778487
     5   6 C       14   1 H                                       1.0785762
     6   6 C       15   1 H                                       1.0783418
     7   6 C       16   1 H                                       1.0781535
     9   8 O       17   1 H                                       0.9709272 (min)

 * 4 distinct bonds (by element types)

   Z      Z             #   av. dist./Å        max./Å        min./Å
   1 H    6 C           7     1.0837776     1.0929242     1.0778487
   6 C    6 C           6     1.3879271     1.4055145     1.3805793
   1 H    8 O           1     0.9709272     0.9709272     0.9709272
   6 C    8 O           3     1.3838534     1.4127750     1.3618457

           -------------------------------------------------
          |               Frequency Printout                |
           -------------------------------------------------
 projected vibrational frequencies (cm⁻¹)
eigval :       -0.00    -0.00    -0.00    -0.00     0.00     0.00
eigval :       81.43   165.89   211.43   228.31   287.08   320.29
eigval :      425.49   437.10   472.90   509.12   525.84   562.39
eigval :      667.81   772.80   777.96   817.19   860.26   893.35
eigval :      914.35  1030.36  1082.99  1100.04  1117.88  1136.51
eigval :     1146.94  1170.50  1193.86  1261.68  1264.60  1352.20
eigval :     1391.89  1445.83  1456.94  1472.08  1482.92  1589.19
eigval :     1594.09  2948.66  2960.92  3035.59  3089.06  3097.71
eigval :     3108.54  3113.27  3425.37
 reduced masses (amu)
   1: 13.49   2: 11.12   3: 12.04   4: 11.74   5: 11.13   6: 11.98   7:  9.94   8: 11.07
   9: 10.96  10:  3.96  11:  9.75  12: 11.60  13:  3.36  14:  8.66  15: 12.90  16: 11.01
  17: 10.45  18: 11.66  19: 11.81  20: 11.58  21:  3.33  22: 11.99  23:  3.28  24:  3.91
  25:  3.03  26: 11.66  27:  6.37  28:  7.65  29:  3.69  30:  4.80  31:  6.81  32:  2.96
  33:  4.60  34:  5.20  35:  9.29  36: 10.75  37:  2.53  38:  9.38  39:  1.54  40:  2.41
  41:  9.62  42: 11.56  43: 11.53  44:  1.96  45:  1.44  46:  1.71  47:  1.76  48:  1.82
  49:  1.85  50:  1.90  51:  1.86
 IR intensities (km·mol⁻¹)
   1:  0.34   2:  1.00   3:  0.20   4:  0.08   5:  0.24   6:  0.74   7:  4.31   8:  2.31
   9:  0.89  10:  0.27  11:  0.53  12:  7.62  13:155.60  14: 55.98  15:  4.24  16: 12.60
  17:  0.00  18:  6.25  19:  0.01  20: 90.03  21: 55.02  22: 37.05  23:  0.05  24:  3.44
  25:  0.24  26: 39.16  27: 13.30  28: 63.31  29:  2.84  30:276.28  31:202.79  32: 47.77
  33: 61.08  34:179.16  35:296.22  36: 21.19  37:  1.64  38:  0.67  39:  7.31  40: 71.82
  41:306.91  42: 37.45  43: 29.29  44: 45.87  45: 43.21  46: 16.07  47: 12.45  48: 72.01
  49:120.66  50: 30.91  51:207.17
 Raman intensities (Ä⁴*amu⁻¹)
   1:  0.00   2:  0.00   3:  0.00   4:  0.00   5:  0.00   6:  0.00   7:  0.00   8:  0.00
   9:  0.00  10:  0.00  11:  0.00  12:  0.00  13:  0.00  14:  0.00  15:  0.00  16:  0.00
  17:  0.00  18:  0.00  19:  0.00  20:  0.00  21:  0.00  22:  0.00  23:  0.00  24:  0.00
  25:  0.00  26:  0.00  27:  0.00  28:  0.00  29:  0.00  30:  0.00  31:  0.00  32:  0.00
  33:  0.00  34:  0.00  35:  0.00  36:  0.00  37:  0.00  38:  0.00  39:  0.00  40:  0.00
  41:  0.00  42:  0.00  43:  0.00  44:  0.00  45:  0.00  46:  0.00  47:  0.00  48:  0.00
  49:  0.00  50:  0.00  51:  0.00
 output can be read by thermo (or use thermo option).
 writing <g98.out> molden fake output.
 recommended (thermochemical) frequency scaling factor: 1.0
           -------------------------------------------------
          |             Thermodynamic Functions             |
           -------------------------------------------------

Molecule has the following symmetry elements: (sigma) 
It seems to be the Cs point group
cs  symmetry found (for desy threshold:  0.10E+00) used in thermo

          ...................................................
          :                      SETUP                      :
          :.................................................:
          :  # frequencies                          45      :
          :  # imaginary freq.                       0      :
          :  linear?                             false      :
          :  only rotor calc.                    false      :
          :  symmetry                               cs      :
          :  rotational number                       1      :
          :  scaling factor                  1.0000000      :
          :  rotor cutoff                    0.0000000 cm⁻¹ :
          :  imag. cutoff                 -100.0000000 cm⁻¹ :
          :.................................................:

    mode    ω/cm⁻¹     T·S(HO)/kcal·mol⁻¹    T·S(FR)/kcal·mol⁻¹   T·S(vib)
   ------------------------------------------------------------------------
       1     81.43    -1.14968 (100.00%)    -0.91188 (  0.00%)    -1.14968
       2    165.89    -0.73988 (100.00%)    -0.70119 (  0.00%)    -0.73988
       3    211.43    -0.60564 (100.00%)    -0.62935 (  0.00%)    -0.60564
       4    228.31    -0.56416 (100.00%)    -0.60659 (  0.00%)    -0.56416
       5    287.08    -0.44458 (100.00%)    -0.53875 (  0.00%)    -0.44458
   ------------------------------------------------------------------------

   temp. (K)  partition function   enthalpy   heat capacity  entropy
                                   cal/mol     cal/K/mol   cal/K/mol   J/K/mol
 298.15  VIB   50.0                 3444.390     26.024     19.326
         ROT  0.433E+06              888.752      2.981     28.774
         INT  0.217E+08             4333.142     29.005     48.100
         TR   0.134E+28             1481.254      4.968     40.344
         TOT                        5814.3959    33.9727    88.4444   370.0516

       T/K    H(0)-H(T)+PV         H(T)/Eh          T*S/Eh         G(T)/Eh
   ------------------------------------------------------------------------
    298.15    0.926583E-02    0.141401E+00    0.420228E-01    0.993781E-01
   ------------------------------------------------------------------------

         :::::::::::::::::::::::::::::::::::::::::::::::::::::
         ::                  THERMODYNAMIC                  ::
         :::::::::::::::::::::::::::::::::::::::::::::::::::::
         :: total free energy         -27.095047783329 Eh   ::
         ::.................................................::
         :: total energy              -27.194425868583 Eh   ::
         :: zero point energy           0.132135067270 Eh   ::
         :: G(RRHO) w/o ZPVE           -0.032756982016 Eh   ::
         :: G(RRHO) contrib.            0.099378085254 Eh   ::
         :::::::::::::::::::::::::::::::::::::::::::::::::::::

optimized geometry written to: xtbopt.coord


           -------------------------------------------------
          | TOTAL ENERGY              -27.194425868583 Eh   |
          | TOTAL ENTHALPY            -27.053024971662 Eh   |
          | TOTAL FREE ENERGY         -27.095047783329 Eh   |
          | GRADIENT NORM               0.000028538552 Eh/α |
          | HOMO-LUMO GAP               4.160661771941 eV   |
           -------------------------------------------------

------------------------------------------------------------------------
 * finished run on 2025/04/04 at 21:57:01.091     
------------------------------------------------------------------------
 total:
 * wall-time:     0 d,  0 h,  0 min,  1.017 sec
 *  cpu-time:     0 d,  0 h,  0 min,  0.936 sec
 * ratio c/w:     0.920 speedup
 SCF:
 * wall-time:     0 d,  0 h,  0 min,  0.025 sec
 *  cpu-time:     0 d,  0 h,  0 min,  0.013 sec
 * ratio c/w:     0.516 speedup
 ANC optimizer:
 * wall-time:     0 d,  0 h,  0 min,  0.087 sec
 *  cpu-time:     0 d,  0 h,  0 min,  0.073 sec
 * ratio c/w:     0.836 speedup
 analytical hessian:
 * wall-time:     0 d,  0 h,  0 min,  0.849 sec
 *  cpu-time:     0 d,  0 h,  0 min,  0.839 sec
 * ratio c/w:     0.988 speedup

