      -----------------------------------------------------------      
     |                   =====================                   |     
     |                           x T B                           |     
     |                   =====================                   |     
     |                         S. Grimme                         |     
     |          Mulliken Center for Theoretical Chemistry        |     
     |                    University of Bonn                     |     
      -----------------------------------------------------------      

   * xtb version 6.7.1 (edcfbbe) compiled by 'albert@albert-system' on 2024-07-22

   xtb is free software: you can redistribute it and/or modify it under
   the terms of the GNU Lesser General Public License as published by
   the Free Software Foundation, either version 3 of the License, or
   (at your option) any later version.
   
   xtb is distributed in the hope that it will be useful,
   but WITHOUT ANY WARRANTY; without even the implied warranty of
   MERCHANTABILITY or FITNESS FOR A PARTICULAR PURPOSE.  See the
   GNU Lesser General Public License for more details.
   
   Cite this work as:
   * C. Bannwarth, E. Caldeweyher, S. Ehlert, A. Hansen, P. Pracht,
     J. Seibert, S. Spicher, S. Grimme, WIREs Comput. Mol. Sci., 2020, 11,
     e01493. DOI: 10.1002/wcms.1493
   
   for GFN2-xTB:
   * C. Bannwarth, S. Ehlert and S. Grimme., J. Chem. Theory Comput., 2019,
     15, 1652-1671. DOI: 10.1021/acs.jctc.8b01176
   for GFN1-xTB:
   * S. Grimme, C. Bannwarth, P. Shushkov, J. Chem. Theory Comput., 2017,
     13, 1989-2009. DOI: 10.1021/acs.jctc.7b00118
   for GFN0-xTB:
   * P. Pracht, E. Caldeweyher, S. Ehlert, S. Grimme, ChemRxiv, 2019, preprint.
     DOI: 10.26434/chemrxiv.8326202.v1
   for GFN-FF:
   * S. Spicher and S. Grimme, Angew. Chem. Int. Ed., 2020, 59, 15665-15673.
     DOI: 10.1002/anie.202004239
   
   for ALPB and GBSA implicit solvation:
   * S. Ehlert, M. Stahn, S. Spicher, S. Grimme, J. Chem. Theory Comput.,
     2021, 17, 4250-4261. DOI: 10.1021/acs.jctc.1c00471
   
   for ddCOSMO and CPCM-X implicit solvation:
   * M. Stahn, S. Ehlert, S. Grimme, J. Phys. Chem. A,
     2023, XX, XXXX-XXXX. DOI: 10.1021/acs.jpca.3c04382
   
   for DFT-D4:
   * E. Caldeweyher, C. Bannwarth and S. Grimme, J. Chem. Phys., 2017,
     147, 034112. DOI: 10.1063/1.4993215
   * E. Caldeweyher, S. Ehlert, A. Hansen, H. Neugebauer, S. Spicher,
     C. Bannwarth and S. Grimme, J. Chem. Phys., 2019, 150, 154122.
     DOI: 10.1063/1.5090222
   * E. Caldeweyher, J.-M. Mewes, S. Ehlert and S. Grimme, Phys. Chem. Chem. Phys.
     2020, 22, 8499-8512. DOI: 10.1039/D0CP00502A
   
   for sTDA-xTB:
   * S. Grimme and C. Bannwarth, J. Chem. Phys., 2016, 145, 054103.
     DOI: 10.1063/1.4959605
   
   in the mass-spec context:
   * V. Asgeirsson, C. Bauer and S. Grimme, Chem. Sci., 2017, 8, 4879.
     DOI: 10.1039/c7sc00601b
   * J. Koopman and S. Grimme, ACS Omega 2019, 4, 12, 15120-15133.
     DOI: 10.1021/acsomega.9b02011
   
   for metadynamics refer to:
   * S. Grimme, J. Chem. Theory Comput., 2019, 155, 2847-2862
     DOI: 10.1021/acs.jctc.9b00143
   
   for SPH calculations refer to:
   * S. Spicher and S. Grimme, J. Chem. Theory Comput., 2021, 17, 1701-1714
     DOI: 10.1021/acs.jctc.0c01306
   
   for ONIOM refer to:
   * C. Plett, A. Katbashev, S. Ehlert, S. Grimme, M. Bursch,
     Phys. Chem. Chem. Phys., 2023, 25, 17860-17868. DOI: 10.1039/D3CP02178E
   
   for DIPRO refer to:
   * J. Kohn, N. Gildemeister, S. Grimme, D. Fazzi, A. Hansen,
     J. Chem. Phys., 2023, just accepted.
   
   for PTB refer to:
   * S. Grimme, M. Mueller, A. Hansen, J. Chem. Phys., 2023, 158, 124111.
     DOI: 10.1063/5.0137838
   
   with help from (in alphabetical order)
   P. Atkinson, C. Bannwarth, F. Bohle, G. Brandenburg, E. Caldeweyher
   M. Checinski, S. Dohm, S. Ehlert, S. Ehrlich, I. Gerasimov, C. Hölzer
   A. Katbashev, J. Kohn, J. Koopman, C. Lavigne, S. Lehtola, F. März, M. Müller,
   F. Musil, H. Neugebauer, J. Pisarek, C. Plett, P. Pracht, F. Pultar,
   J. Seibert, P. Shushkov, S. Spicher, M. Stahn, M. Steiner, T. Strunk,
   J. Stückrath, T. Rose, and J. Unsleber
   
 * started run on 2025/04/04 at 19:16:58.822     
   ID    Z sym.   atoms
    1    6 C      1-6
    2    7 N      7
    3    8 O      8-10
    4    1 H      11-15

           -------------------------------------------------
          |                Calculation Setup                |
           -------------------------------------------------

          program call               : /srv/scratch/z5358697/.xtb/bin/xtb solv.coord --gfn2 --sp --chrg 0 --norestart --parallel 1 --alpb water reference -I xtb_sp-xcontrol-inp
          hostname                   : k141
          coordinate file            : solv.coord
          omp threads                :                     1


           -------------------------------------------------
          |                 G F N 2 - x T B                 |
           -------------------------------------------------

        Reference                      10.1021/acs.jctc.8b01176
      * Hamiltonian:
        H0-scaling (s, p, d)           1.850000    2.230000    2.230000
        zeta-weighting                 0.500000
      * Dispersion:
        s8                             2.700000
        a1                             0.520000
        a2                             5.000000
        s9                             5.000000
      * Repulsion:
        kExp                           1.500000    1.000000
        rExp                           1.000000
      * Coulomb:
        alpha                          2.000000
        third order                    shell-resolved
        anisotropic                    true
        a3                             3.000000
        a5                             4.000000
        cn-shift                       1.200000
        cn-exp                         4.000000
        max-rad                        5.000000

      * Solvation model:               ALPB
        Solvent                        water
        Parameter file                 internal GFN2-xTB/ALPB
        Dielectric constant                8.0200E+01
        Reference state                gsolv=reference [X=1]
        Free energy shift                  2.8945E-03 Eh       1.8164E+00 kcal/mol
        Temperature                        2.9815E+02 K
        Density                            1.0000E+00 kg/L
        Solvent mass                       1.8000E+01 g/mol
        Interaction kernel             P16
        Born radius scaling (c1)           1.4744E+00
        Born radii integrator          GBOBC
        Born offset                        0.0000E+00 a0       0.0000E+00 AA
        H-bond correction              true
        Ion screening                  false
        Surface tension                    1.0000E-05 Eh       1.5569E+01 dyn/cm
        Grid points                               974 per atom

          ...................................................
          :                      SETUP                      :
          :.................................................:
          :  # basis functions                  45          :
          :  # atomic orbitals                  45          :
          :  # shells                           25          :
          :  # electrons                        52          :
          :  max. iterations                   250          :
          :  Hamiltonian                  GFN2-xTB          :
          :  restarted?                      false          :
          :  GBSA solvation                   true          :
          :  PC potential                    false          :
          :  electronic temp.          300.0000000     K    :
          :  accuracy                    1.0000000          :
          :  -> integral cutoff          0.2500000E+02      :
          :  -> integral neglect         0.1000000E-07      :
          :  -> SCF convergence          0.1000000E-05 Eh   :
          :  -> wf. convergence          0.1000000E-03 e    :
          :  Broyden damping             0.4000000          :
          :  net charge                          0          :
          :  unpaired electrons                  0          :
          ...................................................

 iter      E             dE          RMSdq      gap      omega  full diag
   1    -30.6697960 -0.306698E+02  0.637E+00    3.11       0.0  T
   2    -30.7761278 -0.106332E+00  0.311E+00    2.53       1.0  T
   3    -30.7786940 -0.256620E-02  0.146E+00    2.48       1.0  T
   4    -30.7785764  0.117556E-03  0.570E-01    2.46       1.0  T
   5    -30.7808535 -0.227710E-02  0.932E-02    2.45       1.0  T
   6    -30.7808590 -0.543464E-05  0.524E-02    2.44       1.0  T
   7    -30.7808640 -0.502681E-05  0.148E-02    2.45       1.7  T
   8    -30.7808653 -0.133285E-05  0.522E-03    2.45       4.9  T
   9    -30.7808654 -0.447144E-07  0.293E-03    2.45       8.8  T
  10    -30.7808654 -0.274565E-07  0.558E-04    2.45      46.2  T
  11    -30.7808654 -0.649059E-09  0.272E-04    2.45      94.9  T

   *** convergence criteria satisfied after 11 iterations ***

         #    Occupation            Energy/Eh            Energy/eV
      -------------------------------------------------------------
         1        2.0000           -0.7714729             -20.9928
       ...           ...                  ...                  ...
        20        2.0000           -0.4866130             -13.2414
        21        2.0000           -0.4755855             -12.9413
        22        2.0000           -0.4544704             -12.3668
        23        2.0000           -0.4454792             -12.1221
        24        2.0000           -0.4419620             -12.0264
        25        2.0000           -0.4348900             -11.8340
        26        2.0000           -0.4137538             -11.2588 (HOMO)
        27                         -0.3238616              -8.8127 (LUMO)
        28                         -0.2491032              -6.7784
        29                         -0.2250560              -6.1241
        30                         -0.1119815              -3.0472
        31                          0.0084092               0.2288
       ...                                ...                  ...
        45                          0.6409535              17.4412
      -------------------------------------------------------------
                  HL-Gap            0.0898922 Eh            2.4461 eV
             Fermi-level           -0.3688077 Eh          -10.0358 eV

 SCC (total)                   0 d,  0 h,  0 min,  0.012 sec
 SCC setup                      ...        0 min,  0.001 sec (  6.628%)
 Dispersion                     ...        0 min,  0.000 sec (  0.642%)
 classical contributions        ...        0 min,  0.000 sec (  0.137%)
 integral evaluation            ...        0 min,  0.002 sec ( 12.842%)
 iterations                     ...        0 min,  0.006 sec ( 46.002%)
 molecular gradient             ...        0 min,  0.004 sec ( 32.698%)
 printout                       ...        0 min,  0.000 sec (  0.973%)

         :::::::::::::::::::::::::::::::::::::::::::::::::::::
         ::                     SUMMARY                     ::
         :::::::::::::::::::::::::::::::::::::::::::::::::::::
         :: total energy             -30.431628696475 Eh    ::
         :: total w/o Gsasa/hb       -30.429400134786 Eh    ::
         :: gradient norm              0.000304615863 Eh/a0 ::
         :: HOMO-LUMO gap              2.446091257611 eV    ::
         ::.................................................::
         :: SCC energy               -30.780855781815 Eh    ::
         :: -> isotropic ES            0.097063083371 Eh    ::
         :: -> anisotropic ES          0.003310520242 Eh    ::
         :: -> anisotropic XC          0.002910821077 Eh    ::
         :: -> dispersion             -0.012237552976 Eh    ::
         :: -> Gsolv                  -0.023581881905 Eh    ::
         ::    -> Gelec               -0.021353320216 Eh    ::
         ::    -> Gsasa                0.004065340040 Eh    ::
         ::    -> Ghb                 -0.009188450890 Eh    ::
         ::    -> Gshift               0.002894549160 Eh    ::
         :: repulsion energy           0.349227085340 Eh    ::
         :: add. restraining           0.000000000000 Eh    ::
         :: total charge              -0.000000000000 e     ::
         :::::::::::::::::::::::::::::::::::::::::::::::::::::

           -------------------------------------------------
          |                Property Printout                |
           -------------------------------------------------

    * Orbital Energies and Occupations

         #    Occupation            Energy/Eh            Energy/eV
      -------------------------------------------------------------
         1        2.0000           -0.7714729             -20.9928
       ...           ...                  ...                  ...
        14        2.0000           -0.5521531             -15.0248
        15        2.0000           -0.5492622             -14.9462
        16        2.0000           -0.5118793             -13.9289
        17        2.0000           -0.5048083             -13.7365
        18        2.0000           -0.4985816             -13.5671
        19        2.0000           -0.4917182             -13.3803
        20        2.0000           -0.4866130             -13.2414
        21        2.0000           -0.4755855             -12.9413
        22        2.0000           -0.4544704             -12.3668
        23        2.0000           -0.4454792             -12.1221
        24        2.0000           -0.4419620             -12.0264
        25        2.0000           -0.4348900             -11.8340
        26        2.0000           -0.4137538             -11.2588 (HOMO)
        27                         -0.3238616              -8.8127 (LUMO)
        28                         -0.2491032              -6.7784
        29                         -0.2250560              -6.1241
        30                         -0.1119815              -3.0472
        31                          0.0084092               0.2288
        32                          0.0688069               1.8723
        33                          0.1272511               3.4627
        34                          0.1337786               3.6403
        35                          0.1547585               4.2112
        36                          0.1728472               4.7034
        37                          0.2005387               5.4569
       ...                                ...                  ...
        45                          0.6409535              17.4412
      -------------------------------------------------------------
                  HL-Gap            0.0898922 Eh            2.4461 eV
             Fermi-level           -0.3688077 Eh          -10.0358 eV

     #   Z          covCN         q      C6AA      α(0)
     1   6 C        2.917    -0.019    28.494     8.753
     2   6 C        2.918    -0.053    29.307     8.877
     3   6 C        2.845     0.179    24.168     8.057
     4   6 C        2.916    -0.068    29.684     8.934
     5   6 C        2.917    -0.019    28.483     8.752
     6   6 C        2.916    -0.000    28.039     8.683
     7   7 N        2.763     0.552    13.458     5.449
     8   8 O        0.930    -0.465    22.994     6.431
     9   8 O        0.930    -0.466    22.998     6.432
    10   8 O        1.660    -0.398    20.814     6.159
    11   1 H        0.926     0.088     1.902     2.157
    12   1 H        0.926     0.092     1.862     2.134
    13   1 H        0.926     0.088     1.899     2.155
    14   1 H        0.926     0.088     1.895     2.153
    15   1 H        0.804     0.402     0.480     1.089

 Mol. C6AA /au·bohr⁶  :       3090.394212
 Mol. C8AA /au·bohr⁸  :      74145.951056
 Mol. α(0) /au        :         86.213978


Wiberg/Mayer (AO) data.
largest (>0.10) Wiberg bond orders for each atom

 ---------------------------------------------------------------------------
     #   Z sym  total        # sym  WBO       # sym  WBO       # sym  WBO
 ---------------------------------------------------------------------------
     1   6 C    3.984 --     2 C    1.518     6 C    1.323    11 H    0.960
     2   6 C    3.985 --     1 C    1.518     3 C    1.311    12 H    0.962
     3   6 C    3.945 --     4 C    1.320     2 C    1.311    10 O    1.160
     4   6 C    3.984 --     5 C    1.506     3 C    1.320    13 H    0.960
     5   6 C    3.983 --     4 C    1.506     6 C    1.331    14 H    0.960
     6   6 C    3.946 --     5 C    1.331     1 C    1.323     7 N    1.032
     7   7 N    3.893 --     8 O    1.401     9 O    1.400     6 C    1.032
     8   8 O    1.855 --     7 N    1.401     9 O    0.304
     9   8 O    1.854 --     7 N    1.400     8 O    0.304
    10   8 O    2.146 --     3 C    1.160    15 H    0.816
    11   1 H    0.992 --     1 C    0.960
    12   1 H    0.991 --     2 C    0.962
    13   1 H    0.992 --     4 C    0.960
    14   1 H    0.992 --     5 C    0.960
    15   1 H    0.838 --    10 O    0.816
 ---------------------------------------------------------------------------

Topologies differ in total number of bonds
Writing topology from bond orders to xtbtopo.mol

molecular dipole:
                 x           y           z       tot (Debye)
 q only:        3.740       0.625      -0.001
   full:        3.640       0.774      -0.001       9.458
molecular quadrupole (traceless):
                xx          xy          yy          xz          yz          zz
 q only:       -7.030       7.043       5.090       0.006       0.000       1.940
  q+dip:       -7.765       8.709       6.526       0.008       0.000       1.239
   full:       -8.963       8.781       4.967       0.008       0.000       3.996


           -------------------------------------------------
          | TOTAL ENERGY              -30.431628696475 Eh   |
          | GRADIENT NORM               0.000304615863 Eh/α |
          | HOMO-LUMO GAP               2.446091257611 eV   |
           -------------------------------------------------

------------------------------------------------------------------------
 * finished run on 2025/04/04 at 19:16:58.867     
------------------------------------------------------------------------
 total:
 * wall-time:     0 d,  0 h,  0 min,  0.044 sec
 *  cpu-time:     0 d,  0 h,  0 min,  0.020 sec
 * ratio c/w:     0.444 speedup
 SCF:
 * wall-time:     0 d,  0 h,  0 min,  0.013 sec
 *  cpu-time:     0 d,  0 h,  0 min,  0.012 sec
 * ratio c/w:     0.991 speedup

