16
 energy: -492.043770157890 gnorm: 0.036703273565 xtb: 6.7.1 (edcfbbe)
C           -1.42062739692952       -1.21524754033851        0.00000035370000
C           -0.05531099062451       -1.21586462473878        0.00000670190000
C            0.64884638978752        0.00000028130000        0.00000108130000
C           -0.05531019682451        1.21586527813878        0.00000712930000
C           -1.42062752002952        1.21524745893851        0.00001648820001
C           -2.14377759914996        0.00000007240000        0.00002574280001
N           -3.47934178964179       -0.00000030090000       -0.00001808320001
N            2.03696182930263       -0.00000019270000       -0.00000344640000
O            2.64302145277119        1.07930781827827       -0.00003016540001
O            2.64302200607119       -1.07930826597827        0.00002270790001
H           -1.96024637016864       -2.14857761395209       -0.00016223830007
H            0.50954768462579       -2.13507839374611       -0.00008970330004
H            0.50954975862579        2.13508214254611        0.00000401430000
H           -1.96024707676864        2.14857770805209        0.00006259870003
H           -3.98669172856661       -0.86809114198467       -0.00003123630001
H           -3.98669181856661        0.86809023398467       -0.00005101710002
16
 energy: -492.044945615702 gnorm: 0.016624826950 xtb: 6.7.1 (edcfbbe)
C           -1.42298849887993       -1.21959565020047       -0.00004556347020
C           -0.05341041860931       -1.21887064173540       -0.00003940799460
C            0.64783520203808        0.00000044664847       -0.00000256428016
C           -0.05341028045499        1.21887139467295        0.00001571710444
C           -1.42298869370661        1.21959597394285        0.00002125214615
C           -2.14469225314296        0.00000019640438       -0.00001247068363
N           -3.48637097016722       -0.00000008505362       -0.00001876466028
N            2.05377902338313        0.00000002970700        0.00000399553068
O            2.66288831126585        1.08588557734862       -0.00001805649871
O            2.66288797927804       -1.08588583105272        0.00001411699654
H           -1.96751978783729       -2.15686714553292       -0.00009784450635
H            0.50318341201894       -2.14686224267032       -0.00007088043241
H            0.50318330362175        2.14686387157152        0.00002437375717
H           -1.96752022173749        2.15686743740459        0.00004680761628
H           -3.99638968111427       -0.86849508228508       -0.00003222597321
H           -3.99638991917156        0.86849472897983       -0.00002753290508
16
 energy: -492.045153546050 gnorm: 0.006722609912 xtb: 6.7.1 (edcfbbe)
C           -1.42354619759306       -1.22131426640974       -0.00005237708917
C           -0.05128900146645       -1.22009744054340       -0.00004571244179
C            0.64565261049684        0.00000030891446       -0.00001612946399
C           -0.05128908192965        1.22009792600872        0.00001404376157
C           -1.42354629269529        1.22131460903289        0.00001426979461
C           -2.14433338413817        0.00000018051552       -0.00001996711673
N           -3.48948179471959        0.00000008211753       -0.00001792767368
N            2.06323557099236        0.00000026996473       -0.00001855677267
O            2.67205359110651        1.08837934599425        0.00000092839956
O            2.67205351364311       -1.08837895957800        0.00002005770157
H           -1.97055441253851       -2.15932581404995       -0.00007600152672
H            0.49829565815989       -2.15359028486095       -0.00006774226306
H            0.49829500529614        2.15359083009679        0.00004095680475
H           -1.97055451477802        2.15932612121020        0.00003785296303
H           -4.00145734384226       -0.86800261655342       -0.00003968267294
H           -4.00145748139867        0.86800271184507       -0.00001305147742
16
 energy: -492.045175725591 gnorm: 0.003361849716 xtb: 6.7.1 (edcfbbe)
C           -1.42352905731679       -1.22109488511928       -0.00005209091372
C           -0.05061772597117       -1.21990779164182       -0.00004326982945
C            0.64455826549886        0.00000017281835       -0.00000084253253
C           -0.05061779642812        1.21990807112214        0.00001595803736
C           -1.42352908017097        1.22109514782352        0.00000936640333
C           -2.14411537645719        0.00000014074142       -0.00002291148466
N           -3.48983782668801        0.00000014251219       -0.00002134603621
N            2.06578474186933        0.00000045401532        0.00003067173951
O            2.67332968072521        1.08821629166218       -0.00002579316534
O            2.67333011418056       -1.08821554727242       -0.00001466293690
H           -1.97065312763739       -2.15880490344320       -0.00007541777203
H            0.49669878550154       -2.15453595354612       -0.00006239259758
H            0.49669833492370        2.15453620901844        0.00004605670725
H           -1.97065308379345        2.15880516225042        0.00003483651233
H           -4.00238520506093       -0.86754335790595       -0.00004569802960
H           -4.00238521182817        0.86754365122422       -0.00001150197089
16
 energy: -492.045182524526 gnorm: 0.000801614695 xtb: 6.7.1 (edcfbbe)
C           -1.42344154825563       -1.22062245924287       -0.00004184204857
C           -0.05024200307285       -1.21950815571868       -0.00004756914303
C            0.64386100018824        0.00000137896082       -0.00005210527911
C           -0.05024247640330        1.21951071048872        0.00000972177175
C           -1.42344250962052        1.22062368077369        0.00001782931834
C           -2.14401732596533        0.00000021549995       -0.00001285906676
N           -3.48988961922220       -0.00000068598684       -0.00001321279446
N            2.06706242418416       -0.00000192573171       -0.00012020955545
O            2.67314534200321        1.08770802676484        0.00007242395549
O            2.67313950379909       -1.08771000662727        0.00007641861659
H           -1.97026656049229       -2.15816275558104       -0.00007217056259
H            0.49607726041615       -2.15440920140887       -0.00007755474816
H            0.49607689573406        2.15441266101713        0.00002802772103
H           -1.97026853993609        2.15816359960679        0.00003727886443
H           -4.00273709526635       -0.86725525091641       -0.00004132265913
H           -4.00273831821960        0.86725317047600       -0.00000189270245
16
 energy: -492.045182669412 gnorm: 0.000501485016 xtb: 6.7.1 (edcfbbe)
C           -1.42351697416272       -1.22042767601997       -0.00007388619305
C           -0.05033169053209       -1.21937361509053       -0.00002885773288
C            0.64382366952502       -0.00001072687137        0.00013760333420
C           -0.05032804545739        1.21935366946730        0.00002799085402
C           -1.42350868746335        1.22041940140175       -0.00001461414931
C           -2.14411161848470       -0.00000068513765       -0.00004600531816
N           -3.48986538177809        0.00000735128127       -0.00004543004432
N            2.06722655966494        0.00002130105979        0.00044559157797
O            2.67267030135923        1.08754883594444       -0.00027435510386
O            2.67272644687292       -1.08752281324707       -0.00027763951679
H           -1.96998635229117       -2.15808479126905       -0.00008308570137
H            0.49629625300916       -2.15406433184708       -0.00002044552323
H            0.49629784066901        2.15403628503618        0.00008260551313
H           -1.96996894868389        2.15807982629286        0.00002552231775
H           -4.00267889512535       -0.86718106006690       -0.00006691994959
H           -4.00266805641937        0.86720202773796       -0.00002711085523
16
 energy: -492.045182669412 gnorm: 0.000501485016 xtb: 6.7.1 (edcfbbe)
C           -1.42351697416272       -1.22042767601997       -0.00007388619305
C           -0.05033169053209       -1.21937361509053       -0.00002885773288
C            0.64382366952502       -0.00001072687137        0.00013760333420
C           -0.05032804545739        1.21935366946730        0.00002799085402
C           -1.42350868746335        1.22041940140175       -0.00001461414931
C           -2.14411161848470       -0.00000068513765       -0.00004600531816
N           -3.48986538177809        0.00000735128127       -0.00004543004432
N            2.06722655966494        0.00002130105979        0.00044559157797
O            2.67267030135923        1.08754883594444       -0.00027435510386
O            2.67272644687292       -1.08752281324707       -0.00027763951679
H           -1.96998635229117       -2.15808479126905       -0.00008308570137
H            0.49629625300916       -2.15406433184708       -0.00002044552323
H            0.49629784066901        2.15403628503618        0.00008260551313
H           -1.96996894868389        2.15807982629286        0.00002552231775
H           -4.00267889512535       -0.86718106006690       -0.00006691994959
H           -4.00266805641937        0.86720202773796       -0.00002711085523
