      -----------------------------------------------------------      
     |                   =====================                   |     
     |                           x T B                           |     
     |                   =====================                   |     
     |                         S. Grimme                         |     
     |          Mulliken Center for Theoretical Chemistry        |     
     |                    University of Bonn                     |     
      -----------------------------------------------------------      

   * xtb version 6.7.1 (edcfbbe) compiled by 'albert@albert-system' on 2024-07-22

   xtb is free software: you can redistribute it and/or modify it under
   the terms of the GNU Lesser General Public License as published by
   the Free Software Foundation, either version 3 of the License, or
   (at your option) any later version.
   
   xtb is distributed in the hope that it will be useful,
   but WITHOUT ANY WARRANTY; without even the implied warranty of
   MERCHANTABILITY or FITNESS FOR A PARTICULAR PURPOSE.  See the
   GNU Lesser General Public License for more details.
   
   Cite this work as:
   * C. Bannwarth, E. Caldeweyher, S. Ehlert, A. Hansen, P. Pracht,
     J. Seibert, S. Spicher, S. Grimme, WIREs Comput. Mol. Sci., 2020, 11,
     e01493. DOI: 10.1002/wcms.1493
   
   for GFN2-xTB:
   * C. Bannwarth, S. Ehlert and S. Grimme., J. Chem. Theory Comput., 2019,
     15, 1652-1671. DOI: 10.1021/acs.jctc.8b01176
   for GFN1-xTB:
   * S. Grimme, C. Bannwarth, P. Shushkov, J. Chem. Theory Comput., 2017,
     13, 1989-2009. DOI: 10.1021/acs.jctc.7b00118
   for GFN0-xTB:
   * P. Pracht, E. Caldeweyher, S. Ehlert, S. Grimme, ChemRxiv, 2019, preprint.
     DOI: 10.26434/chemrxiv.8326202.v1
   for GFN-FF:
   * S. Spicher and S. Grimme, Angew. Chem. Int. Ed., 2020, 59, 15665-15673.
     DOI: 10.1002/anie.202004239
   
   for ALPB and GBSA implicit solvation:
   * S. Ehlert, M. Stahn, S. Spicher, S. Grimme, J. Chem. Theory Comput.,
     2021, 17, 4250-4261. DOI: 10.1021/acs.jctc.1c00471
   
   for ddCOSMO and CPCM-X implicit solvation:
   * M. Stahn, S. Ehlert, S. Grimme, J. Phys. Chem. A,
     2023, XX, XXXX-XXXX. DOI: 10.1021/acs.jpca.3c04382
   
   for DFT-D4:
   * E. Caldeweyher, C. Bannwarth and S. Grimme, J. Chem. Phys., 2017,
     147, 034112. DOI: 10.1063/1.4993215
   * E. Caldeweyher, S. Ehlert, A. Hansen, H. Neugebauer, S. Spicher,
     C. Bannwarth and S. Grimme, J. Chem. Phys., 2019, 150, 154122.
     DOI: 10.1063/1.5090222
   * E. Caldeweyher, J.-M. Mewes, S. Ehlert and S. Grimme, Phys. Chem. Chem. Phys.
     2020, 22, 8499-8512. DOI: 10.1039/D0CP00502A
   
   for sTDA-xTB:
   * S. Grimme and C. Bannwarth, J. Chem. Phys., 2016, 145, 054103.
     DOI: 10.1063/1.4959605
   
   in the mass-spec context:
   * V. Asgeirsson, C. Bauer and S. Grimme, Chem. Sci., 2017, 8, 4879.
     DOI: 10.1039/c7sc00601b
   * J. Koopman and S. Grimme, ACS Omega 2019, 4, 12, 15120-15133.
     DOI: 10.1021/acsomega.9b02011
   
   for metadynamics refer to:
   * S. Grimme, J. Chem. Theory Comput., 2019, 155, 2847-2862
     DOI: 10.1021/acs.jctc.9b00143
   
   for SPH calculations refer to:
   * S. Spicher and S. Grimme, J. Chem. Theory Comput., 2021, 17, 1701-1714
     DOI: 10.1021/acs.jctc.0c01306
   
   for ONIOM refer to:
   * C. Plett, A. Katbashev, S. Ehlert, S. Grimme, M. Bursch,
     Phys. Chem. Chem. Phys., 2023, 25, 17860-17868. DOI: 10.1039/D3CP02178E
   
   for DIPRO refer to:
   * J. Kohn, N. Gildemeister, S. Grimme, D. Fazzi, A. Hansen,
     J. Chem. Phys., 2023, just accepted.
   
   for PTB refer to:
   * S. Grimme, M. Mueller, A. Hansen, J. Chem. Phys., 2023, 158, 124111.
     DOI: 10.1063/5.0137838
   
   with help from (in alphabetical order)
   P. Atkinson, C. Bannwarth, F. Bohle, G. Brandenburg, E. Caldeweyher
   M. Checinski, S. Dohm, S. Ehlert, S. Ehrlich, I. Gerasimov, C. Hölzer
   A. Katbashev, J. Kohn, J. Koopman, C. Lavigne, S. Lehtola, F. März, M. Müller,
   F. Musil, H. Neugebauer, J. Pisarek, C. Plett, P. Pracht, F. Pultar,
   J. Seibert, P. Shushkov, S. Spicher, M. Stahn, M. Steiner, T. Strunk,
   J. Stückrath, T. Rose, and J. Unsleber
   
 * started run on 2025/04/03 at 21:30:27.088     
   ID    Z sym.   atoms
    1    6 C      1-6
    2    8 O      7
    3    1 H      8-19

           -------------------------------------------------
          |                Calculation Setup                |
           -------------------------------------------------

          program call               : /srv/scratch/z5358697/.xtb/bin/xtb gas.coord --gfn2 --sp --chrg 0 --norestart --parallel 1
          hostname                   : k158
          coordinate file            : gas.coord
          omp threads                :                     1


           -------------------------------------------------
          |                 G F N 2 - x T B                 |
           -------------------------------------------------

        Reference                      10.1021/acs.jctc.8b01176
      * Hamiltonian:
        H0-scaling (s, p, d)           1.850000    2.230000    2.230000
        zeta-weighting                 0.500000
      * Dispersion:
        s8                             2.700000
        a1                             0.520000
        a2                             5.000000
        s9                             5.000000
      * Repulsion:
        kExp                           1.500000    1.000000
        rExp                           1.000000
      * Coulomb:
        alpha                          2.000000
        third order                    shell-resolved
        anisotropic                    true
        a3                             3.000000
        a5                             4.000000
        cn-shift                       1.200000
        cn-exp                         4.000000
        max-rad                        5.000000


          ...................................................
          :                      SETUP                      :
          :.................................................:
          :  # basis functions                  40          :
          :  # atomic orbitals                  40          :
          :  # shells                           26          :
          :  # electrons                        42          :
          :  max. iterations                   250          :
          :  Hamiltonian                  GFN2-xTB          :
          :  restarted?                      false          :
          :  GBSA solvation                  false          :
          :  PC potential                    false          :
          :  electronic temp.          300.0000000     K    :
          :  accuracy                    1.0000000          :
          :  -> integral cutoff          0.2500000E+02      :
          :  -> integral neglect         0.1000000E-07      :
          :  -> SCF convergence          0.1000000E-05 Eh   :
          :  -> wf. convergence          0.1000000E-03 e    :
          :  Broyden damping             0.4000000          :
          :  net charge                          0          :
          :  unpaired electrons                  0          :
          ...................................................

 iter      E             dE          RMSdq      gap      omega  full diag
   1    -23.2896157 -0.232896E+02  0.311E+00   11.93       0.0  T
   2    -23.3346445 -0.450287E-01  0.175E+00   11.65       1.0  T
   3    -23.3353674 -0.722918E-03  0.776E-01   11.75       1.0  T
   4    -23.3355997 -0.232280E-03  0.118E-01   11.73       1.0  T
   5    -23.3356675 -0.678593E-04  0.626E-02   11.74       1.0  T
   6    -23.3356691 -0.156897E-05  0.803E-03   11.75       2.9  T
   7    -23.3356692 -0.785256E-07  0.339E-03   11.75       6.8  T
   8    -23.3356692 -0.171153E-07  0.913E-04   11.75      25.1  T
   9    -23.3356692 -0.675836E-09  0.290E-04   11.75      79.2  T

   *** convergence criteria satisfied after 9 iterations ***

         #    Occupation            Energy/Eh            Energy/eV
      -------------------------------------------------------------
         1        2.0000           -0.6813891             -18.5415
       ...           ...                  ...                  ...
        15        2.0000           -0.4694603             -12.7747
        16        2.0000           -0.4450633             -12.1108
        17        2.0000           -0.4421769             -12.0322
        18        2.0000           -0.4350265             -11.8377
        19        2.0000           -0.4300022             -11.7010
        20        2.0000           -0.4200587             -11.4304
        21        2.0000           -0.3979282             -10.8282 (HOMO)
        22                          0.0337685               0.9189 (LUMO)
        23                          0.0794293               2.1614
        24                          0.0933808               2.5410
        25                          0.1009460               2.7469
        26                          0.1084084               2.9499
       ...                                ...                  ...
        40                          0.3027199               8.2374
      -------------------------------------------------------------
                  HL-Gap            0.4316967 Eh           11.7471 eV
             Fermi-level           -0.1820798 Eh           -4.9546 eV

 SCC (total)                   0 d,  0 h,  0 min,  0.023 sec
 SCC setup                      ...        0 min,  0.000 sec (  0.910%)
 Dispersion                     ...        0 min,  0.000 sec (  0.436%)
 classical contributions        ...        0 min,  0.000 sec (  0.132%)
 integral evaluation            ...        0 min,  0.002 sec (  6.846%)
 iterations                     ...        0 min,  0.017 sec ( 73.860%)
 molecular gradient             ...        0 min,  0.004 sec ( 17.075%)
 printout                       ...        0 min,  0.000 sec (  0.669%)

         :::::::::::::::::::::::::::::::::::::::::::::::::::::
         ::                     SUMMARY                     ::
         :::::::::::::::::::::::::::::::::::::::::::::::::::::
         :: total energy             -23.049805173542 Eh    ::
         :: gradient norm              0.005701101924 Eh/a0 ::
         :: HOMO-LUMO gap             11.747064121927 eV    ::
         ::.................................................::
         :: SCC energy               -23.335627161245 Eh    ::
         :: -> isotropic ES            0.027613413730 Eh    ::
         :: -> anisotropic ES          0.004146150803 Eh    ::
         :: -> anisotropic XC          0.008082753545 Eh    ::
         :: -> dispersion             -0.012411266045 Eh    ::
         :: repulsion energy           0.285821987703 Eh    ::
         :: add. restraining           0.000000000000 Eh    ::
         :: total charge              -0.000000000000 e     ::
         :::::::::::::::::::::::::::::::::::::::::::::::::::::

           -------------------------------------------------
          |                Property Printout                |
           -------------------------------------------------

    * Orbital Energies and Occupations

         #    Occupation            Energy/Eh            Energy/eV
      -------------------------------------------------------------
         1        2.0000           -0.6813891             -18.5415
       ...           ...                  ...                  ...
         9        2.0000           -0.5243318             -14.2678
        10        2.0000           -0.5101651             -13.8823
        11        2.0000           -0.5090098             -13.8509
        12        2.0000           -0.4945288             -13.4568
        13        2.0000           -0.4921905             -13.3932
        14        2.0000           -0.4712325             -12.8229
        15        2.0000           -0.4694603             -12.7747
        16        2.0000           -0.4450633             -12.1108
        17        2.0000           -0.4421769             -12.0322
        18        2.0000           -0.4350265             -11.8377
        19        2.0000           -0.4300022             -11.7010
        20        2.0000           -0.4200587             -11.4304
        21        2.0000           -0.3979282             -10.8282 (HOMO)
        22                          0.0337685               0.9189 (LUMO)
        23                          0.0794293               2.1614
        24                          0.0933808               2.5410
        25                          0.1009460               2.7469
        26                          0.1084084               2.9499
        27                          0.1115986               3.0368
        28                          0.1248098               3.3962
        29                          0.1606364               4.3711
        30                          0.1725643               4.6957
        31                          0.1792334               4.8772
        32                          0.1820249               4.9532
       ...                                ...                  ...
        40                          0.3027199               8.2374
      -------------------------------------------------------------
                  HL-Gap            0.4316967 Eh           11.7471 eV
             Fermi-level           -0.1820798 Eh           -4.9546 eV

     #   Z          covCN         q      C6AA      α(0)
     1   6 C        3.805    -0.059    21.626     6.620
     2   6 C        3.805    -0.059    21.625     6.620
     3   6 C        3.805    -0.070    21.843     6.653
     4   6 C        3.729     0.112    18.843     6.197
     5   6 C        3.805    -0.070    21.843     6.653
     6   6 C        3.805    -0.059    21.625     6.620
     7   8 O        1.654    -0.450    21.839     6.308
     8   1 H        0.924     0.033     2.539     2.492
     9   1 H        0.924     0.031     2.576     2.510
    10   1 H        0.924     0.032     2.555     2.500
    11   1 H        0.924     0.033     2.540     2.492
    12   1 H        0.924     0.030     2.590     2.517
    13   1 H        0.924     0.038     2.474     2.460
    14   1 H        0.924     0.042     2.427     2.436
    15   1 H        0.924     0.030     2.590     2.517
    16   1 H        0.924     0.038     2.474     2.460
    17   1 H        0.924     0.032     2.555     2.500
    18   1 H        0.924     0.033     2.540     2.493
    19   1 H        0.805     0.282     0.777     1.385

 Mol. C6AA /au·bohr⁶  :       2560.001524
 Mol. C8AA /au·bohr⁸  :      54361.530904
 Mol. α(0) /au        :         74.432417


Wiberg/Mayer (AO) data.
largest (>0.10) Wiberg bond orders for each atom

 ---------------------------------------------------------------------------
     #   Z sym  total        # sym  WBO       # sym  WBO       # sym  WBO
 ---------------------------------------------------------------------------
     1   6 C    3.998 --     2 C    1.009     6 C    1.009     8 H    0.978
                             9 H    0.977
     2   6 C    3.998 --     1 C    1.009     3 C    1.007    11 H    0.978
                            10 H    0.977
     3   6 C    3.997 --     2 C    1.007     4 C    0.989    13 H    0.977
                            12 H    0.975
     4   6 C    3.953 --     5 C    0.989     3 C    0.989     7 O    0.986
                            14 H    0.963
     5   6 C    3.997 --     6 C    1.007     4 C    0.989    16 H    0.977
                            15 H    0.975
     6   6 C    3.998 --     1 C    1.009     5 C    1.007    18 H    0.978
                            17 H    0.977
     7   8 O    1.961 --     4 C    0.986    19 H    0.903
     8   1 H    0.999 --     1 C    0.978
     9   1 H    0.999 --     1 C    0.977
    10   1 H    0.999 --     2 C    0.977
    11   1 H    0.999 --     2 C    0.978
    12   1 H    0.999 --     3 C    0.975
    13   1 H    0.999 --     3 C    0.977
    14   1 H    0.998 --     4 C    0.963
    15   1 H    0.999 --     5 C    0.975
    16   1 H    0.999 --     5 C    0.977
    17   1 H    0.999 --     6 C    0.977
    18   1 H    0.999 --     6 C    0.978
    19   1 H    0.920 --     7 O    0.903
 ---------------------------------------------------------------------------

Topologies differ in total number of bonds
Writing topology from bond orders to xtbtopo.mol

molecular dipole:
                 x           y           z       tot (Debye)
 q only:       -0.514      -0.000       0.356
   full:       -0.609      -0.000       0.542       2.074
molecular quadrupole (traceless):
                xx          xy          yy          xz          yz          zz
 q only:       -3.069      -0.001       1.053       3.167      -0.000       2.016
  q+dip:       -6.020      -0.002       1.156       4.095      -0.001       4.864
   full:       -5.163      -0.002       1.090       4.351      -0.001       4.073


           -------------------------------------------------
          | TOTAL ENERGY              -23.049805173542 Eh   |
          | GRADIENT NORM               0.005701101924 Eh/α |
          | HOMO-LUMO GAP              11.747064121927 eV   |
           -------------------------------------------------

------------------------------------------------------------------------
 * finished run on 2025/04/03 at 21:30:27.139     
------------------------------------------------------------------------
 total:
 * wall-time:     0 d,  0 h,  0 min,  0.050 sec
 *  cpu-time:     0 d,  0 h,  0 min,  0.019 sec
 * ratio c/w:     0.388 speedup
 SCF:
 * wall-time:     0 d,  0 h,  0 min,  0.023 sec
 *  cpu-time:     0 d,  0 h,  0 min,  0.011 sec
 * ratio c/w:     0.473 speedup

