      -----------------------------------------------------------      
     |                   =====================                   |     
     |                           x T B                           |     
     |                   =====================                   |     
     |                         S. Grimme                         |     
     |          Mulliken Center for Theoretical Chemistry        |     
     |                    University of Bonn                     |     
      -----------------------------------------------------------      

   * xtb version 6.7.1 (edcfbbe) compiled by 'albert@albert-system' on 2024-07-22

   xtb is free software: you can redistribute it and/or modify it under
   the terms of the GNU Lesser General Public License as published by
   the Free Software Foundation, either version 3 of the License, or
   (at your option) any later version.
   
   xtb is distributed in the hope that it will be useful,
   but WITHOUT ANY WARRANTY; without even the implied warranty of
   MERCHANTABILITY or FITNESS FOR A PARTICULAR PURPOSE.  See the
   GNU Lesser General Public License for more details.
   
   Cite this work as:
   * C. Bannwarth, E. Caldeweyher, S. Ehlert, A. Hansen, P. Pracht,
     J. Seibert, S. Spicher, S. Grimme, WIREs Comput. Mol. Sci., 2020, 11,
     e01493. DOI: 10.1002/wcms.1493
   
   for GFN2-xTB:
   * C. Bannwarth, S. Ehlert and S. Grimme., J. Chem. Theory Comput., 2019,
     15, 1652-1671. DOI: 10.1021/acs.jctc.8b01176
   for GFN1-xTB:
   * S. Grimme, C. Bannwarth, P. Shushkov, J. Chem. Theory Comput., 2017,
     13, 1989-2009. DOI: 10.1021/acs.jctc.7b00118
   for GFN0-xTB:
   * P. Pracht, E. Caldeweyher, S. Ehlert, S. Grimme, ChemRxiv, 2019, preprint.
     DOI: 10.26434/chemrxiv.8326202.v1
   for GFN-FF:
   * S. Spicher and S. Grimme, Angew. Chem. Int. Ed., 2020, 59, 15665-15673.
     DOI: 10.1002/anie.202004239
   
   for ALPB and GBSA implicit solvation:
   * S. Ehlert, M. Stahn, S. Spicher, S. Grimme, J. Chem. Theory Comput.,
     2021, 17, 4250-4261. DOI: 10.1021/acs.jctc.1c00471
   
   for ddCOSMO and CPCM-X implicit solvation:
   * M. Stahn, S. Ehlert, S. Grimme, J. Phys. Chem. A,
     2023, XX, XXXX-XXXX. DOI: 10.1021/acs.jpca.3c04382
   
   for DFT-D4:
   * E. Caldeweyher, C. Bannwarth and S. Grimme, J. Chem. Phys., 2017,
     147, 034112. DOI: 10.1063/1.4993215
   * E. Caldeweyher, S. Ehlert, A. Hansen, H. Neugebauer, S. Spicher,
     C. Bannwarth and S. Grimme, J. Chem. Phys., 2019, 150, 154122.
     DOI: 10.1063/1.5090222
   * E. Caldeweyher, J.-M. Mewes, S. Ehlert and S. Grimme, Phys. Chem. Chem. Phys.
     2020, 22, 8499-8512. DOI: 10.1039/D0CP00502A
   
   for sTDA-xTB:
   * S. Grimme and C. Bannwarth, J. Chem. Phys., 2016, 145, 054103.
     DOI: 10.1063/1.4959605
   
   in the mass-spec context:
   * V. Asgeirsson, C. Bauer and S. Grimme, Chem. Sci., 2017, 8, 4879.
     DOI: 10.1039/c7sc00601b
   * J. Koopman and S. Grimme, ACS Omega 2019, 4, 12, 15120-15133.
     DOI: 10.1021/acsomega.9b02011
   
   for metadynamics refer to:
   * S. Grimme, J. Chem. Theory Comput., 2019, 155, 2847-2862
     DOI: 10.1021/acs.jctc.9b00143
   
   for SPH calculations refer to:
   * S. Spicher and S. Grimme, J. Chem. Theory Comput., 2021, 17, 1701-1714
     DOI: 10.1021/acs.jctc.0c01306
   
   for ONIOM refer to:
   * C. Plett, A. Katbashev, S. Ehlert, S. Grimme, M. Bursch,
     Phys. Chem. Chem. Phys., 2023, 25, 17860-17868. DOI: 10.1039/D3CP02178E
   
   for DIPRO refer to:
   * J. Kohn, N. Gildemeister, S. Grimme, D. Fazzi, A. Hansen,
     J. Chem. Phys., 2023, just accepted.
   
   for PTB refer to:
   * S. Grimme, M. Mueller, A. Hansen, J. Chem. Phys., 2023, 158, 124111.
     DOI: 10.1063/5.0137838
   
   with help from (in alphabetical order)
   P. Atkinson, C. Bannwarth, F. Bohle, G. Brandenburg, E. Caldeweyher
   M. Checinski, S. Dohm, S. Ehlert, S. Ehrlich, I. Gerasimov, C. Hölzer
   A. Katbashev, J. Kohn, J. Koopman, C. Lavigne, S. Lehtola, F. März, M. Müller,
   F. Musil, H. Neugebauer, J. Pisarek, C. Plett, P. Pracht, F. Pultar,
   J. Seibert, P. Shushkov, S. Spicher, M. Stahn, M. Steiner, T. Strunk,
   J. Stückrath, T. Rose, and J. Unsleber
   
 * started run on 2025/04/06 at 18:00:43.364     
   ID    Z sym.   atoms
    1    6 C      1, 2, 4, 6, 8, 10
    2    1 H      3, 5, 7, 9, 11, 18-24
    3    8 O      12-17

           -------------------------------------------------
          |                Calculation Setup                |
           -------------------------------------------------

          program call               : /srv/scratch/z5358697/.xtb/bin/xtb gas.coord --gfn2 --sp --chrg 0 --norestart --parallel 1
          hostname                   : k155
          coordinate file            : gas.coord
          omp threads                :                     1


           -------------------------------------------------
          |                 G F N 2 - x T B                 |
           -------------------------------------------------

        Reference                      10.1021/acs.jctc.8b01176
      * Hamiltonian:
        H0-scaling (s, p, d)           1.850000    2.230000    2.230000
        zeta-weighting                 0.500000
      * Dispersion:
        s8                             2.700000
        a1                             0.520000
        a2                             5.000000
        s9                             5.000000
      * Repulsion:
        kExp                           1.500000    1.000000
        rExp                           1.000000
      * Coulomb:
        alpha                          2.000000
        third order                    shell-resolved
        anisotropic                    true
        a3                             3.000000
        a5                             4.000000
        cn-shift                       1.200000
        cn-exp                         4.000000
        max-rad                        5.000000


          ...................................................
          :                      SETUP                      :
          :.................................................:
          :  # basis functions                  60          :
          :  # atomic orbitals                  60          :
          :  # shells                           36          :
          :  # electrons                        72          :
          :  max. iterations                   250          :
          :  Hamiltonian                  GFN2-xTB          :
          :  restarted?                      false          :
          :  GBSA solvation                  false          :
          :  PC potential                    false          :
          :  electronic temp.          300.0000000     K    :
          :  accuracy                    1.0000000          :
          :  -> integral cutoff          0.2500000E+02      :
          :  -> integral neglect         0.1000000E-07      :
          :  -> SCF convergence          0.1000000E-05 Eh   :
          :  -> wf. convergence          0.1000000E-03 e    :
          :  Broyden damping             0.4000000          :
          :  net charge                          0          :
          :  unpaired electrons                  0          :
          ...................................................

 iter      E             dE          RMSdq      gap      omega  full diag
   1    -43.6153696 -0.436154E+02  0.468E+00   10.41       0.0  T
   2    -43.6549753 -0.396057E-01  0.256E+00   10.20       1.0  T
   3    -43.6561971 -0.122179E-02  0.738E-01   10.28       1.0  T
   4    -43.6571280 -0.930879E-03  0.150E-01   10.27       1.0  T
   5    -43.6572023 -0.743845E-04  0.654E-02   10.29       1.0  T
   6    -43.6572122 -0.988381E-05  0.195E-02   10.29       1.0  T
   7    -43.6572130 -0.808215E-06  0.622E-03   10.29       3.3  T
   8    -43.6572133 -0.246003E-06  0.196E-03   10.29      10.4  T
   9    -43.6572133 -0.617511E-08  0.735E-04   10.29      27.8  T
  10    -43.6572133 -0.220170E-08  0.269E-04   10.29      75.7  T

   *** convergence criteria satisfied after 10 iterations ***

         #    Occupation            Energy/Eh            Energy/eV
      -------------------------------------------------------------
         1        2.0000           -0.7286920             -19.8287
       ...           ...                  ...                  ...
        30        2.0000           -0.4687867             -12.7563
        31        2.0000           -0.4601320             -12.5208
        32        2.0000           -0.4447551             -12.1024
        33        2.0000           -0.4373565             -11.9011
        34        2.0000           -0.4272465             -11.6260
        35        2.0000           -0.4240391             -11.5387
        36        2.0000           -0.4094047             -11.1405 (HOMO)
        37                         -0.0312227              -0.8496 (LUMO)
        38                         -0.0051341              -0.1397
        39                         -0.0015675              -0.0427
        40                          0.0239159               0.6508
        41                          0.0457865               1.2459
       ...                                ...                  ...
        60                          0.2688792               7.3166
      -------------------------------------------------------------
                  HL-Gap            0.3781820 Eh           10.2909 eV
             Fermi-level           -0.2203137 Eh           -5.9950 eV

 SCC (total)                   0 d,  0 h,  0 min,  0.023 sec
 SCC setup                      ...        0 min,  0.000 sec (  0.806%)
 Dispersion                     ...        0 min,  0.000 sec (  0.612%)
 classical contributions        ...        0 min,  0.000 sec (  0.120%)
 integral evaluation            ...        0 min,  0.003 sec ( 11.490%)
 iterations                     ...        0 min,  0.012 sec ( 54.663%)
 molecular gradient             ...        0 min,  0.007 sec ( 31.649%)
 printout                       ...        0 min,  0.000 sec (  0.607%)

         :::::::::::::::::::::::::::::::::::::::::::::::::::::
         ::                     SUMMARY                     ::
         :::::::::::::::::::::::::::::::::::::::::::::::::::::
         :: total energy             -43.353435777413 Eh    ::
         :: gradient norm              0.015072846354 Eh/a0 ::
         :: HOMO-LUMO gap             10.290855407180 eV    ::
         ::.................................................::
         :: SCC energy               -43.657069549385 Eh    ::
         :: -> isotropic ES            0.134486655542 Eh    ::
         :: -> anisotropic ES         -0.000082163009 Eh    ::
         :: -> anisotropic XC         -0.010492309521 Eh    ::
         :: -> dispersion             -0.018662731538 Eh    ::
         :: repulsion energy           0.303633771972 Eh    ::
         :: add. restraining           0.000000000000 Eh    ::
         :: total charge               0.000000000000 e     ::
         :::::::::::::::::::::::::::::::::::::::::::::::::::::

           -------------------------------------------------
          |                Property Printout                |
           -------------------------------------------------

    * Orbital Energies and Occupations

         #    Occupation            Energy/Eh            Energy/eV
      -------------------------------------------------------------
         1        2.0000           -0.7286920             -19.8287
       ...           ...                  ...                  ...
        24        2.0000           -0.5185835             -14.1114
        25        2.0000           -0.5123175             -13.9409
        26        2.0000           -0.5060823             -13.7712
        27        2.0000           -0.5022773             -13.6677
        28        2.0000           -0.4881358             -13.2829
        29        2.0000           -0.4820039             -13.1160
        30        2.0000           -0.4687867             -12.7563
        31        2.0000           -0.4601320             -12.5208
        32        2.0000           -0.4447551             -12.1024
        33        2.0000           -0.4373565             -11.9011
        34        2.0000           -0.4272465             -11.6260
        35        2.0000           -0.4240391             -11.5387
        36        2.0000           -0.4094047             -11.1405 (HOMO)
        37                         -0.0312227              -0.8496 (LUMO)
        38                         -0.0051341              -0.1397
        39                         -0.0015675              -0.0427
        40                          0.0239159               0.6508
        41                          0.0457865               1.2459
        42                          0.0594888               1.6188
        43                          0.0622047               1.6927
        44                          0.0818735               2.2279
        45                          0.0982393               2.6732
        46                          0.1062130               2.8902
        47                          0.1076617               2.9296
       ...                                ...                  ...
        60                          0.2688792               7.3166
      -------------------------------------------------------------
                  HL-Gap            0.3781820 Eh           10.2909 eV
             Fermi-level           -0.2203137 Eh           -5.9950 eV

     #   Z          covCN         q      C6AA      α(0)
     1   6 C        3.676     0.070    19.619     6.346
     2   6 C        3.747     0.089    19.174     6.246
     3   1 H        0.923     0.016     2.792     2.613
     4   6 C        3.728     0.078    19.377     6.285
     5   1 H        0.924     0.063     2.160     2.298
     6   6 C        3.728     0.092    19.145     6.247
     7   1 H        0.923     0.019     2.753     2.595
     8   6 C        3.725     0.088    19.214     6.259
     9   1 H        0.923     0.032     2.562     2.503
    10   6 C        3.626     0.240    17.257     5.985
    11   1 H        0.923     0.042     2.424     2.435
    12   8 O        1.701    -0.334    19.604     5.978
    13   8 O        1.657    -0.402    20.886     6.169
    14   8 O        1.656    -0.431    21.466     6.254
    15   8 O        1.656    -0.446    21.755     6.296
    16   8 O        1.655    -0.439    21.615     6.276
    17   8 O        1.655    -0.418    21.208     6.217
    18   1 H        0.924     0.076     2.016     2.220
    19   1 H        0.924     0.041     2.433     2.439
    20   1 H        0.804     0.316     0.676     1.291
    21   1 H        0.804     0.315     0.676     1.292
    22   1 H        0.804     0.308     0.697     1.311
    23   1 H        0.804     0.294     0.739     1.350
    24   1 H        0.805     0.290     0.752     1.362

 Mol. C6AA /au·bohr⁶  :       4710.871165
 Mol. C8AA /au·bohr⁸  :      99981.819018
 Mol. α(0) /au        :         98.269858


Wiberg/Mayer (AO) data.
largest (>0.10) Wiberg bond orders for each atom

 ---------------------------------------------------------------------------
     #   Z sym  total        # sym  WBO       # sym  WBO       # sym  WBO
 ---------------------------------------------------------------------------
     1   6 C    3.958 --    17 O    1.015     2 C    0.975    18 H    0.967
                            19 H    0.965
     2   6 C    3.951 --     1 C    0.975    12 O    0.974     4 C    0.959
                             3 H    0.954
     3   1 H    1.000 --     2 C    0.954
     4   6 C    3.954 --    16 O    0.998     6 C    0.966     2 C    0.959
                             5 H    0.958
     5   1 H    0.996 --     4 C    0.958
     6   6 C    3.962 --    15 O    0.997     8 C    0.967     4 C    0.966
                             7 H    0.955
     7   1 H    1.000 --     6 C    0.955
     8   6 C    3.965 --    14 O    1.008     6 C    0.967     9 H    0.956
                            10 C    0.948
     9   1 H    0.999 --     8 C    0.956
    10   6 C    3.935 --    13 O    1.034    12 O    0.954     8 C    0.948
                            11 H    0.948
    11   1 H    0.998 --    10 C    0.948
    12   8 O    2.077 --     2 C    0.974    10 C    0.954
    13   8 O    2.009 --    10 C    1.034    20 H    0.881
    14   8 O    1.965 --     8 C    1.008    21 H    0.884
    15   8 O    1.957 --     6 C    0.997    22 H    0.884
    16   8 O    1.977 --     4 C    0.998    23 H    0.894
    17   8 O    1.977 --     1 C    1.015    24 H    0.901
    18   1 H    0.994 --     1 C    0.967
    19   1 H    0.998 --     1 C    0.965
    20   1 H    0.900 --    13 O    0.881
    21   1 H    0.900 --    14 O    0.884
    22   1 H    0.904 --    15 O    0.884
    23   1 H    0.914 --    16 O    0.894
    24   1 H    0.916 --    17 O    0.901
 ---------------------------------------------------------------------------

Topologies differ in total number of bonds
Writing topology from bond orders to xtbtopo.mol

molecular dipole:
                 x           y           z       tot (Debye)
 q only:       -0.525       1.022       0.180
   full:       -0.725       1.558       0.405       4.487
molecular quadrupole (traceless):
                xx          xy          yy          xz          yz          zz
 q only:       -2.724      -1.202      -3.766      -8.025       4.446       6.490
  q+dip:       -7.374      -1.106      -6.713     -11.654       6.361      14.087
   full:       -6.617      -1.326      -5.919     -11.819       6.256      12.536


           -------------------------------------------------
          | TOTAL ENERGY              -43.353435777413 Eh   |
          | GRADIENT NORM               0.015072846354 Eh/α |
          | HOMO-LUMO GAP              10.290855407180 eV   |
           -------------------------------------------------

------------------------------------------------------------------------
 * finished run on 2025/04/06 at 18:00:43.426     
------------------------------------------------------------------------
 total:
 * wall-time:     0 d,  0 h,  0 min,  0.061 sec
 *  cpu-time:     0 d,  0 h,  0 min,  0.027 sec
 * ratio c/w:     0.441 speedup
 SCF:
 * wall-time:     0 d,  0 h,  0 min,  0.023 sec
 *  cpu-time:     0 d,  0 h,  0 min,  0.019 sec
 * ratio c/w:     0.822 speedup

