
                                 *****************
                                 * O   R   C   A *
                                 *****************

                                            #,                                       
                                            ###                                      
                                            ####                                     
                                            #####                                    
                                            ######                                   
                                           ########,                                 
                                     ,,################,,,,,                         
                               ,,#################################,,                 
                          ,,##########################################,,             
                       ,#########################################, ''#####,          
                    ,#############################################,,   '####,        
                  ,##################################################,,,,####,       
                ,###########''''           ''''###############################       
              ,#####''   ,,,,##########,,,,          '''####'''          '####       
            ,##' ,,,,###########################,,,                        '##       
           ' ,,###''''                  '''############,,,                           
         ,,##''                                '''############,,,,        ,,,,,,###''
      ,#''                                            '''#######################'''  
     '                                                          ''''####''''         
             ,#######,   #######,   ,#######,      ##                                
            ,#'     '#,  ##    ##  ,#'     '#,    #''#        ,####,   ,####,        
            ##       ##  ##   ,#'  ##            #'  '#       #'       #'  '#        
            ##       ##  #######   ##           ,######,      #####,   #    #        
            '#,     ,#'  ##    ##  '#,     ,#' ,#      #,     #,   #   #,  ,#        
             '#######'   ##     ##  '#######'  #'      '#     '####' # '####'        



                #########################################################
                #                        -***-                          #
                #          Department of theory and spectroscopy        #
                #                                                       #
                #                      Frank Neese                      #
                #                                                       #
                #     Directorship, Architecture, Infrastructure        #
                #                    SHARK, DRIVERS                     #
                #        Core code/Algorithms in most modules           #
                #                                                       #
                #        Max Planck Institute fuer Kohlenforschung      #
                #                Kaiser Wilhelm Platz 1                 #
                #                 D-45470 Muelheim/Ruhr                 #
                #                      Germany                          #
                #                                                       #
                #                  All rights reserved                  #
                #                        -***-                          #
                #########################################################


                         Program Version 6.0.0  -   RELEASE  -


 With contributions from (in alphabetic order):
   Daniel Aravena         : Magnetic Suceptibility
   Michael Atanasov       : Ab Initio Ligand Field Theory (pilot matlab implementation)
   Alexander A. Auer      : GIAO ZORA, VPT2 properties, NMR spectrum
   Ute Becker             : All parallelization in ORCA, NUMFREQ, NUMCALC
   Giovanni Bistoni       : ED, misc. LED, open-shell LED, HFLD
   Martin Brehm           : Molecular dynamics
   Dmytro Bykov           : pre 5.0 version of the SCF Hessian
   Marcos Casanova-Páez   : Triplet and SCS-CIS(D). UHF-(DLPNO)-IP/EA/STEOM-CCSD. UHF-CVS-IP/STEOM-CCSD
   Vijay G. Chilkuri      : MRCI spin determinant printing, contributions to CSF-ICE
   Pauline Colinet        : FMM embedding
   Dipayan Datta          : RHF DLPNO-CCSD density
   Achintya Kumar Dutta   : EOM-CC, STEOM-CC
   Nicolas Foglia         : Exact transition moments, OPA infrastructure, MCD improvements
   Dmitry Ganyushin       : Spin-Orbit,Spin-Spin,Magnetic field MRCI
   Miquel Garcia          : C-PCM and meta-GGA Hessian, CCSD/C-PCM, Gaussian charge scheme
   Tiago L. C. Gouveia    : GS-ROHF, GS-ROCIS
   Yang Guo               : DLPNO-NEVPT2, F12-NEVPT2, CIM, IAO-localization
   Andreas Hansen         : Spin unrestricted coupled pair/coupled cluster methods
   Ingolf Harden          : AUTO-CI MPn and infrastructure 
   Benjamin Helmich-Paris : MC-RPA, TRAH-(SCF,CASSCF), AVAS, COSX integrals, SCF dyn. polar.
   Lee Huntington         : MR-EOM, pCC
   Robert Izsak           : Overlap fitted RIJCOSX, COSX-SCS-MP3, EOM
   Riya Kayal             : Wick's Theorem for AUTO-CI, AUTO-CI UHF-CCSDT
   Emily Kempfer          : AUTO-CI, RHF CISDT and CCSDT
   Christian Kollmar      : KDIIS, OOCD, Brueckner-CCSD(T), CCSD density, CASPT2, CASPT2-K, improved NEVPT2
   Axel Koslowski         : Symmetry handling
   Simone Kossmann        : Meta GGA functionals, TD-DFT gradient, OOMP2, (MP2 Hessian; deprecated post 5.0)
   Lucas Lang             : DCDCAS
   Marvin Lechner         : AUTO-CI (C++ implementation), FIC-MRCC
   Spencer Leger          : CASSCF response
   Dagmar Lenk            : GEPOL surface, SMD, ORCA-2-JSON
   Dimitrios Liakos       : Extrapolation schemes; Compound Job, initial MDCI parallelization
   Dimitrios Manganas     : Further ROCIS development; embedding schemes. LFT, Crystal Embedding
   Dimitrios Pantazis     : SARC Basis sets
   Anastasios Papadopoulos: AUTO-CI, single reference methods and gradients
   Taras Petrenko         : pre 6.0 DFT Hessian and TD-DFT gradient, (ASA, deprecated), ECA, 1-Electron XAS/XES, NRVS
   Peter Pinski           : DLPNO-MP2, DLPNO-MP2 Gradient
   Christoph Reimann      : Effective Core Potentials
   Marius Retegan         : Local ZFS, SOC
   Christoph Riplinger    : Optimizer, TS searches, QM/MM, DLPNO-CCSD(T), (RO)-DLPNO pert. Triples
   Michael Roemelt        : Original ROCIS implementation
   Masaaki Saitow         : Open-shell DLPNO-CCSD energy and density
   Barbara Sandhoefer     : DKH picture change effects
   Kantharuban Sivalingam : CASSCF convergence/infrastructure, NEVPT2 and variants, FIC-MRCI
   Bernardo de Souza      : ESD, SOC TD-DFT
   Georgi Stoychev        : AutoAux, RI-MP2 NMR, DLPNO-MP2 response, X2C
   Van Anh Tran           : RI-MP2 g-tensors
   Willem Van den Heuvel  : Paramagnetic NMR
   Zikuan Wang            : NOTCH, Electric field optimization 
   Frank Wennmohs         : Technical directorship and infrastructure
   Hang Xu                : AUTO-CI-Response properties 


 We gratefully acknowledge several colleagues who have allowed us to
 interface, adapt or use parts of their codes:
   Stefan Grimme, W. Hujo, H. Kruse, P. Pracht,  : VdW corrections, initial TS optimization,
                  C. Bannwarth, S. Ehlert,         DFT functionals, gCP, sTDA/sTD-DF
                  L. Wittmann, M. Mueller
   Ed Valeev, F. Pavosevic, A. Kumar             : LibInt (2-el integral package), F12 methods
   Garnet Chan, S. Sharma, J. Yang, R. Olivares  : DMRG
   Ulf Ekstrom                                   : XCFun DFT Library
   Mihaly Kallay                                 : mrcc  (arbitrary order and MRCC methods)
   Frank Weinhold                                : gennbo (NPA and NBO analysis)
   Simon Mueller                                 : openCOSMO-RS
   Christopher J. Cramer and Donald G. Truhlar   : smd solvation model
   Lars Goerigk                                  : TD-DFT with DH, B97 family of functionals
   V. Asgeirsson, H. Jonsson                     : NEB implementation
   FAccTs GmbH                                   : IRC, NEB, NEB-TS, DLPNO-Multilevel, CI-OPT
                                                   MM, QMMM, 2- and 3-layer-ONIOM, Crystal-QMMM,
                                                   LR-CPCM, SF, NACMEs, symmetry and pop. for TD-DFT,
                                                   nearIR, NL-DFT gradient (VV10), updates on ESD,
                                                   ML-optimized integration grids, MBIS, APM,
                                                   GOAT, DOCKER, SOLVATOR, interface openCOSMO-RS
   S Lehtola, MJT Oliveira, MAL Marques          : LibXC Library
   Liviu Ungur et al                             : ANISO software


 Your calculation uses the libint2 library for the computation of 2-el integrals
 For citations please refer to: http://libint.valeyev.net

 Your ORCA version has been built with support for libXC version: 6.2.2
 For citations please refer to: https://libxc.gitlab.io

 This ORCA versions uses:
   CBLAS   interface :  Fast vector & matrix operations
   LAPACKE interface :  Fast linear algebra routines
   SCALAPACK package :  Parallel linear algebra routines
   Shared memory     :  Shared parallel matrices
   BLAS/LAPACK       :  OpenBLAS 0.3.27  USE64BITINT DYNAMIC_ARCH NO_AFFINITY SkylakeX SINGLE_THREADED
        Core in use  :  SkylakeX
   Copyright (c) 2011-2014, The OpenBLAS Project


Your calculation utilizes the geometrical counterpoise correction gCP
Please cite in your paper:
H.Kruse, S. Grimme J.Chem.Phys., 136, (2012), 154101 
   

Your calculation utilizes the atom-pairwise dispersion correction
based on EEQ partial charges (D4)


================================================================================

----- Orbital basis set information -----
Your calculation utilizes the basis: def2-SV(P)
   F. Weigend and R. Ahlrichs, Phys. Chem. Chem. Phys. 7, 3297 (2005).

----- AuxJ basis set information -----
Your calculation utilizes the auxiliary basis: def2/J
   F. Weigend, Phys. Chem. Chem. Phys. 8, 1057 (2006).

================================================================================
                                        WARNINGS
                       Please study these warnings very carefully!
================================================================================


================================================================================
                                       INPUT FILE
================================================================================
NAME = sp.inp
|  1> ! pbe def2-sv(p) def2/J RI DEFGRID1 loosescf d4 GCP(DFT/SV(P)) printgap
|  2> %output
|  3>     printlevel normal
|  4> end
|  5> * xyz 0 1
|  6> C -1.823798296 -1.045738833 -0.6677418175
|  7> C -1.0395944787 -0.4890536246 0.5388803028
|  8> H -1.6749494317 -0.5888523976 1.4290130699
|  9> C -0.7056496166 1.0013889613 0.3536355435
| 10> H -1.5381058274 1.4626061313 -0.1949507832
| 11> C 0.5842604873 1.2382134128 -0.4670880795
| 12> H 0.8544417184 2.2931857474 -0.3260383101
| 13> C 1.7192149929 0.3663960088 0.0862084954
| 14> H 2.579832527 0.4213121935 -0.590126579
| 15> C 1.2640275471 -1.1082638188 0.133449848
| 16> H 2.0146666617 -1.6803902576 0.6972713181
| 17> O 0.0870097254 -1.296246605 0.8730110375
| 18> O 1.1506957711 -1.5659875098 -1.1829274924
| 19> O 2.1699645126 0.7953235303 1.3413343649
| 20> O 0.3934673705 1.0525779931 -1.8453132575
| 21> O -0.4991939857 1.6418016948 1.5966129829
| 22> O -3.1200844917 -0.5055210245 -0.7338283815
| 23> H -1.8511153944 -2.138731102 -0.5891375709
| 24> H -1.3389454798 -0.7664661835 -1.6036061427
| 25> H 1.0676185075 -2.5311727494 -1.2030694462
| 26> H 1.399456202 1.0282371015 1.8887506869
| 27> H 0.6167642412 0.1348534393 -2.0732358437
| 28> H -1.3374459327 1.730057266 2.071753407
| 29> H -3.6607007952 -0.8588288231 -0.0127067788
| 30> *
| 31> 
| 32>                          ****END OF INPUT****
================================================================================

                       ****************************
                       * Single Point Calculation *
                       ****************************

---------------------------------
CARTESIAN COORDINATES (ANGSTROEM)
---------------------------------
  C     -1.823798   -1.045739   -0.667742
  C     -1.039594   -0.489054    0.538880
  H     -1.674949   -0.588852    1.429013
  C     -0.705650    1.001389    0.353636
  H     -1.538106    1.462606   -0.194951
  C      0.584260    1.238213   -0.467088
  H      0.854442    2.293186   -0.326038
  C      1.719215    0.366396    0.086208
  H      2.579833    0.421312   -0.590127
  C      1.264028   -1.108264    0.133450
  H      2.014667   -1.680390    0.697271
  O      0.087010   -1.296247    0.873011
  O      1.150696   -1.565988   -1.182927
  O      2.169965    0.795324    1.341334
  O      0.393467    1.052578   -1.845313
  O     -0.499194    1.641802    1.596613
  O     -3.120084   -0.505521   -0.733828
  H     -1.851115   -2.138731   -0.589138
  H     -1.338945   -0.766466   -1.603606
  H      1.067619   -2.531173   -1.203069
  H      1.399456    1.028237    1.888751
  H      0.616764    0.134853   -2.073236
  H     -1.337446    1.730057    2.071753
  H     -3.660701   -0.858829   -0.012707

----------------------------
CARTESIAN COORDINATES (A.U.)
----------------------------
  NO LB      ZA    FRAG     MASS         X           Y           Z
   0 C     6.0000    0    12.011   -3.446479   -1.976160   -1.261849
   1 C     6.0000    0    12.011   -1.964549   -0.924177    1.018336
   2 H     1.0000    0     1.008   -3.165196   -1.112770    2.700443
   3 C     6.0000    0    12.011   -1.333485    1.892351    0.668274
   4 H     1.0000    0     1.008   -2.906599    2.763925   -0.368404
   5 C     6.0000    0    12.011    1.104092    2.339884   -0.882669
   6 H     1.0000    0     1.008    1.614661    4.333493   -0.616123
   7 C     6.0000    0    12.011    3.248846    0.692388    0.162910
   8 H     1.0000    0     1.008    4.875177    0.796165   -1.115178
   9 C     6.0000    0    12.011    2.388666   -2.094315    0.252184
  10 H     1.0000    0     1.008    3.807168   -3.175477    1.317652
  11 O     8.0000    0    15.999    0.164425   -2.449551    1.649752
  12 O     8.0000    0    15.999    2.174500   -2.959288   -2.235409
  13 O     8.0000    0    15.999    4.100639    1.502944    2.534755
  14 O     8.0000    0    15.999    0.743546    1.989084   -3.487137
  15 O     8.0000    0    15.999   -0.943340    3.102556    3.017161
  16 O     8.0000    0    15.999   -5.896105   -0.955296   -1.386735
  17 H     1.0000    0     1.008   -3.498101   -4.041616   -1.113309
  18 H     1.0000    0     1.008   -2.530240   -1.448411   -3.030376
  19 H     1.0000    0     1.008    2.017507   -4.783223   -2.273472
  20 H     1.0000    0     1.008    2.644589    1.943087    3.569222
  21 H     1.0000    0     1.008    1.165516    0.254836   -3.917848
  22 H     1.0000    0     1.008   -2.527407    3.269334    3.915047
  23 H     1.0000    0     1.008   -6.917722   -1.622951   -0.024012

--------------------------------
INTERNAL COORDINATES (ANGSTROEM)
--------------------------------
 C      0   0   0     0.000000000000     0.00000000     0.00000000
 C      1   0   0     1.542987682879     0.00000000     0.00000000
 H      2   1   0     1.098167589423   107.88032965     0.00000000
 C      2   1   3     1.538588279442   111.44775440   241.44110979
 H      4   2   1     1.098476935873   107.60033774    34.08434202
 C      4   2   1     1.547107353199   113.14875482   275.33796054
 H      6   4   2     1.098116369907   106.50264109   193.59308468
 C      6   4   2     1.534380792207   109.78215724   310.88514676
 H      8   6   4     1.095950482552   109.25943499   171.31433118
 C      8   6   4     1.544036580961   109.61087958    53.93602019
 H     10   8   6     1.099400924362   108.14503548   190.15512913
 O     10   8   6     1.402732773383   113.04711525   304.08617001
 O     10   8   6     1.398286226447   107.92236741    69.30664134
 O      8   6   4     1.400890751093   112.77472701   289.60864461
 O      6   4   2     1.403697675334   112.78616679    76.93399407
 O      4   2   1     1.413416184857   111.39160054   156.05476059
 O      1   2   3     1.405902064770   111.51463567    49.66879757
 H      1   2   3     1.096155532551   108.44123102   286.75593174
 H      1   2   3     1.090374936120   110.65798413   167.06945645
 H     13  10   8     0.968963403216   110.64571519   166.98096439
 H     14   8   6     0.973445642008   108.80898116    42.50377919
 H     15   6   4     0.971611318590   108.90501879   266.97760437
 H     16   4   2     0.967581415236   110.28121490   289.06132826
 H     17   1   2     0.968043776924   109.85639157   289.46601609

---------------------------
INTERNAL COORDINATES (A.U.)
---------------------------
 C      0   0   0     0.000000000000     0.00000000     0.00000000
 C      1   0   0     2.915824148655     0.00000000     0.00000000
 H      2   1   0     2.075235993158   107.88032965     0.00000000
 C      2   1   3     2.907510481006   111.44775440   241.44110979
 H      4   2   1     2.075820573229   107.60033774    34.08434202
 C      4   2   1     2.923609197322   113.14875482   275.33796054
 H      6   4   2     2.075139202300   106.50264109   193.59308468
 C      6   4   2     2.899559482421   109.78215724   310.88514676
 H      8   6   4     2.071046268362   109.25943499   171.31433118
 C      8   6   4     2.917806278773   109.61087958    53.93602019
 H     10   8   6     2.077566658423   108.14503548   190.15512913
 O     10   8   6     2.650780780769   113.04711525   304.08617001
 O     10   8   6     2.642378024820   107.92236741    69.30664134
 O      8   6   4     2.647299863109   112.77472701   289.60864461
 O      6   4   2     2.652604181204   112.78616679    76.93399407
 O      4   2   1     2.670969502632   111.39160054   156.05476059
 O      1   2   3     2.656769873530   111.51463567    49.66879757
 H      1   2   3     2.071433756704   108.44123102   286.75593174
 H      1   2   3     2.060510012558   110.65798413   167.06945645
 H     13  10   8     1.831075465870   110.64571519   166.98096439
 H     14   8   6     1.839545669655   108.80898116    42.50377919
 H     15   6   4     1.836079300753   108.90501879   266.97760437
 H     16   4   2     1.828463887069   110.28121490   289.06132826
 H     17   1   2     1.829337624034   109.85639157   289.46601609

---------------------
BASIS SET INFORMATION
---------------------
There are 3 groups of distinct atoms

 Group   1 Type C   : 7s4p1d contracted to 3s2p1d pattern {511/31/1}
 Group   2 Type H   : 4s contracted to 2s pattern {31}
 Group   3 Type O   : 7s4p1d contracted to 3s2p1d pattern {511/31/1}

Atom   0C    basis set group =>   1
Atom   1C    basis set group =>   1
Atom   2H    basis set group =>   2
Atom   3C    basis set group =>   1
Atom   4H    basis set group =>   2
Atom   5C    basis set group =>   1
Atom   6H    basis set group =>   2
Atom   7C    basis set group =>   1
Atom   8H    basis set group =>   2
Atom   9C    basis set group =>   1
Atom  10H    basis set group =>   2
Atom  11O    basis set group =>   3
Atom  12O    basis set group =>   3
Atom  13O    basis set group =>   3
Atom  14O    basis set group =>   3
Atom  15O    basis set group =>   3
Atom  16O    basis set group =>   3
Atom  17H    basis set group =>   2
Atom  18H    basis set group =>   2
Atom  19H    basis set group =>   2
Atom  20H    basis set group =>   2
Atom  21H    basis set group =>   2
Atom  22H    basis set group =>   2
Atom  23H    basis set group =>   2
---------------------------------
AUXILIARY/J BASIS SET INFORMATION
---------------------------------
There are 3 groups of distinct atoms

 Group   1 Type C   : 12s5p4d2f1g contracted to 6s4p3d1f1g pattern {711111/2111/211/2/1}
 Group   2 Type H   : 5s2p1d contracted to 3s1p1d pattern {311/2/1}
 Group   3 Type O   : 12s5p4d2f1g contracted to 6s4p3d1f1g pattern {711111/2111/211/2/1}

Atom   0C    basis set group =>   1
Atom   1C    basis set group =>   1
Atom   2H    basis set group =>   2
Atom   3C    basis set group =>   1
Atom   4H    basis set group =>   2
Atom   5C    basis set group =>   1
Atom   6H    basis set group =>   2
Atom   7C    basis set group =>   1
Atom   8H    basis set group =>   2
Atom   9C    basis set group =>   1
Atom  10H    basis set group =>   2
Atom  11O    basis set group =>   3
Atom  12O    basis set group =>   3
Atom  13O    basis set group =>   3
Atom  14O    basis set group =>   3
Atom  15O    basis set group =>   3
Atom  16O    basis set group =>   3
Atom  17H    basis set group =>   2
Atom  18H    basis set group =>   2
Atom  19H    basis set group =>   2
Atom  20H    basis set group =>   2
Atom  21H    basis set group =>   2
Atom  22H    basis set group =>   2
Atom  23H    basis set group =>   2
------------------------------------------------------------------------------
                             ORCA STARTUP CALCULATIONS
                           -- RI-GTO INTEGRALS CHOSEN --
------------------------------------------------------------------------------
------------------------------------------------------------------------------
                   ___                                                        
                  /   \      - P O W E R E D   B Y -                         
                 /     \                                                     
                 |  |  |   _    _      __       _____    __    __             
                 |  |  |  | |  | |    /  \     |  _  \  |  |  /  |          
                  \  \/   | |  | |   /    \    | | | |  |  | /  /          
                 / \  \   | |__| |  /  /\  \   | |_| |  |  |/  /          
                |  |  |   |  __  | /  /__\  \  |    /   |      \           
                |  |  |   | |  | | |   __   |  |    \   |  |\   \          
                \     /   | |  | | |  |  |  |  | |\  \  |  | \   \       
                 \___/    |_|  |_| |__|  |__|  |_| \__\ |__|  \__/        
                                                                              
                      - O R C A' S   B I G   F R I E N D -                    
                                      &                                       
                       - I N T E G R A L  F E E D E R -                       
                                                                              
 v1 FN, 2020, v2 2021, v3 2022-2024                                           
------------------------------------------------------------------------------


----------------------
SHARK INTEGRAL PACKAGE
----------------------

Number of atoms                             ...     24
Number of basis functions                   ...    192
Number of shells                            ...     96
Maximum angular momentum                    ...      2
Integral batch strategy                     ... SHARK/LIBINT Hybrid
RI-J (if used) integral strategy            ... SPLIT-RIJ (Revised 2003 algorithm where possible)
Printlevel                                  ...      1
Contraction scheme used                     ... SEGMENTED contraction
Prescreening option                         ... SCHWARTZ
   Thresh                                   ... 1.000e-09
   Tcut                                     ... 1.000e-10
   Tpresel                                  ... 1.000e-10 
Coulomb Range Separation                    ... NOT USED
Exchange Range Separation                   ... NOT USED
Multipole approximations                    ... NOT USED
Finite Nucleus Model                        ... NOT USED
CABS basis                                  ... NOT available
Auxiliary Coulomb fitting basis             ... AVAILABLE
   # of basis functions in Aux-J            ...    720
   # of shells in Aux-J                     ...    240
   Maximum angular momentum in Aux-J        ...      4
Auxiliary J/K fitting basis                 ... NOT available
Auxiliary Correlation fitting basis         ... NOT available
Auxiliary 'external' fitting basis          ... NOT available

Checking pre-screening integrals            ... done (  0.0 sec) Dimension = 96
Check shell pair data                       ... done (  0.0 sec)
Shell pair information
Shell pair cut-off parameter TPreSel        ...   1.0e-10
Total number of shell pairs                 ...      4656
Shell pairs after pre-screening             ...      4281
Total number of primitive shell pairs       ...     18720
Primitive shell pairs kept                  ...     11617
          la=0 lb=0:   1663 shell pairs
          la=1 lb=0:   1354 shell pairs
          la=1 lb=1:    291 shell pairs
          la=2 lb=0:    632 shell pairs
          la=2 lb=1:    271 shell pairs
          la=2 lb=2:     70 shell pairs

Calculating one electron integrals          ... done (  0.0 sec)
Calculating RI/J V-Matrix + Cholesky decomp.... done (  0.1 sec)
Calculating Nuclear repulsion               ... done (  0.0 sec) ENN=    859.020497748471 Eh

Diagonalization of the overlap matrix:
Smallest eigenvalue                        ... 7.658e-04
Time for diagonalization                   ...    0.003 sec
Threshold for overlap eigenvalues          ... 1.000e-07
Number of eigenvalues below threshold      ... 0
Time for construction of square roots      ...    0.013 sec
Total time needed                          ...    0.027 sec

-------------------
DFT GRID GENERATION
-------------------

General Integration Accuracy     IntAcc      ... 4.159
Radial Grid Type                 RadialGrid  ... OptM3 with GC (2021)
Angular Grid (max. ang.)         AngularGrid ... 3 (Lebedev-194)
Angular grid pruning method      GridPruning ... 4 (adaptive)
Weight generation scheme         WeightScheme... mBecke (2022)
Basis function cutoff            BFCut       ... 1.0000e-10
Integration weight cutoff        WCut        ... 1.0000e-14
Partially contracted basis set               ... off
Rotationally invariant grid construction     ... off
Angular grids for H and He will be reduced by one unit

Total number of grid points                  ...    55580
Total number of batches                      ...      880
Average number of points per batch           ...       63
Average number of grid points per atom       ...     2316
Initializing property integral containers    ... done (  0.0 sec)

SHARK setup successfully completed in   0.9 seconds

Maximum memory used throughout the entire STARTUP-calculation: 28.2 MB
-------------------------------------------------------------------------------
                                 ORCA GUESS
                   Start orbitals & Density for SCF / CASSCF
-------------------------------------------------------------------------------

------------
SCF SETTINGS
------------
Hamiltonian:
 Density Functional     Method          .... DFT(GTOs)
 Exchange Functional    Exchange        .... PBE
   PBE kappa parameter   XKappa         ....  0.804000
   PBE mue parameter    XMuePBE         ....  0.219520
 Correlation Functional Correlation     .... PBE
   PBE beta parameter  CBetaPBE         ....  0.066725
 LDA part of GGA corr.  LDAOpt          .... PW91-LDA
 Gradients option       PostSCFGGA      .... off
   NL short-range parameter             ....  6.400000
 RI-approximation to the Coulomb term is turned on
   Number of AuxJ basis functions       .... 720


General Settings:
 Integral files         IntName         .... sp
 Hartree-Fock type      HFTyp           .... RHF
 Total Charge           Charge          ....    0
 Multiplicity           Mult            ....    1
 Number of Electrons    NEL             ....   96
 Basis Dimension        Dim             ....  192
 Nuclear Repulsion      ENuc            ....    859.0204977485 Eh

Convergence Acceleration:
 AO-DIIS                CNVDIIS         .... on
   Start iteration      DIISMaxIt       ....    12
   Startup error        DIISStart       ....  0.200000
   # of expansion vecs  DIISMaxEq       ....     5
   Bias factor          DIISBfac        ....   1.050
   Max. coefficient     DIISMaxC        ....  10.000
 MO-DIIS                CNVKDIIS        .... off
 Trust-Rad. Augm. Hess. CNVTRAH         .... auto
   Auto Start mean grad. ratio tolernc. ....  1.125000
   Auto Start start iteration           ....    50
   Auto Start num. interpolation iter.  ....    10
   Max. Number of Micro iterations      ....    24
   Max. Number of Macro iterations      .... Maxiter - #DIIS iter
   Number of Davidson start vectors     ....     2
   Converg. threshold    (grad. norm)   ....   1.000e-04
   Grad. Scal. Fac. for Micro threshold ....   0.100
   Minimum threshold for Micro iter.    ....   1.000e-02
   NR start threshold (gradient norm)   ....   1.000e-04
   Initial trust radius                 ....   0.400
   Minimum AH scaling param. (alpha)    ....   1.000
   Maximum AH scaling param. (alpha)    .... 1000.000
   Quad. conv. algorithm                .... NR
   White noise on init. David. guess    .... on
   Maximum white noise                  ....   0.010
   Pseudo random numbers                .... off
   Inactive MOs                         .... canonical
   Orbital update algorithm             .... Taylor
   Preconditioner                       .... Diag
   Full preconditioner red. dimension   ....   250
 SOSCF                  CNVSOSCF        .... on
   Start iteration      SOSCFMaxIt      ....   150
   Startup grad/error   SOSCFStart      ....  0.003300
   Hessian update       SOSCFHessUp     .... L-BFGS
 Level Shifting         CNVShift        .... on
   Level shift para.    LevelShift      ....    0.2500
   Turn off err/grad.   ShiftErr        ....    0.0010
 Zerner damping         CNVZerner       .... off
 Static damping         CNVDamp         .... on
   Fraction old density DampFac         ....    0.7000
   Max. Damping (<1)    DampMax         ....    0.9800
   Min. Damping (>=0)   DampMin         ....    0.0000
   Turn off err/grad.   DampErr         ....    0.1000

SCF Procedure:
 Maximum # iterations   MaxIter         ....   125
 SCF integral mode      SCFMode         .... Direct
   Integral package                     .... SHARK and LIBINT hybrid scheme
 Reset frequency        DirectResetFreq ....    20
 Integral Threshold     Thresh          ....  1.000e-09 Eh
 Primitive CutOff       TCut            ....  1.000e-10 Eh

Convergence Tolerance:
 Convergence Check Mode ConvCheckMode   .... Total+1el-Energy
 Convergence forced     ConvForced      .... 0
 Energy Change          TolE            ....  1.000e-05 Eh
 1-El. energy change                    ....  1.000e-02 Eh
 Orbital Gradient       TolG            ....  1.000e-04
 Orbital Rotation angle TolX            ....  1.000e-04
 DIIS Error             TolErr          ....  5.000e-04

------------------------------
INITIAL GUESS: MODEL POTENTIAL
------------------------------
Loading Hartree-Fock densities                     ... done
Calculating cut-offs                               ... done
Initializing the effective Hamiltonian             ... done
Setting up the integral package (SHARK)            ... done
Starting the Coulomb interaction                   ... done (   0.2 sec)
Making the grid                                    ... done (   0.3 sec)
Mapping shells                                     ... done
Starting the XC term evaluation                    ... done (   0.3 sec)
  promolecular density results
     # of electrons  =     95.988549540
     EX              =    -83.234623400
     EC              =     -3.273829305
     EX+EC           =    -86.508452706
Transforming the Hamiltonian                       ... done (   0.0 sec)
Diagonalizing the Hamiltonian                      ... done (   0.0 sec)
Back transforming the eigenvectors                 ... done (   0.0 sec)
Now organizing SCF variables                       ... done
                      ------------------
                      INITIAL GUESS DONE (   0.9 sec)
                      ------------------
             **** ENERGY FILE WAS UPDATED (sp.en.tmp) ****
Finished Guess after   1.1 sec
Maximum memory used throughout the entire GUESS-calculation: 22.0 MB

-------------------------------------------------------------------------------------------
                                      ORCA LEAN-SCF
                              memory conserving SCF solver
-------------------------------------------------------------------------------------------

----------------------------------------D-I-I-S--------------------------------------------
Iteration    Energy (Eh)           Delta-E    RMSDP     MaxDP     DIISErr   Damp  Time(sec)
-------------------------------------------------------------------------------------------
               ***  Starting incremental Fock matrix formation  ***
    1    -685.5350898940087063     0.00e+00  4.45e-03  9.71e-02  2.25e-01  0.700   1.2
    2    -685.6810649223311884    -1.46e-01  2.89e-03  7.07e-02  8.91e-02  0.700   1.2
                               ***Turning on AO-DIIS***
    3    -685.7279064859656046    -4.68e-02  1.07e-03  2.16e-02  2.03e-02  0.700   1.2
    4    -685.7588663414198891    -3.10e-02  1.47e-03  2.34e-02  9.30e-03  0.000   1.1
    5    -685.8301306611017480    -7.13e-02  4.46e-04  1.19e-02  4.73e-03  0.000   1.1
                              *** Initializing SOSCF ***
---------------------------------------S-O-S-C-F--------------------------------------
Iteration    Energy (Eh)           Delta-E    RMSDP     MaxDP     MaxGrad    Time(sec)
--------------------------------------------------------------------------------------
    6    -685.8304381296006795    -3.07e-04  1.36e-04  2.67e-03  1.58e-03     1.1
               *** Restarting incremental Fock matrix formation ***
    7    -685.8304672742112871    -2.91e-05  9.68e-05  1.98e-03  1.69e-04     1.2
    8    -685.8304672823105648    -8.10e-09  3.56e-05  6.29e-04  2.19e-04     1.0
                 **** Energy Check signals convergence ****

               *****************************************************
               *                     SUCCESS                       *
               *           SCF CONVERGED AFTER   8 CYCLES          *
               *****************************************************

             **** ENERGY FILE WAS UPDATED (sp.en.tmp) ****

----------------
TOTAL SCF ENERGY
----------------

Total Energy       :       -685.83046728231056 Eh          -18662.39579 eV

Components:
Nuclear Repulsion  :        859.02049774847069 Eh           23375.13611 eV
Electronic Energy  :      -1544.85096503078125 Eh          -42037.53191 eV
One Electron Energy:      -2647.12178757210631 Eh          -72031.84587 eV
Two Electron Energy:       1102.27082254132506 Eh           29994.31396 eV

Virial components:
Potential Energy   :      -1366.88041494623485 Eh          -37194.70703 eV
Kinetic Energy     :        681.04994766392417 Eh           18532.31124 eV
Virial Ratio       :          2.00701933776632

DFT components:
N(Alpha)           :       48.000170477066 electrons
N(Beta)            :       48.000170477066 electrons
N(Total)           :       96.000340954132 electrons
E(X)               :      -84.597586950197 Eh       
E(C)               :       -3.284951650435 Eh       
E(XC)              :      -87.882538600632 Eh       

---------------
SCF CONVERGENCE
---------------

  Last Energy change         ...    8.0993e-09  Tolerance :   1.0000e-05
  Last MAX-Density change    ...    6.2876e-04  Tolerance :   1.0000e-03
  Last RMS-Density change    ...    3.5558e-05  Tolerance :   1.0000e-04
  Last DIIS Error            ...    1.5797e-03  Tolerance :   5.0000e-04
  Last Orbital Gradient      ...    2.1878e-04  Tolerance :   1.0000e-04
  Last Orbital Rotation      ...    1.7324e-04  Tolerance :   1.0000e-04


----------------
ORBITAL ENERGIES
----------------

  NO   OCC          E(Eh)            E(eV) 
   0   2.0000     -18.785565      -511.1812 
   1   2.0000     -18.771817      -510.8071 
   2   2.0000     -18.771671      -510.8031 
   3   2.0000     -18.758550      -510.4461 
   4   2.0000     -18.743195      -510.0283 
   5   2.0000     -18.737441      -509.8717 
   6   2.0000      -9.988167      -271.7918 
   7   2.0000      -9.949248      -270.7328 
   8   2.0000      -9.945110      -270.6202 
   9   2.0000      -9.938859      -270.4501 
  10   2.0000      -9.937492      -270.4129 
  11   2.0000      -9.935713      -270.3645 
  12   2.0000      -0.990170       -26.9439 
  13   2.0000      -0.949192       -25.8288 
  14   2.0000      -0.934535       -25.4300 
  15   2.0000      -0.924428       -25.1550 
  16   2.0000      -0.922147       -25.0929 
  17   2.0000      -0.911867       -24.8132 
  18   2.0000      -0.704639       -19.1742 
  19   2.0000      -0.686177       -18.6718 
  20   2.0000      -0.627077       -17.0636 
  21   2.0000      -0.586498       -15.9594 
  22   2.0000      -0.577880       -15.7249 
  23   2.0000      -0.525500       -14.2996 
  24   2.0000      -0.515926       -14.0391 
  25   2.0000      -0.489191       -13.3116 
  26   2.0000      -0.472734       -12.8638 
  27   2.0000      -0.468797       -12.7566 
  28   2.0000      -0.442628       -12.0445 
  29   2.0000      -0.419723       -11.4212 
  30   2.0000      -0.414152       -11.2696 
  31   2.0000      -0.402964       -10.9652 
  32   2.0000      -0.394214       -10.7271 
  33   2.0000      -0.377953       -10.2846 
  34   2.0000      -0.364522        -9.9191 
  35   2.0000      -0.355855        -9.6833 
  36   2.0000      -0.334600        -9.1049 
  37   2.0000      -0.326956        -8.8969 
  38   2.0000      -0.301485        -8.2038 
  39   2.0000      -0.295529        -8.0418 
  40   2.0000      -0.279860        -7.6154 
  41   2.0000      -0.273813        -7.4508 
  42   2.0000      -0.258542        -7.0353 
  43   2.0000      -0.250678        -6.8213 
  44   2.0000      -0.242335        -6.5943 
  45   2.0000      -0.222487        -6.0542 
  46   2.0000      -0.209694        -5.7061 
  47   2.0000      -0.202772        -5.5177 
  48   0.0000       0.005075         0.1381 
  49   0.0000       0.008372         0.2278 
  50   0.0000       0.020114         0.5473 
  51   0.0000       0.054241         1.4760 
  52   0.0000       0.071137         1.9357 
  53   0.0000       0.072296         1.9673 
  54   0.0000       0.086408         2.3513 
  55   0.0000       0.095304         2.5933 
  56   0.0000       0.106958         2.9105 
  57   0.0000       0.110714         3.0127 
  58   0.0000       0.118214         3.2168 
*Only the first 10 virtual orbitals were printed.

                    ********************************
                    * MULLIKEN POPULATION ANALYSIS *
                    ********************************

-----------------------
MULLIKEN ATOMIC CHARGES
-----------------------
   0 C :    0.029911
   1 C :    0.051778
   2 H :    0.037868
   3 C :    0.027924
   4 H :    0.089050
   5 C :    0.050191
   6 H :    0.085309
   7 C :    0.021352
   8 H :    0.084651
   9 C :    0.179073
  10 H :    0.074447
  11 O :   -0.311420
  12 O :   -0.411285
  13 O :   -0.426540
  14 O :   -0.419247
  15 O :   -0.427655
  16 O :   -0.428809
  17 H :    0.070581
  18 H :    0.079769
  19 H :    0.314506
  20 H :    0.304306
  21 H :    0.318096
  22 H :    0.309959
  23 H :    0.296185
Sum of atomic charges:   -0.0000000

--------------------------------
MULLIKEN REDUCED ORBITAL CHARGES
--------------------------------
  0 C s       :     3.030918  s :     3.030918
      pz      :     1.083782  p :     2.876546
      px      :     0.793600
      py      :     0.999164
      dz2     :     0.011888  d :     0.062625
      dxz     :     0.015800
      dyz     :     0.003459
      dx2y2   :     0.018425
      dxy     :     0.013053

  1 C s       :     3.045987  s :     3.045987
      pz      :     1.031091  p :     2.837109
      px      :     0.853493
      py      :     0.952525
      dz2     :     0.010590  d :     0.065126
      dxz     :     0.016956
      dyz     :     0.007032
      dx2y2   :     0.014206
      dxy     :     0.016342

  2 H s       :     0.962132  s :     0.962132

  3 C s       :     3.053790  s :     3.053790
      pz      :     0.793984  p :     2.852511
      px      :     1.096713
      py      :     0.961814
      dz2     :     0.015584  d :     0.065775
      dxz     :     0.014132
      dyz     :     0.016555
      dx2y2   :     0.010774
      dxy     :     0.008729

  4 H s       :     0.910950  s :     0.910950

  5 C s       :     3.066457  s :     3.066457
      pz      :     0.750211  p :     2.815280
      px      :     0.997424
      py      :     1.067645
      dz2     :     0.020355  d :     0.068072
      dxz     :     0.019231
      dyz     :     0.011425
      dx2y2   :     0.010474
      dxy     :     0.006588

  6 H s       :     0.914691  s :     0.914691

  7 C s       :     3.072055  s :     3.072055
      pz      :     0.844525  p :     2.837973
      px      :     1.015559
      py      :     0.977889
      dz2     :     0.016275  d :     0.068619
      dxz     :     0.018148
      dyz     :     0.013579
      dx2y2   :     0.011523
      dxy     :     0.009094

  8 H s       :     0.915349  s :     0.915349

  9 C s       :     3.003798  s :     3.003798
      pz      :     0.763502  p :     2.718257
      px      :     0.881828
      py      :     1.072926
      dz2     :     0.024870  d :     0.098873
      dxz     :     0.028441
      dyz     :     0.016501
      dx2y2   :     0.013404
      dxy     :     0.015657

 10 H s       :     0.925553  s :     0.925553

 11 O s       :     3.747956  s :     3.747956
      pz      :     1.669391  p :     4.548347
      px      :     1.226756
      py      :     1.652200
      dz2     :     0.002094  d :     0.015117
      dxz     :     0.004348
      dyz     :     0.002195
      dx2y2   :     0.002605
      dxy     :     0.003875

 12 O s       :     3.767256  s :     3.767256
      pz      :     1.447523  p :     4.629555
      px      :     1.867188
      py      :     1.314844
      dz2     :     0.005810  d :     0.014475
      dxz     :     0.001806
      dyz     :     0.001655
      dx2y2   :     0.004736
      dxy     :     0.000469

 13 O s       :     3.779640  s :     3.779640
      pz      :     1.285328  p :     4.631516
      px      :     1.537812
      py      :     1.808376
      dz2     :     0.002045  d :     0.015384
      dxz     :     0.006531
      dyz     :     0.001560
      dx2y2   :     0.003273
      dxy     :     0.001976

 14 O s       :     3.778456  s :     3.778456
      pz      :     1.342224  p :     4.625345
      px      :     1.840132
      py      :     1.442990
      dz2     :     0.005497  d :     0.015446
      dxz     :     0.002157
      dyz     :     0.002070
      dx2y2   :     0.004059
      dxy     :     0.001664

 15 O s       :     3.786880  s :     3.786880
      pz      :     1.359218  p :     4.626041
      px      :     1.465101
      py      :     1.801721
      dz2     :     0.002191  d :     0.014734
      dxz     :     0.005068
      dyz     :     0.002094
      dx2y2   :     0.004121
      dxy     :     0.001259

 16 O s       :     3.793402  s :     3.793402
      pz      :     1.589654  p :     4.619731
      px      :     1.286387
      py      :     1.743690
      dz2     :     0.002581  d :     0.015676
      dxz     :     0.004609
      dyz     :     0.003038
      dx2y2   :     0.001824
      dxy     :     0.003625

 17 H s       :     0.929419  s :     0.929419

 18 H s       :     0.920231  s :     0.920231

 19 H s       :     0.685494  s :     0.685494

 20 H s       :     0.695694  s :     0.695694

 21 H s       :     0.681904  s :     0.681904

 22 H s       :     0.690041  s :     0.690041

 23 H s       :     0.703815  s :     0.703815


------------------------
MULLIKEN OVERLAP CHARGES
------------------------
B(  0-C ,  1-C ) :   0.5561 B(  0-C ,  2-H ) :  -0.0565 B(  0-C ,  3-C ) :  -0.0640 
B(  0-C , 11-O ) :  -0.0895 B(  0-C , 16-O ) :   0.6027 B(  0-C , 17-H ) :   0.6296 
B(  0-C , 18-H ) :   0.6527 B(  0-C , 23-H ) :  -0.0848 B(  1-C ,  2-H ) :   0.5832 
B(  1-C ,  3-C ) :   0.4120 B(  1-C ,  4-H ) :  -0.1325 B(  1-C ,  5-C ) :  -0.0508 
B(  1-C ,  7-C ) :  -0.1130 B(  1-C ,  9-C ) :  -0.1140 B(  1-C , 11-O ) :   0.5347 
B(  1-C , 15-O ) :  -0.0727 B(  1-C , 16-O ) :  -0.1092 B(  1-C , 17-H ) :  -0.0712 
B(  3-C ,  4-H ) :   0.6730 B(  3-C ,  5-C ) :   0.2091 B(  3-C ,  6-H ) :  -0.1416 
B(  3-C ,  7-C ) :   0.0776 B(  3-C ,  9-C ) :  -0.1287 B(  3-C , 14-O ) :  -0.1360 
B(  3-C , 15-O ) :   0.4571 B(  3-C , 18-H ) :  -0.0514 B(  3-C , 22-H ) :  -0.0507 
B(  4-H , 16-O ) :   0.0509 B(  5-C ,  6-H ) :   0.7300 B(  5-C ,  7-C ) :   0.4910 
B(  5-C ,  8-H ) :  -0.1015 B(  5-C , 11-O ) :  -0.0536 B(  5-C , 13-O ) :  -0.0618 
B(  5-C , 14-O ) :   0.6410 B(  5-C , 15-O ) :  -0.0817 B(  5-C , 21-H ) :  -0.0941 
B(  6-H ,  7-C ) :  -0.0895 B(  7-C ,  8-H ) :   0.6783 B(  7-C ,  9-C ) :   0.4273 
B(  7-C , 10-H ) :  -0.0771 B(  7-C , 11-O ) :  -0.0688 B(  7-C , 12-O ) :  -0.1078 
B(  7-C , 13-O ) :   0.6134 B(  7-C , 20-H ) :  -0.0874 B(  8-H ,  9-C ) :  -0.0801 
B(  8-H , 13-O ) :  -0.0503 B(  9-C , 10-H ) :   0.7086 B(  9-C , 11-O ) :   0.6832 
B(  9-C , 12-O ) :   0.5542 B(  9-C , 13-O ) :  -0.0872 B( 10-H , 11-O ) :  -0.0795 
B( 11-O , 12-O ) :  -0.1398 B( 12-O , 19-H ) :   0.4878 B( 12-O , 21-H ) :   0.0943 
B( 13-O , 20-H ) :   0.5465 B( 14-O , 18-H ) :   0.0593 B( 14-O , 21-H ) :   0.5407 
B( 15-O , 20-H ) :   0.1038 B( 15-O , 22-H ) :   0.5142 B( 16-O , 18-H ) :  -0.0534 
B( 16-O , 23-H ) :   0.5205 B( 17-H , 18-H ) :  -0.0635 


                     *******************************
                     * LOEWDIN POPULATION ANALYSIS *
                     *******************************

----------------------
LOEWDIN ATOMIC CHARGES
----------------------
   0 C :   -0.144688
   1 C :   -0.076185
   2 H :    0.103331
   3 C :   -0.079108
   4 H :    0.116790
   5 C :   -0.065674
   6 H :    0.118918
   7 C :   -0.083100
   8 H :    0.120012
   9 C :   -0.012401
  10 H :    0.104765
  11 O :   -0.144187
  12 O :   -0.308989
  13 O :   -0.316464
  14 O :   -0.315608
  15 O :   -0.313116
  16 O :   -0.328683
  17 H :    0.095288
  18 H :    0.112947
  19 H :    0.293388
  20 H :    0.274015
  21 H :    0.274466
  22 H :    0.291203
  23 H :    0.283079

-------------------------------
LOEWDIN REDUCED ORBITAL CHARGES
-------------------------------
  0 C s       :     2.926396  s :     2.926396
      pz      :     1.113661  p :     3.075385
      px      :     0.892358
      py      :     1.069366
      dz2     :     0.027493  d :     0.142908
      dxz     :     0.037407
      dyz     :     0.007691
      dx2y2   :     0.040903
      dxy     :     0.029415

  1 C s       :     2.907484  s :     2.907484
      pz      :     1.080005  p :     3.016507
      px      :     0.918339
      py      :     1.018164
      dz2     :     0.024862  d :     0.152194
      dxz     :     0.041535
      dyz     :     0.015112
      dx2y2   :     0.033799
      dxy     :     0.036885

  2 H s       :     0.896669  s :     0.896669

  3 C s       :     2.898023  s :     2.898023
      pz      :     0.900052  p :     3.027152
      px      :     1.103491
      py      :     1.023610
      dz2     :     0.035585  d :     0.153932
      dxz     :     0.034248
      dyz     :     0.035983
      dx2y2   :     0.029628
      dxy     :     0.018488

  4 H s       :     0.883210  s :     0.883210

  5 C s       :     2.889019  s :     2.889019
      pz      :     0.873678  p :     3.017143
      px      :     1.050869
      py      :     1.092596
      dz2     :     0.047082  d :     0.159512
      dxz     :     0.047349
      dyz     :     0.022922
      dx2y2   :     0.025015
      dxy     :     0.017144

  6 H s       :     0.881082  s :     0.881082

  7 C s       :     2.891162  s :     2.891162
      pz      :     0.927705  p :     3.031308
      px      :     1.061989
      py      :     1.041614
      dz2     :     0.037837  d :     0.160630
      dxz     :     0.042363
      dyz     :     0.029159
      dx2y2   :     0.027714
      dxy     :     0.023556

  8 H s       :     0.879988  s :     0.879988

  9 C s       :     2.890425  s :     2.890425
      pz      :     0.878691  p :     2.898364
      px      :     0.939765
      py      :     1.079908
      dz2     :     0.059029  d :     0.223612
      dxz     :     0.065107
      dyz     :     0.033825
      dx2y2   :     0.032118
      dxy     :     0.033534

 10 H s       :     0.895235  s :     0.895235

 11 O s       :     3.469458  s :     3.469458
      pz      :     1.685181  p :     4.645062
      px      :     1.289854
      py      :     1.670027
      dz2     :     0.003314  d :     0.029667
      dxz     :     0.009155
      dyz     :     0.002837
      dx2y2   :     0.006042
      dxy     :     0.008319

 12 O s       :     3.528011  s :     3.528011
      pz      :     1.515422  p :     4.754695
      px      :     1.863791
      py      :     1.375482
      dz2     :     0.010922  d :     0.026283
      dxz     :     0.002573
      dyz     :     0.003977
      dx2y2   :     0.008004
      dxy     :     0.000808

 13 O s       :     3.525201  s :     3.525201
      pz      :     1.359861  p :     4.764480
      px      :     1.594233
      py      :     1.810386
      dz2     :     0.004653  d :     0.026783
      dxz     :     0.011712
      dyz     :     0.003289
      dx2y2   :     0.004387
      dxy     :     0.002743

 14 O s       :     3.525202  s :     3.525202
      pz      :     1.411569  p :     4.763592
      px      :     1.847900
      py      :     1.504123
      dz2     :     0.010830  d :     0.026814
      dxz     :     0.003541
      dyz     :     0.003824
      dx2y2   :     0.006315
      dxy     :     0.002306

 15 O s       :     3.529051  s :     3.529051
      pz      :     1.424743  p :     4.757768
      px      :     1.528748
      py      :     1.804278
      dz2     :     0.004723  d :     0.026297
      dxz     :     0.009199
      dyz     :     0.004355
      dx2y2   :     0.006304
      dxy     :     0.001715

 16 O s       :     3.542344  s :     3.542344
      pz      :     1.632323  p :     4.759101
      px      :     1.348844
      py      :     1.777934
      dz2     :     0.004419  d :     0.027239
      dxz     :     0.008317
      dyz     :     0.004099
      dx2y2   :     0.003732
      dxy     :     0.006673

 17 H s       :     0.904712  s :     0.904712

 18 H s       :     0.887053  s :     0.887053

 19 H s       :     0.706612  s :     0.706612

 20 H s       :     0.725985  s :     0.725985

 21 H s       :     0.725534  s :     0.725534

 22 H s       :     0.708797  s :     0.708797

 23 H s       :     0.716921  s :     0.716921


---------------------------------
LOEWDIN BOND ORDERS (THRESH 0.050000)
---------------------------------
B(  0-C ,  1-C ) :   1.0485 B(  0-C ,  3-C ) :   0.0572 B(  0-C , 11-O ) :   0.0683 
B(  0-C , 16-O ) :   1.2376 B(  0-C , 17-H ) :   0.9068 B(  0-C , 18-H ) :   0.9010 
B(  1-C ,  2-H ) :   0.8741 B(  1-C ,  3-C ) :   1.0306 B(  1-C ,  9-C ) :   0.0605 
B(  1-C , 11-O ) :   1.1347 B(  1-C , 15-O ) :   0.0762 B(  1-C , 16-O ) :   0.0879 
B(  3-C ,  4-H ) :   0.8646 B(  3-C ,  5-C ) :   1.0080 B(  3-C ,  7-C ) :   0.0542 
B(  3-C , 11-O ) :   0.0529 B(  3-C , 14-O ) :   0.0784 B(  3-C , 15-O ) :   1.1876 
B(  5-C ,  6-H ) :   0.8695 B(  5-C ,  7-C ) :   1.0254 B(  5-C ,  9-C ) :   0.0563 
B(  5-C , 13-O ) :   0.0754 B(  5-C , 14-O ) :   1.2346 B(  5-C , 15-O ) :   0.0622 
B(  7-C ,  8-H ) :   0.8698 B(  7-C ,  9-C ) :   1.0094 B(  7-C , 11-O ) :   0.0581 
B(  7-C , 12-O ) :   0.0605 B(  7-C , 13-O ) :   1.2438 B(  7-C , 14-O ) :   0.0725 
B(  9-C , 10-H ) :   0.8836 B(  9-C , 11-O ) :   1.2067 B(  9-C , 12-O ) :   1.2313 
B(  9-C , 13-O ) :   0.0886 B( 11-O , 12-O ) :   0.0950 B( 12-O , 19-H ) :   0.8687 
B( 12-O , 21-H ) :   0.0744 B( 13-O , 20-H ) :   0.8532 B( 14-O , 21-H ) :   0.8528 
B( 15-O , 20-H ) :   0.0802 B( 15-O , 22-H ) :   0.8782 B( 16-O , 23-H ) :   0.8899 


------------------------------------------
LOEWDIN REDUCED ORBITAL POPULATIONS PER MO
-------------------------------------------
THRESHOLD FOR PRINTING IS 0.1%%
                      0         1         2         3         4         5   
                 -18.78556 -18.77182 -18.77167 -18.75855 -18.74319 -18.73744
                   2.00000   2.00000   2.00000   2.00000   2.00000   2.00000
                  --------  --------  --------  --------  --------  --------
11 O  s               0.0       7.7      92.2       0.0       0.0       0.0
12 O  s              99.9       0.0       0.0       0.0       0.0       0.0
13 O  s               0.0       0.0       0.0       0.0       0.0      99.9
14 O  s               0.0       0.0       0.0       0.0      99.9       0.0
15 O  s               0.0      92.2       7.7       0.0       0.0       0.0
16 O  s               0.0       0.0       0.0      99.9       0.0       0.0

                      6         7         8         9        10        11   
                  -9.98817  -9.94925  -9.94511  -9.93886  -9.93749  -9.93571
                   2.00000   2.00000   2.00000   2.00000   2.00000   2.00000
                  --------  --------  --------  --------  --------  --------
 0 C  s               0.0       0.0       0.0       0.0       0.0      99.6
 1 C  s               0.0      99.6       0.0       0.0       0.0       0.0
 1 C  py              0.0       0.0       0.1       0.0       0.0       0.0
 3 C  s               0.0       0.0      99.6       0.0       0.0       0.0
 3 C  py              0.0       0.1       0.0       0.0       0.0       0.0
 5 C  s               0.0       0.0       0.0      99.5       0.0       0.0
 7 C  s               0.0       0.0       0.0       0.0      99.5       0.0
 9 C  s              99.6       0.0       0.0       0.0       0.0       0.0
12 O  pz              0.1       0.0       0.0       0.0       0.0       0.0
14 O  pz              0.0       0.0       0.0       0.1       0.0       0.0

                     12        13        14        15        16        17   
                  -0.99017  -0.94919  -0.93453  -0.92443  -0.92215  -0.91187
                   2.00000   2.00000   2.00000   2.00000   2.00000   2.00000
                  --------  --------  --------  --------  --------  --------
 0 C  s               0.4       0.4       9.7       0.2       0.1       0.0
 0 C  pz              0.2       0.0       0.1       0.2       0.1       0.1
 0 C  px              0.1       0.1       6.4       0.9       0.4       0.3
 0 C  py              0.0       0.1       1.1       0.1       0.0       0.0
 0 C  dz2             0.0       0.0       0.2       0.0       0.0       0.0
 0 C  dx2y2           0.0       0.0       0.3       0.0       0.0       0.0
 0 C  dxy             0.0       0.0       0.3       0.0       0.0       0.0
 1 C  s               3.7       1.1       1.4       1.9       0.8       0.9
 1 C  pz              0.0       0.0       0.4       0.4       0.1       0.0
 1 C  px              2.4       0.0       0.3       1.9       1.1       0.5
 1 C  py              0.6       0.9       0.4       0.8       0.7       0.1
 1 C  dxy             0.1       0.0       0.0       0.2       0.1       0.0
 2 H  s               0.5       0.3       0.3       0.3       0.1       0.1
 3 C  s               1.0       9.2       0.1       0.0       0.4       0.3
 3 C  pz              0.1       4.9       0.2       0.7       2.1       0.1
 3 C  px              0.1       0.2       0.1       0.3       0.2       0.0
 3 C  py              0.2       1.0       0.5       0.3       0.8       0.1
 3 C  dz2             0.0       0.3       0.0       0.0       0.1       0.0
 3 C  dyz             0.0       0.3       0.0       0.0       0.1       0.0
 4 H  s               0.1       1.1       0.0       0.0       0.0       0.1
 5 C  s               0.8       1.8       0.2       5.8       2.6       1.0
 5 C  pz              0.0       0.3       0.0       4.7       1.2       3.8
 5 C  px              0.0       0.4       0.0       0.0       0.2       0.9
 5 C  py              0.3       0.0       0.0       0.3       0.3       0.0
 5 C  dz2             0.0       0.0       0.0       0.4       0.1       0.2
 6 H  s               0.1       0.4       0.0       0.7       0.3       0.1
 7 C  s               2.1       0.5       0.2       1.0       3.6       5.3
 7 C  pz              0.0       0.3       0.0       0.2       1.5       6.7
 7 C  px              0.4       0.1       0.0       0.1       0.0       1.1
 7 C  py              1.0       0.5       0.0       0.4       0.5       0.4
 7 C  dz2             0.0       0.0       0.0       0.0       0.1       0.4
 7 C  dyz             0.0       0.0       0.0       0.0       0.0       0.2
 8 H  s               0.3       0.0       0.0       0.2       0.4       0.6
 9 C  s              15.3       0.6       0.0       0.1       0.0       0.1
 9 C  pz              0.9       1.3       0.6       3.7       5.2       0.5
 9 C  px              2.9       0.0       0.2       2.0       0.6       1.1
 9 C  py              0.4       0.5       0.0       0.0       1.5       0.3
 9 C  dz2             0.2       0.1       0.0       0.1       0.3       0.0
 9 C  dxz             0.1       0.0       0.0       0.2       0.1       0.1
 9 C  dyz             0.1       0.0       0.0       0.1       0.1       0.0
 9 C  dx2y2           0.1       0.0       0.0       0.2       0.1       0.1
10 H  s               1.8       0.1       0.0       0.0       0.0       0.1
11 O  s              22.5       0.1       1.7      17.0       9.0       4.6
11 O  pz              1.2       0.0       0.0       0.3       0.1       0.1
11 O  px              0.2       0.1       0.1       0.0       0.0       0.1
11 O  py              0.4       0.0       0.1       0.4       0.3       0.1
12 O  s              26.7       7.7       1.9       6.5      16.4       2.0
12 O  pz              1.9       0.2       0.0       0.1       0.3       0.0
12 O  py              0.2       0.1       0.0       0.1       0.5       0.0
13 O  s               1.0       1.9       0.4       1.2      13.3      39.5
13 O  pz              0.1       0.0       0.0       0.0       0.2       0.3
13 O  px              0.1       0.1       0.0       0.1       0.7       1.9
14 O  s               0.8       1.4       0.5      30.8      10.3      13.6
14 O  pz              0.1       0.1       0.0       1.0       0.4       0.3
14 O  px              0.0       0.0       0.0       0.2       0.1       0.1
14 O  py              0.0       0.0       0.0       0.7       0.2       0.3
15 O  s               1.1      45.3       2.3       0.1      10.4       0.0
15 O  pz              0.0       0.5       0.0       0.0       0.0       0.0
15 O  px              0.0       1.6       0.1       0.0       0.5       0.0
15 O  py              0.0       0.4       0.0       0.0       0.0       0.0
16 O  s               0.2       1.0      52.1       3.6       1.6       0.7
16 O  pz              0.0       0.0       1.4       0.1       0.0       0.0
16 O  px              0.0       0.0       0.5       0.0       0.0       0.0
16 O  py              0.0       0.0       1.3       0.1       0.0       0.0
17 H  s               0.1       0.0       1.2       0.0       0.0       0.0
18 H  s               0.1       0.0       1.1       0.1       0.0       0.0
19 H  s               5.2       1.5       0.4       1.2       3.4       0.4
20 H  s               0.3       1.1       0.1       0.2       2.2       7.6
21 H  s               0.6       0.1       0.2       7.0       1.5       2.4
22 H  s               0.2       9.0       0.5       0.0       2.2       0.0
23 H  s               0.0       0.2      10.7       0.7       0.3       0.2

                     18        19        20        21        22        23   
                  -0.70464  -0.68618  -0.62708  -0.58650  -0.57788  -0.52550
                   2.00000   2.00000   2.00000   2.00000   2.00000   2.00000
                  --------  --------  --------  --------  --------  --------
 0 C  s               6.3       0.9      13.8       3.6       6.5       0.0
 0 C  pz              1.4       0.2       0.0       1.7       1.7       0.4
 0 C  px              2.6       0.3       1.1       0.0       0.0       0.2
 0 C  py              0.3       0.0       0.1       0.1       1.3       0.3
 1 C  s              18.5       1.5       1.3       2.2       3.1       0.1
 1 C  pz              0.8       0.2       2.2       4.5       1.4       0.0
 1 C  px              0.6       0.2       2.8       0.6       0.0       0.1
 1 C  py              1.2       2.2       1.1       2.2       5.8       1.6
 1 C  dz2             0.0       0.0       0.1       0.0       0.0       0.0
 1 C  dxy             0.1       0.1       0.0       0.1       0.0       0.0
 2 H  s               3.7       0.6       0.3       2.0       1.8       0.0
 3 C  s              11.5       3.3       3.7       4.0       3.7       1.2
 3 C  pz              1.0       1.1       0.3       0.9       0.6       0.2
 3 C  px              0.0       2.1       1.5       0.1       3.8       1.4
 3 C  py              3.4       0.2       0.8       0.8       2.7       0.0
 3 C  dz2             0.1       0.0       0.0       0.0       0.0       0.0
 4 H  s               2.4       0.5       0.7       2.2       1.3       0.9
 5 C  s               2.6      10.2       3.5       0.2       8.1       1.5
 5 C  pz              1.5       3.3       0.5       0.0       0.0       0.2
 5 C  px              1.4       0.3       2.0       6.2       1.7       0.0
 5 C  py              0.0       0.6       1.2       0.5       1.6       0.2
 5 C  dz2             0.0       0.1       0.0       0.0       0.0       0.0
 6 H  s               0.5       2.0       1.4       0.0       4.2       0.8
 7 C  s               0.0      12.9       3.5       7.3       0.3       3.1
 7 C  pz              0.1       2.2       0.3       1.8       0.3       1.3
 7 C  px              0.2       2.2       0.7       0.4       0.5       3.7
 7 C  py              1.2       0.6       3.4       0.7       5.3       0.0
 7 C  dz2             0.0       0.2       0.0       0.0       0.0       0.0
 8 H  s               0.0       2.6       1.5       3.6       0.0       1.7
 9 C  s               3.7       7.5       4.1       3.2       2.4       0.3
 9 C  pz              1.4       0.0       0.3       2.0       0.4      10.5
 9 C  px              0.3       0.8       1.7       0.7       1.3       0.5
 9 C  py              0.2       3.5       1.4       3.9       0.2       0.0
 9 C  dz2             0.0       0.0       0.0       0.0       0.0       0.3
10 H  s               1.1       1.4       1.0       1.9       0.8       0.7
11 O  s               2.2       1.1       1.7       0.1       1.2       0.3
11 O  pz              0.1       0.2       0.3       0.8       0.0       0.7
11 O  px              7.6       3.9       0.1      14.4       0.0       2.8
11 O  py              0.9       0.0       0.0       1.4       0.7       0.1
12 O  s               0.7       1.4       0.7       0.5       0.1       0.0
12 O  pz              0.6       1.6       1.5       1.6       1.6       7.7
12 O  px              0.0       0.1       0.1       0.0       0.3       0.1
12 O  py              0.3       2.6       4.3       0.0       4.3      19.4
12 O  dz2             0.0       0.0       0.0       0.0       0.0       0.2
13 O  s               0.0       5.2       0.3       0.8       0.2       0.4
13 O  pz              0.0       2.6       1.1       4.4       0.3      11.7
13 O  px              0.0       0.1       0.2       0.3       0.0       1.4
13 O  py              0.0       0.4       0.5       0.2       0.2       2.4
14 O  s               1.3       4.1       0.1       0.1       0.8       0.4
14 O  pz              0.4       1.8       1.0       0.0       4.1       2.5
14 O  px              0.0       0.0       0.1       0.4       0.0       0.0
14 O  py              0.2       0.7       0.9       0.0       2.9       1.1
15 O  s               3.1       0.6       0.7       0.2       0.8       0.2
15 O  pz              2.3       1.4       3.2       3.0       1.4       1.6
15 O  px              0.5       0.3       1.2       0.6       0.0       0.2
15 O  py              0.6       0.1       0.3       0.2       1.2       0.3
16 O  s               2.2       0.2       2.1       0.3       0.3       0.0
16 O  pz              0.1       0.0       0.8       1.0       1.3       0.3
16 O  px              1.6       0.2       6.4       4.1       4.4       0.7
16 O  py              0.0       0.0       0.1       0.0       0.2       0.0
17 H  s               1.1       0.3       3.5       0.7       3.0       0.0
18 H  s               1.4       0.3       4.1       2.1       2.4       0.1
19 H  s               0.4       1.6       2.0       0.2       1.8       7.6
20 H  s               0.0       2.1       0.6       1.5       0.0       4.7
21 H  s               0.4       1.6       0.7       0.0       2.2       0.8
22 H  s               1.8       0.7       1.7       1.1       0.5       0.2
23 H  s               1.1       0.1       2.6       1.6       1.7       0.3

                     24        25        26        27        28        29   
                  -0.51593  -0.48919  -0.47273  -0.46880  -0.44263  -0.41972
                   2.00000   2.00000   2.00000   2.00000   2.00000   2.00000
                  --------  --------  --------  --------  --------  --------
 0 C  s               0.3       0.5       0.3       0.8       0.2       0.0
 0 C  pz              3.2       1.4       3.0       1.7       3.1       0.2
 0 C  px              0.1       0.1       0.6       9.2       0.3       0.5
 0 C  py              0.5       4.3       1.3       6.8       2.5       0.5
 0 C  dx2y2           0.0       0.0       0.0       0.1       0.0       0.0
 0 C  dxy             0.0       0.0       0.1       0.3       0.0       0.0
 1 C  s               1.9       0.1       1.2       0.2       0.3       0.5
 1 C  pz              0.1       3.1       0.1       8.7       0.1       0.8
 1 C  px              4.0       1.8       2.4       0.0       8.3       0.7
 1 C  py              0.3       5.7       0.2       1.0       0.8       2.5
 1 C  dyz             0.0       0.0       0.1       0.1       0.0       0.1
 1 C  dxy             0.0       0.0       0.3       0.0       0.0       0.1
 2 H  s               2.4       1.8       1.8       1.8       2.2       0.2
 3 C  s               0.1       0.1       1.3       0.4       0.1       0.8
 3 C  pz              3.1       4.3       1.9       1.8       1.4       7.4
 3 C  px              4.7       0.7       3.7       0.1       1.7       1.6
 3 C  py              0.6       5.8       3.7       1.0       0.0       7.1
 3 C  dz2             0.0       0.1       0.0       0.0       0.0       0.1
 3 C  dyz             0.1       0.1       0.0       0.0       0.0       0.1
 3 C  dx2y2           0.0       0.0       0.0       0.0       0.0       0.2
 4 H  s               1.1       0.4       5.3       1.0       0.0       7.4
 5 C  s               1.2       0.0       0.3       0.1       0.2       0.5
 5 C  pz              5.6       0.1       0.9       0.5       1.3       4.5
 5 C  px              0.3       0.0       1.6       0.6       9.9       0.0
 5 C  py              2.4       6.1       1.6       0.0       0.6       0.0
 5 C  dz2             0.0       0.1       0.0       0.0       0.1       0.5
 6 H  s               1.0       1.2       0.0       0.0       1.6       0.5
 7 C  s               0.2       0.0       0.0       0.0       0.0       0.2
 7 C  pz              0.2       0.1       0.2       0.4       1.8       2.5
 7 C  px              1.2       3.8       9.4       0.5       0.0       0.7
 7 C  py              0.0       0.0       0.4       0.5      13.7       0.1
 7 C  dyz             0.0       0.0       0.1       0.0       0.0       0.0
 8 H  s               0.0       0.4       1.4       0.0       0.4       0.3
 9 C  s               1.3       0.7       1.1       0.2       0.3       0.1
 9 C  pz              1.6       0.2       5.7       0.1       0.3       0.4
 9 C  px              1.6       5.8       0.5       2.4       7.9       4.6
 9 C  py              3.0       3.5       0.1       0.0       5.4       0.0
 9 C  dz2             0.0       0.0       0.2       0.0       0.1       0.0
 9 C  dyz             0.0       0.0       0.0       0.0       0.0       0.1
10 H  s               3.4       3.4       2.5       0.7       1.1       1.6
11 O  s               0.1       0.2       1.9       0.1       0.1       1.7
11 O  pz              0.0       1.2       0.0       4.2       1.0       5.7
11 O  px              0.9       2.1       3.6       0.4       5.8       1.4
11 O  py              0.7       1.8       0.3       1.0       5.1       2.2
12 O  s               0.4       0.2       0.5       0.0       0.0       0.1
12 O  pz              1.1       2.4       1.3       0.0       1.8       2.0
12 O  px              0.4       1.6       0.0       1.5       1.3       2.0
12 O  py              2.3       0.1       7.5       0.1       0.8       0.1
13 O  s               0.3       0.0       1.2       0.1       0.0       0.1
13 O  pz              0.0       0.6       5.3       2.4       0.7       5.4
13 O  px              0.5       0.5       4.8       0.6       0.0       1.3
13 O  py              0.1       0.1       0.3       0.1       2.8       0.9
14 O  s               0.0       0.8       0.0       0.0       0.1       0.9
14 O  pz              7.4       0.1       0.1       0.6       2.4       3.5
14 O  px              0.2       0.0       0.4       0.1       2.4       0.1
14 O  py              9.6       1.5       0.7       1.0       1.8       8.4
14 O  dz2             0.1       0.0       0.0       0.0       0.0       0.0
15 O  s               0.3       0.2       0.3       0.0       0.1       0.8
15 O  pz              7.7      13.5       0.8       0.0       0.3       0.5
15 O  px              6.7       5.5       2.8       0.5       0.1       2.9
15 O  py              1.2       0.9       0.6       0.9       0.2       4.9
16 O  s               0.1       0.4       0.6       1.0       0.0       0.1
16 O  pz              1.1       0.5       2.9       8.6       0.4       0.0
16 O  px              0.5       0.1       1.8      19.3       1.6       0.1
16 O  py              0.1       0.8       0.4       0.7       0.4       0.1
17 H  s               0.3       2.4       0.9       4.6       1.2       0.3
18 H  s               1.1       0.3       0.2       0.3       1.1       0.2
19 H  s               0.2       0.2       2.6       0.0       0.5       0.0
20 H  s               0.2       0.2       2.8       1.0       0.0       1.6
21 H  s               5.6       0.2       0.1       0.4       1.3       3.5
22 H  s               4.4       5.5       0.1       0.1       0.0       1.4
23 H  s               0.3       0.2       1.3       8.2       0.2       0.0

                     30        31        32        33        34        35   
                  -0.41415  -0.40296  -0.39421  -0.37795  -0.36452  -0.35586
                   2.00000   2.00000   2.00000   2.00000   2.00000   2.00000
                  --------  --------  --------  --------  --------  --------
 0 C  s               0.2       0.0       0.1       0.2       0.0       0.1
 0 C  pz              0.0       3.3      10.6       6.2       0.1       2.1
 0 C  px              0.6       7.6       0.6       6.1       0.1       3.3
 0 C  py              4.9       4.0      11.7       1.0       0.1       1.3
 0 C  dz2             0.0       0.1       0.0       0.2       0.0       0.2
 1 C  s               0.6       0.1       0.1       0.2       0.1       0.2
 1 C  pz              0.9       4.5       6.3       0.5       0.4       1.7
 1 C  px              0.5       2.3       3.2       0.3       1.6       3.4
 1 C  py              0.6       0.1       5.2       0.5       1.0       3.3
 1 C  dz2             0.0       0.0       0.0       0.1       0.1       0.2
 1 C  dx2y2           0.0       0.1       0.1       0.0       0.0       0.0
 1 C  dxy             0.0       0.1       0.0       0.0       0.1       0.0
 2 H  s               0.1       3.0       0.3       0.9       0.9       3.0
 3 C  s               0.3       0.0       0.7       0.4       0.0       0.3
 3 C  pz              2.5       0.3       0.6       1.0       0.8       0.4
 3 C  px              8.2       0.3       0.0       1.1       4.2       0.6
 3 C  py              0.5       0.7       4.7       0.0       2.0       3.4
 3 C  dxz             0.0       0.1       0.1       0.0       0.0       0.0
 3 C  dyz             0.0       0.1       0.2       0.0       0.0       0.1
 4 H  s               1.6       0.0       0.2       0.0       1.8       0.3
 5 C  s               0.6       0.1       0.4       0.1       0.2       0.1
 5 C  pz              7.3       0.5       0.4       0.1       0.2       0.8
 5 C  px              1.7       2.2       0.5       2.1       4.1       0.1
 5 C  py              1.1       0.2       0.3      15.6       2.3       9.2
 5 C  dz2             0.0       0.0       0.0       0.0       0.0       0.2
 5 C  dxz             0.0       0.0       0.0       0.0       0.0       0.1
 5 C  dx2y2           0.0       0.0       0.0       0.2       0.1       0.0
 5 C  dxy             0.1       0.0       0.0       0.0       0.1       0.1
 6 H  s               1.5       0.1       0.0       9.6       1.3       5.1
 7 C  s               0.6       0.2       0.2       0.2       0.5       0.4
 7 C  pz              7.1      11.0       0.0       1.2       0.4       2.1
 7 C  px              0.2       3.8       0.1       0.1       3.3       6.7
 7 C  py              1.2       0.5       4.5       0.3       0.4       0.2
 7 C  dxz             0.1       0.2       0.0       0.0       0.0       0.2
 7 C  dx2y2           0.0       0.0       0.0       0.2       0.1       0.0
 8 H  s               3.0       7.3       0.2       0.8       0.9       4.6
 9 C  s               0.2       0.0       0.0       0.1       0.7       0.0
 9 C  pz              0.2       0.0       0.3       1.1       0.6       0.2
 9 C  px              2.0       2.7       0.2       0.1       0.0       0.3
 9 C  py              4.7       3.8       5.7       1.9       1.3       0.1
 9 C  dz2             0.0       0.1       0.1       0.1       0.3       0.0
 9 C  dxz             0.1       0.0       0.0       0.0       0.1       0.1
 9 C  dyz             0.1       0.1       0.0       0.0       0.2       0.0
 9 C  dx2y2           0.0       0.0       0.0       0.0       0.1       0.2
10 H  s               2.8       2.3       0.8       0.0       0.2       0.0
11 O  s               0.4       0.1       0.0       0.0       1.5       0.1
11 O  pz              0.2       0.2       1.7       1.7       8.2       1.0
11 O  px              2.4       1.5       0.0       1.6       3.0       0.8
11 O  py              0.0       0.7       0.0       1.4       5.2       6.0
12 O  s               0.4       1.4       0.3       2.4       2.8       0.2
12 O  pz              4.4       1.1       4.9       8.7       8.7       1.4
12 O  px              0.5       0.9       0.3       0.0       0.2       1.2
12 O  py              0.3       3.0       0.1       5.7       8.7       0.1
13 O  s               0.2       0.0       0.0       0.2       0.5       0.1
13 O  pz              7.1       5.1       0.7       0.0       0.2       1.7
13 O  px              0.0       0.2       0.1       0.7       4.5       3.0
13 O  py              0.4       3.2       0.5       0.2       0.0       0.8
14 O  s               0.1       0.1       0.0       0.1       1.6       0.4
14 O  pz              5.4       0.1       0.1       2.7       6.4       7.6
14 O  px              1.1       0.7       0.1       0.2       0.7       0.0
14 O  py              2.3       0.1       0.6       2.1       2.4       1.1
15 O  s               0.6       0.3       2.1       0.2       1.2       0.1
15 O  pz              4.6       0.1       1.3       0.0       2.9       3.4
15 O  px              1.9       1.1       6.1       0.2       6.2       1.0
15 O  py              2.1       0.2       3.7       0.1       0.1       0.0
16 O  s               0.4       0.8       0.0       0.2       0.2       0.7
16 O  pz              0.2       0.4       2.4       0.3       0.5       1.3
16 O  px              0.0       3.9       2.1       5.2       0.1       2.1
16 O  py              1.6       3.7       4.3       2.4       0.0       5.8
17 H  s               3.0       1.7       5.9       0.4       0.0       0.7
18 H  s               0.1       4.0       1.6       8.0       0.6       3.4
19 H  s               0.1       0.4       0.1       0.7       1.6       0.0
20 H  s               1.4       1.8       0.3       0.0       0.4       0.4
21 H  s               1.2       0.0       0.1       0.8       0.3       0.3
22 H  s               0.4       0.4       1.3       0.0       0.1       0.1
23 H  s               0.1       0.3       0.1       0.6       0.2       0.1

                     36        37        38        39        40        41   
                  -0.33460  -0.32696  -0.30149  -0.29553  -0.27986  -0.27381
                   2.00000   2.00000   2.00000   2.00000   2.00000   2.00000
                  --------  --------  --------  --------  --------  --------
 0 C  s               0.2       0.1       0.3       0.3       0.2       0.2
 0 C  pz              3.1       0.0       0.1       3.8       0.1       0.4
 0 C  px              0.0       0.0       0.3       0.1       0.7       0.3
 0 C  py              0.7       0.0       3.4       3.1       0.2       0.3
 0 C  dxz             0.0       0.0       0.2       0.6       0.0       0.0
 0 C  dx2y2           0.0       0.0       0.0       0.1       0.1       0.2
 1 C  s               0.1       0.3       0.8       0.1       0.1       0.2
 1 C  pz              8.1       1.0       0.1       1.0       0.0       0.8
 1 C  px              2.2       0.1       0.4       0.3       0.7       0.3
 1 C  py              0.0       1.1       0.1       0.5       0.1       0.9
 1 C  dxz             0.4       0.2       0.0       0.0       0.0       0.1
 1 C  dx2y2           0.0       0.1       0.0       0.2       0.2       0.1
 2 H  s               8.5       2.3       0.1       0.1       0.7       1.1
 3 C  s               0.1       0.2       0.1       0.3       0.2       0.2
 3 C  pz              3.0       0.4       0.7       0.1       0.0       0.0
 3 C  px              0.1       3.3       5.0       1.2       0.5       0.2
 3 C  py              0.4       0.8       0.1       0.8       0.4       0.9
 3 C  dz2             0.0       0.0       0.1       0.0       0.0       0.0
 3 C  dxz             0.0       0.3       0.3       0.1       0.0       0.0
 3 C  dyz             0.2       0.0       0.0       0.0       0.1       0.0
 4 H  s               0.8       2.8       3.5       0.5       0.2       0.1
 5 C  s               0.3       1.5       0.1       0.0       0.0       0.2
 5 C  pz              0.4       0.1       2.5       0.7       0.4       0.0
 5 C  px              2.5       0.7       2.1       0.9       0.0       0.8
 5 C  py              0.2       0.3       0.0       0.0       2.6       0.3
 5 C  dxz             0.0       0.2       0.0       0.0       0.0       0.2
 5 C  dyz             0.0       0.1       0.1       0.1       0.0       0.0
 5 C  dx2y2           0.0       0.1       0.0       0.0       0.1       0.1
 6 H  s               0.1       1.6       0.1       0.1       1.9       0.9
[...]
 3 C  dz2             0.1       0.8       3.3       1.9       0.5       0.0
 3 C  dxz             0.0       0.1       0.0       0.5       0.5       0.0
 3 C  dyz             0.1       0.4       2.1       1.8       1.4       0.0
 3 C  dx2y2           0.0       0.1       0.4       0.1       0.1       0.1
 3 C  dxy             0.0       0.0       0.0       0.0       0.3       0.0
 5 C  s               0.1       0.0       1.3       0.1       1.0       0.0
 5 C  pz              0.0       0.0       1.1       0.3       2.4       0.0
 5 C  dz2             0.2       0.0       5.6       0.4       5.3       0.0
 5 C  dxz             0.0       0.3       0.0       1.0       0.3       0.1
 5 C  dyz             0.0       0.0       0.1       0.0       0.8       0.0
 6 H  s               0.0       0.0       0.1       0.0       0.1       0.0
 7 C  s               0.0       0.3       0.4       1.2       0.6       0.0
 7 C  pz              0.0       0.2       0.3       1.4       1.1       0.1
 7 C  px              0.0       0.1       0.1       0.2       0.2       0.0
 7 C  py              0.0       0.0       0.1       0.2       0.1       0.1
 7 C  dz2             0.0       0.1       0.9       3.4       1.8       0.1
 7 C  dxz             0.1       0.3       1.5       1.2       0.5       0.0
 7 C  dyz             0.0       1.6       0.1       0.5       2.0       0.0
 7 C  dx2y2           0.0       0.1       0.0       0.1       0.1       0.0
 7 C  dxy             0.0       0.1       0.0       0.1       0.1       0.1
 9 C  s               0.3       1.0       0.1       0.7       0.0       1.6
 9 C  pz              0.0       2.7       0.0       0.7       0.0       0.6
 9 C  px              0.1       0.1       0.0       0.1       0.0       2.0
 9 C  py              0.0       0.2       0.0       0.2       0.0       0.1
 9 C  dz2             0.2       4.6       0.0       2.9       0.3       0.3
 9 C  dxz             0.0       0.9       0.0       0.0       0.3       3.2
 9 C  dyz             0.3       4.7       0.1       0.3       0.2       0.0
 9 C  dx2y2           0.2       0.2       0.0       0.0       0.0       2.6
11 O  s               0.0       0.6       0.1       0.0       0.0       0.0
11 O  pz              0.0       0.1       0.0       0.0       0.0       0.2
11 O  px              0.3       0.0       0.0       0.1       0.0       6.2
11 O  py              0.1       0.0       0.0       0.0       0.0       0.4
11 O  dz2             0.7       0.1       0.4       0.1       0.3       2.8
11 O  dxz             0.3       1.9       0.0       0.0       0.1      33.4
11 O  dyz             0.0       0.1       0.0       0.0       0.0       0.3
11 O  dx2y2           0.7       2.0       0.0       0.3       1.3       2.6
11 O  dxy             3.9       2.0       0.0       0.7       0.5      24.0
12 O  s               0.2       2.6       0.0       1.5       0.1       0.0
12 O  pz              0.1       2.4       0.1       0.6       0.0       0.0
12 O  py              0.0       0.9       0.0       0.5       0.0       0.0
12 O  dz2             1.4      35.5       0.4       6.7       0.0       0.2
12 O  dxz             0.0       0.2       0.0       0.2       0.2       0.0
12 O  dyz             0.7       9.6       0.1       5.8       0.6       0.0
12 O  dx2y2           0.0       0.0       0.0       0.1       0.2       0.1
12 O  dxy             0.0       0.0       0.0       0.1       0.1       0.0
13 O  s               0.0       0.1       0.4       2.3       1.8       0.1
13 O  pz              0.0       0.4       0.7       1.7       1.3       0.0
13 O  py              0.0       0.0       0.2       0.3       0.1       0.0
13 O  dz2             0.2       5.1       4.9       9.4       9.2       0.0
13 O  dxz             0.0       2.0       1.8       9.0       7.6       0.0
13 O  dyz             0.0       0.0       3.2       7.4       2.4       0.2
13 O  dx2y2           0.0       0.0       0.2       0.1       0.2       0.1
13 O  dxy             0.0       0.0       0.6       1.9       0.3       0.2
14 O  s               0.0       0.0       1.2       0.2       3.1       0.0
14 O  pz              0.1       0.0       1.6       0.2       2.3       0.0
14 O  py              0.0       0.0       0.4       0.1       0.2       0.0
14 O  dz2             1.1       0.2      23.4       4.1      29.7       0.0
14 O  dxz             0.1       0.2       2.2       0.3       1.8       0.1
14 O  dyz             0.1       0.1       1.4       0.2       0.3       0.0
14 O  dx2y2           0.0       0.0       0.1       0.1       0.1       0.0
14 O  dxy             0.0       0.0       0.4       0.1       0.0       0.0
15 O  s               0.0       0.6       1.9       2.0       1.3       0.1
15 O  pz              0.0       0.5       1.7       1.1       0.8       0.0
15 O  px              0.0       0.1       0.0       0.1       0.0       0.0
15 O  py              0.0       0.1       0.4       0.3       0.1       0.0
15 O  dz2             0.3       2.7       9.0       7.1       5.9       0.0
15 O  dxz             0.0       0.7       3.2       0.7       0.0       0.1
15 O  dyz             0.2       3.8      13.1       8.9       4.6       0.2
15 O  dx2y2           0.0       0.6       1.5       1.0       0.3       0.1
15 O  dxy             0.0       0.1       0.8       0.2       0.0       0.0
16 O  s               3.6       0.2       0.2       0.1       0.0       0.5
16 O  pz              0.1       0.0       0.0       0.0       0.0       0.0
16 O  px              3.6       0.1       0.1       0.1       0.0       0.3
16 O  py              0.3       0.0       0.0       0.0       0.0       0.0
16 O  dz2            16.2       0.5       0.6       0.2       0.0       0.6
16 O  dxz             0.7       0.1       0.0       0.0       0.0       0.5
16 O  dx2y2          19.1       0.9       0.7       0.4       0.0       2.1
16 O  dxy            24.6       0.5       1.0       0.2       0.1       0.6
19 H  s               0.0       0.5       0.0       0.1       0.0       0.0
20 H  s               0.0       0.1       0.1       0.4       0.2       0.0
21 H  s               0.0       0.1       0.3       0.1       0.4       0.0
22 H  s               0.0       0.1       0.3       0.2       0.0       0.0
23 H  s               0.6       0.0       0.0       0.0       0.0       0.0



                      *****************************
                      * MAYER POPULATION ANALYSIS *
                      *****************************

  NA   - Mulliken gross atomic population
  ZA   - Total nuclear charge
  QA   - Mulliken gross atomic charge
  VA   - Mayer's total valence
  BVA  - Mayer's bonded valence
  FA   - Mayer's free valence

  ATOM       NA         ZA         QA         VA         BVA        FA
  0 C      5.9701     6.0000     0.0299     3.9458     3.9458    -0.0000
  1 C      5.9482     6.0000     0.0518     4.0043     4.0043    -0.0000
  2 H      0.9621     1.0000     0.0379     0.9896     0.9896    -0.0000
  3 C      5.9721     6.0000     0.0279     3.9050     3.9050    -0.0000
  4 H      0.9110     1.0000     0.0890     0.9926     0.9926    -0.0000
  5 C      5.9498     6.0000     0.0502     4.0662     4.0662     0.0000
  6 H      0.9147     1.0000     0.0853     0.9737     0.9737    -0.0000
  7 C      5.9786     6.0000     0.0214     4.0460     4.0460    -0.0000
  8 H      0.9153     1.0000     0.0847     0.9672     0.9672    -0.0000
  9 C      5.8209     6.0000     0.1791     4.1094     4.1094     0.0000
 10 H      0.9256     1.0000     0.0744     0.9737     0.9737    -0.0000
 11 O      8.3114     8.0000    -0.3114     2.1788     2.1788     0.0000
 12 O      8.4113     8.0000    -0.4113     2.0516     2.0516     0.0000
 13 O      8.4265     8.0000    -0.4265     2.0125     2.0125    -0.0000
 14 O      8.4192     8.0000    -0.4192     2.0405     2.0405    -0.0000
 15 O      8.4277     8.0000    -0.4277     2.0099     2.0099    -0.0000
 16 O      8.4288     8.0000    -0.4288     2.0109     2.0109     0.0000
 17 H      0.9294     1.0000     0.0706     0.9630     0.9630    -0.0000
 18 H      0.9202     1.0000     0.0798     1.0199     1.0199    -0.0000
 19 H      0.6855     1.0000     0.3145     0.8850     0.8850    -0.0000
 20 H      0.6957     1.0000     0.3043     0.9313     0.9313    -0.0000
 21 H      0.6819     1.0000     0.3181     0.9174     0.9174    -0.0000
 22 H      0.6900     1.0000     0.3100     0.8790     0.8790    -0.0000
 23 H      0.7038     1.0000     0.2962     0.8835     0.8835    -0.0000

  Mayer bond orders larger than 0.100000
B(  0-C ,  1-C ) :   1.0235 B(  0-C , 16-O ) :   1.0461 B(  0-C , 17-H ) :   0.9142 
B(  0-C , 18-H ) :   0.9016 B(  1-C ,  2-H ) :   0.8947 B(  1-C ,  3-C ) :   0.9782 
B(  1-C , 11-O ) :   0.9994 B(  3-C ,  4-H ) :   0.8873 B(  3-C ,  5-C ) :   0.9685 
B(  3-C , 15-O ) :   0.9988 B(  5-C ,  6-H ) :   0.9012 B(  5-C ,  7-C ) :   1.0131 
B(  5-C , 14-O ) :   1.0933 B(  7-C ,  8-H ) :   0.8947 B(  7-C ,  9-C ) :   0.9735 
B(  7-C , 13-O ) :   1.0760 B(  9-C , 10-H ) :   0.9041 B(  9-C , 11-O ) :   1.0670 
B(  9-C , 12-O ) :   1.0720 B( 12-O , 19-H ) :   0.8310 B( 13-O , 20-H ) :   0.8107 
B( 14-O , 21-H ) :   0.7991 B( 15-O , 22-H ) :   0.8422 B( 16-O , 23-H ) :   0.8515 


-------
TIMINGS
-------

Total SCF time: 0 days 0 hours 0 min 9 sec 

Total time                  ....       9.599 sec
Sum of individual times     ....       9.241 sec  ( 96.3%)

SCF preparation             ....       0.161 sec  (  1.7%)
Fock matrix formation       ....       8.366 sec  ( 87.2%)
  Startup                   ....       0.052 sec  (  0.6% of F)
  Split-RI-J                ....       3.714 sec  ( 44.4% of F)
  XC integration            ....       4.192 sec  ( 50.1% of F)
    Basis function eval.    ....       1.418 sec  ( 33.8% of XC)
    Density eval.           ....       0.828 sec  ( 19.8% of XC)
    XC-Functional eval.     ....       0.286 sec  (  6.8% of XC)
    XC-Potential eval.      ....       1.069 sec  ( 25.5% of XC)
Diagonalization             ....       0.000 sec  (  0.0%)
Density matrix formation    ....       0.160 sec  (  1.7%)
Total Energy calculation    ....       0.027 sec  (  0.3%)
Population analysis         ....       0.102 sec  (  1.1%)
Orbital Transformation      ....       0.053 sec  (  0.5%)
Orbital Orthonormalization  ....       0.000 sec  (  0.0%)
DIIS solution               ....       0.290 sec  (  3.0%)
  MO trafo                  ....       0.000 sec  (  0.0 % of DIIS)
  Orb grad                  ....       0.000 sec  (  0.0 % of DIIS)
  Energy W gradient         ....       0.000 sec  (  0.0 % of DIIS)
  DIIS error                ....       0.006 sec  (  2.1 % of DIIS)
  DIIS work                 ....       0.237 sec  ( 81.8 % of DIIS)
  Form Q                    ....       0.000 sec  (  0.0 % of DIIS)
  Form QpQm                 ....       0.000 sec  (  0.0 % of DIIS)
  Exp/Cayley                ....       0.000 sec  (  0.0 % of DIIS)
  Orb update                ....       0.000 sec  (  0.0 % of DIIS)
  Wake-sleep                ....       0.019 sec  (  6.7 % of DIIS)
SOSCF solution              ....       0.083 sec  (  0.9%)
  MO trafo                  ....       0.045 sec  ( 54.5 % of SOSCF)
  Orb grad                  ....       0.001 sec  (  1.2 % of SOSCF)
  Rot update                ....       0.018 sec  ( 21.7 % of SOSCF)
  Step                      ....       0.019 sec  ( 22.5 % of SOSCF)
Finished LeanSCF after   9.7 sec

Maximum memory used throughout the entire LEANSCF-calculation: 18.5 MB


-------------------------------------------------------------------------------
                          DFT DISPERSION CORRECTION                            
                                                                               
                                DFTD4 V3.4.0                                   
-------------------------------------------------------------------------------
The PBE functional is recognized
Active option DFTDOPT                   ...         5   

-------------------------   ----------------
Dispersion correction           -0.025849330
-------------------------   ----------------

------------------   -----------------
gCP correction             0.158482296
------------------   -----------------

-------------------------   --------------------
FINAL SINGLE POINT ENERGY      -685.697834316682
-------------------------   --------------------


------------------------------------------------------------------------------
                              ORCA PROPERTY CALCULATIONS
------------------------------------------------------------------------------

GBWName                                 ... sp.gbw
Number of atoms                         ...     24
Number of basis functions               ...    192
Max core memory                         ...   1024 MB

Electric properties:
Dipole moment                           ... YES
Quadrupole moment                       ...  NO
Static polarizability (Dipole/Dipole)   ...  NO
Static polarizability (Dipole/Quad.)    ...  NO
Static polarizability (Quad./Quad.)     ...  NO
Static polarizability (Velocity)        ...  NO

Atomic electric properties:
Dipole moment                           ...  NO
Quadrupole moment                       ...  NO
Static polarizability                   ...  NO

Choice of electric origin               ... Center of mass
Position of electric origin             ...    -0.000004    -0.000002    -0.000001

General magnetic properties:
Magnetizability                         ...  NO

EPR properties:
g-Tensor (aka g-matrix)                 ...  NO
Zero-Field splitting spin-orbit         ...  NO
Zero-field splitting spin-spin          ...  NO
Hyperfine couplings                     ...  NO (   0 nuclei)
Quadrupole couplings                    ...  NO (   0 nuclei)
Contact density                         ...  NO (   0 nuclei)

NMR properties:
Chemical shifts                         ...  NO (   0 nuclei)
Spin-rotation constants                 ...  NO (   0 nuclei)
Spin-spin couplings                     ...  NO (   0 nuclei,    0 pairs)

Choice of magnetic origin               ... GIAO
Position of magnetic origin             ...     0.000000     0.000000     0.000000

Properties with geometric perturbations:
SCF Hessian                             ...  NO
IR spectrum                             ...  NO
VCD spectrum                            ...  NO
X-ray spectroscopy properties:
SCF XES/XAS/RIXS spectra                ...  NO


-------------
DIPOLE MOMENT
-------------

Method             : SCF
Type of density    : Electron Density
Multiplicity       :   1
Irrep              :   0
Energy             :  -685.8304672823105648 Eh
Relativity type    : 
Basis              : AO
                                X                 Y                 Z
Electronic contribution:      1.744200854       0.295780902       1.065855146
Nuclear contribution   :     -2.688430891      -1.399997467      -0.474067653
                        -----------------------------------------
Total Dipole Moment    :     -0.944230037      -1.104216565       0.591787493
                        -----------------------------------------
Magnitude (a.u.)       :      1.568782018
Magnitude (Debye)      :      3.987526997



--------------------
Rotational spectrum 
--------------------
 
Rotational constants in cm-1:             0.040906             0.028290             0.024435 
Rotational constants in MHz :          1226.327416           848.098563           732.550760 

Dipole components along the rotational axes: 
x,y,z [a.u.] :    -1.023691     0.234451     1.165404 
x,y,z [Debye]:    -2.602016     0.595927     2.962222 

 

Dipole moment calculation done in   0.0 sec 

Maximum memory used throughout the entire PROP-calculation: 12.1 MB

--------------------------------
SUGGESTED CITATIONS FOR THIS RUN
--------------------------------

Below you find a list of papers that are relevant to this ORCA run
We neither can nor want to force you to cite these papers, but we appreciate if you do
You receive ORCA, which is the product of decades of hard work by many enthusiastic individuals, for free
The only thing we kindly ask in return is that you cite our papers,
We deeply appreciate it, if you show your appreciation for ORCA by not just citing the generic ORCA reference.

Please note that relegating all ORCA citations to the supporting information does *not* help us.
SI sections are not indexed - citations you put there will not count into any citation statistics
But we need these citations in order to attract the funding resources that allow us to do what we are doing

Therefore, if you are a happy ORCA user, please consider citing a few of the papers listed below in the main body of your paper

In addition to the list printed below, the program has created the file sp.bibtex that contains the list in bibtex format
You can import this file easily into all common literature databanks and citation aid programs


List of essential papers. We consider these as the minimum necessary citations

  1. Neese,F.
     Software update: the ORCA program system, version 5.0
     WIRES Comput. Molec. Sci., 2022 12(1)e1606
     doi.org/10.1002/wcms.1606

List of papers to cite with high priority. The work reported in these papers was absolutely
necessary for this run to complete.
Our perspective: the developers of density functionals and basis sets usually get cited in chemistry papers
Good! But without the algorithms to do something with them, the functionals or basis sets would not do anything.
Hence, in our opinion, the algorithm design and method developments papers are equally worthy of getting cited

  1. Neese,F.
     An improvement of the resolution of the identity approximation for the formation of the Coulomb matrix
     J. Comp. Chem., 2003 24(14)1740-1747
     doi.org/10.1002/jcc.10318
  2. Neese,F.
     The SHARK Integral Generation and Digestion System
     J. Comp. Chem., 2022  1-16
     doi.org/10.1002/jcc.26942
  3. Caldeweyher,E.; Bannwarth,C.; Grimme,S.
     Extension of the D3 dispersion coefficient model
     J. Chem. Phys., 2017 147 034112-XXXX
     doi.org/10.1063/1.4993215
  4. Caldeweyher,E.; Ehlert,S.; Hansen,A.; Neugebauer,H.; Spicher,S.; Bannwarth,C.; Grimme,S.
     A generally applicable atomic-charge dependent London dispersion correction
     J. Chem. Phys., 2019 150 154122-XXXX
     doi.org/10.1063/1.5090222
  5. Caldeweyher,E.; Mewes,J.; Ehlert,S.; Grimme,S.
     Extension and evaluation of the D4 London-dispersion model for periodic systems
     Phys. Chem. Chem. Phys., 2020 22(16)8499-8512
     doi.org/10.1039/D0CP00502A

List of suggested additional citations. These are papers that are important in the 'surrounding' of 
of this run, or papers that preceded the highly important papers. If you like your results we are grateful for a citation.

  1. Neese,F.
     The ORCA program system
     WIRES Comput. Molec. Sci., 2012 2(1)73-78
     doi.org/10.1002/wcms.81
  2. Neese,F.
     Software update: the ORCA program system, version 4.0
     WIRES Comput. Molec. Sci., 2018 8(1)1-6
     doi.org/10.1002/wcms.1327
  3. Neese,F.; Wennmohs,F.; Becker,U.; Riplinger,C.
     The ORCA quantum chemistry program package
     J. Chem. Phys., 2020 152 Art. No. L224108
     doi.org/10.1063/5.0004608

List of optional additional citations

  1. Neese,F.
     Approximate second-order SCF convergence for spin unrestricted wavefunctions
     Chem. Phys. Lett., 2000 325(1-3)93-98
     doi.org/10.1016/s0009-2614(00)00662-x

Timings for individual modules:

Sum of individual times          ...       11.872 sec (=   0.198 min)
Startup calculation              ...        0.946 sec (=   0.016 min)   8.0 %
SCF iterations                   ...       10.826 sec (=   0.180 min)  91.2 %
Property calculations            ...        0.099 sec (=   0.002 min)   0.8 %
                             ****ORCA TERMINATED NORMALLY****
TOTAL RUN TIME: 0 days 0 hours 0 minutes 12 seconds 526 msec
