
                                 *****************
                                 * O   R   C   A *
                                 *****************

                                            #,                                       
                                            ###                                      
                                            ####                                     
                                            #####                                    
                                            ######                                   
                                           ########,                                 
                                     ,,################,,,,,                         
                               ,,#################################,,                 
                          ,,##########################################,,             
                       ,#########################################, ''#####,          
                    ,#############################################,,   '####,        
                  ,##################################################,,,,####,       
                ,###########''''           ''''###############################       
              ,#####''   ,,,,##########,,,,          '''####'''          '####       
            ,##' ,,,,###########################,,,                        '##       
           ' ,,###''''                  '''############,,,                           
         ,,##''                                '''############,,,,        ,,,,,,###''
      ,#''                                            '''#######################'''  
     '                                                          ''''####''''         
             ,#######,   #######,   ,#######,      ##                                
            ,#'     '#,  ##    ##  ,#'     '#,    #''#        ,####,   ,####,        
            ##       ##  ##   ,#'  ##            #'  '#       #'       #'  '#        
            ##       ##  #######   ##           ,######,      #####,   #    #        
            '#,     ,#'  ##    ##  '#,     ,#' ,#      #,     #,   #   #,  ,#        
             '#######'   ##     ##  '#######'  #'      '#     '####' # '####'        



                #########################################################
                #                        -***-                          #
                #          Department of theory and spectroscopy        #
                #                                                       #
                #                      Frank Neese                      #
                #                                                       #
                #     Directorship, Architecture, Infrastructure        #
                #                    SHARK, DRIVERS                     #
                #        Core code/Algorithms in most modules           #
                #                                                       #
                #        Max Planck Institute fuer Kohlenforschung      #
                #                Kaiser Wilhelm Platz 1                 #
                #                 D-45470 Muelheim/Ruhr                 #
                #                      Germany                          #
                #                                                       #
                #                  All rights reserved                  #
                #                        -***-                          #
                #########################################################


                         Program Version 6.0.0  -   RELEASE  -


 With contributions from (in alphabetic order):
   Daniel Aravena         : Magnetic Suceptibility
   Michael Atanasov       : Ab Initio Ligand Field Theory (pilot matlab implementation)
   Alexander A. Auer      : GIAO ZORA, VPT2 properties, NMR spectrum
   Ute Becker             : All parallelization in ORCA, NUMFREQ, NUMCALC
   Giovanni Bistoni       : ED, misc. LED, open-shell LED, HFLD
   Martin Brehm           : Molecular dynamics
   Dmytro Bykov           : pre 5.0 version of the SCF Hessian
   Marcos Casanova-Páez   : Triplet and SCS-CIS(D). UHF-(DLPNO)-IP/EA/STEOM-CCSD. UHF-CVS-IP/STEOM-CCSD
   Vijay G. Chilkuri      : MRCI spin determinant printing, contributions to CSF-ICE
   Pauline Colinet        : FMM embedding
   Dipayan Datta          : RHF DLPNO-CCSD density
   Achintya Kumar Dutta   : EOM-CC, STEOM-CC
   Nicolas Foglia         : Exact transition moments, OPA infrastructure, MCD improvements
   Dmitry Ganyushin       : Spin-Orbit,Spin-Spin,Magnetic field MRCI
   Miquel Garcia          : C-PCM and meta-GGA Hessian, CCSD/C-PCM, Gaussian charge scheme
   Tiago L. C. Gouveia    : GS-ROHF, GS-ROCIS
   Yang Guo               : DLPNO-NEVPT2, F12-NEVPT2, CIM, IAO-localization
   Andreas Hansen         : Spin unrestricted coupled pair/coupled cluster methods
   Ingolf Harden          : AUTO-CI MPn and infrastructure 
   Benjamin Helmich-Paris : MC-RPA, TRAH-(SCF,CASSCF), AVAS, COSX integrals, SCF dyn. polar.
   Lee Huntington         : MR-EOM, pCC
   Robert Izsak           : Overlap fitted RIJCOSX, COSX-SCS-MP3, EOM
   Riya Kayal             : Wick's Theorem for AUTO-CI, AUTO-CI UHF-CCSDT
   Emily Kempfer          : AUTO-CI, RHF CISDT and CCSDT
   Christian Kollmar      : KDIIS, OOCD, Brueckner-CCSD(T), CCSD density, CASPT2, CASPT2-K, improved NEVPT2
   Axel Koslowski         : Symmetry handling
   Simone Kossmann        : Meta GGA functionals, TD-DFT gradient, OOMP2, (MP2 Hessian; deprecated post 5.0)
   Lucas Lang             : DCDCAS
   Marvin Lechner         : AUTO-CI (C++ implementation), FIC-MRCC
   Spencer Leger          : CASSCF response
   Dagmar Lenk            : GEPOL surface, SMD, ORCA-2-JSON
   Dimitrios Liakos       : Extrapolation schemes; Compound Job, initial MDCI parallelization
   Dimitrios Manganas     : Further ROCIS development; embedding schemes. LFT, Crystal Embedding
   Dimitrios Pantazis     : SARC Basis sets
   Anastasios Papadopoulos: AUTO-CI, single reference methods and gradients
   Taras Petrenko         : pre 6.0 DFT Hessian and TD-DFT gradient, (ASA, deprecated), ECA, 1-Electron XAS/XES, NRVS
   Peter Pinski           : DLPNO-MP2, DLPNO-MP2 Gradient
   Christoph Reimann      : Effective Core Potentials
   Marius Retegan         : Local ZFS, SOC
   Christoph Riplinger    : Optimizer, TS searches, QM/MM, DLPNO-CCSD(T), (RO)-DLPNO pert. Triples
   Michael Roemelt        : Original ROCIS implementation
   Masaaki Saitow         : Open-shell DLPNO-CCSD energy and density
   Barbara Sandhoefer     : DKH picture change effects
   Kantharuban Sivalingam : CASSCF convergence/infrastructure, NEVPT2 and variants, FIC-MRCI
   Bernardo de Souza      : ESD, SOC TD-DFT
   Georgi Stoychev        : AutoAux, RI-MP2 NMR, DLPNO-MP2 response, X2C
   Van Anh Tran           : RI-MP2 g-tensors
   Willem Van den Heuvel  : Paramagnetic NMR
   Zikuan Wang            : NOTCH, Electric field optimization 
   Frank Wennmohs         : Technical directorship and infrastructure
   Hang Xu                : AUTO-CI-Response properties 


 We gratefully acknowledge several colleagues who have allowed us to
 interface, adapt or use parts of their codes:
   Stefan Grimme, W. Hujo, H. Kruse, P. Pracht,  : VdW corrections, initial TS optimization,
                  C. Bannwarth, S. Ehlert,         DFT functionals, gCP, sTDA/sTD-DF
                  L. Wittmann, M. Mueller
   Ed Valeev, F. Pavosevic, A. Kumar             : LibInt (2-el integral package), F12 methods
   Garnet Chan, S. Sharma, J. Yang, R. Olivares  : DMRG
   Ulf Ekstrom                                   : XCFun DFT Library
   Mihaly Kallay                                 : mrcc  (arbitrary order and MRCC methods)
   Frank Weinhold                                : gennbo (NPA and NBO analysis)
   Simon Mueller                                 : openCOSMO-RS
   Christopher J. Cramer and Donald G. Truhlar   : smd solvation model
   Lars Goerigk                                  : TD-DFT with DH, B97 family of functionals
   V. Asgeirsson, H. Jonsson                     : NEB implementation
   FAccTs GmbH                                   : IRC, NEB, NEB-TS, DLPNO-Multilevel, CI-OPT
                                                   MM, QMMM, 2- and 3-layer-ONIOM, Crystal-QMMM,
                                                   LR-CPCM, SF, NACMEs, symmetry and pop. for TD-DFT,
                                                   nearIR, NL-DFT gradient (VV10), updates on ESD,
                                                   ML-optimized integration grids, MBIS, APM,
                                                   GOAT, DOCKER, SOLVATOR, interface openCOSMO-RS
   S Lehtola, MJT Oliveira, MAL Marques          : LibXC Library
   Liviu Ungur et al                             : ANISO software


 Your calculation uses the libint2 library for the computation of 2-el integrals
 For citations please refer to: http://libint.valeyev.net

 Your ORCA version has been built with support for libXC version: 6.2.2
 For citations please refer to: https://libxc.gitlab.io

 This ORCA versions uses:
   CBLAS   interface :  Fast vector & matrix operations
   LAPACKE interface :  Fast linear algebra routines
   SCALAPACK package :  Parallel linear algebra routines
   Shared memory     :  Shared parallel matrices
   BLAS/LAPACK       :  OpenBLAS 0.3.27  USE64BITINT DYNAMIC_ARCH NO_AFFINITY SapphireRapids SINGLE_THREADED
        Core in use  :  SapphireRapids
   Copyright (c) 2011-2014, The OpenBLAS Project


Your calculation utilizes the geometrical counterpoise correction gCP
Please cite in your paper:
H.Kruse, S. Grimme J.Chem.Phys., 136, (2012), 154101 
   

Your calculation utilizes the atom-pairwise dispersion correction
based on EEQ partial charges (D4)


================================================================================

cite the ECPs for I  [Def2-ECP] as follows:
Ce-Yb(ecp-28): M. Dolg, H. Stoll, H.Preuss, J. Chem. Phys., 1989, 90, 1730-1734.
Y-Cd(ecp-28), Hf-Hg(ecp-46): D. Andrae,U. Haeussermann, M. Dolg, H. Stoll, H. Preuss, Theor. Chim. Acta, 1990, 77, 123-141.
In-Sb(ecp-28), Tl-Bi(ecp-46): B. Metz, H. Stoll, M. Dolg, J. Chem. Phys., 2000, 113, 2563-2569.
Te-Xe(ecp-28), Po-Rn(ecp-46): K. A. Peterson, D. Figgen, E. Goll, H. Stoll, M. Dolg, J. Chem. Phys., 2003, 119, 11113-11123.
Rb(ecp-28), Cs(ecp-46): T. Leininger, A. Nicklass, W. Kuechle, H. Stoll, M. Dolg, A. Bergner, Chem. Phys. Lett., 1996, 255, 274-280.
Sr(ecp-28), Ba(ecp-46): M. Kaupp, P. V. Schleyer, H. Stoll and H. Preuss, J. Chem. Phys., 1991, 94, 1360-1366.
La(ecp-46): M. Dolg, H. Stoll, A. Savin, H. Preuss, Theor. Chim. Acta, 1989, 75, 173-194.
Lu(ecp-28): X. Cao, M. Dolg, J. Chem. Phys., 2001, 115, 7348-7355.
Fr-Lr(ecp-60) K. Eichkorn, F. Weigend, O. Treutler, R. Ahlrichs, Theor. Chem. Acc. 1997, 97, 119.

ECP parameters for I  [Def2-ECP] have been obtained from:
TURBOMOLE (7.0.2)

----- Orbital basis set information -----
Your calculation utilizes the basis: def2-mTZVPP
   Stefan Grimme, Andreas Hansen, Sebastian Ehlert, and Jan-Michael Mewes 
   J. Chem. Phys. 154, 064103 (2021). DOI: 10.1063/5.0040021

----- AuxJ basis set information -----
Your calculation utilizes the auxiliary basis: def2/J
   F. Weigend, Phys. Chem. Chem. Phys. 8, 1057 (2006).

================================================================================
                                        WARNINGS
                       Please study these warnings very carefully!
================================================================================

Using LibXC functional ID 497 : Re-regularized SCAN exchange by Furness et al
[ 1]  J. W. Furness, A. D. Kaplan, J. Ning, J. P. Perdew, and J. Sun.,  J. Phys. Chem. Lett. 11, 8208-8215 (2020)
[ 2]  J. W. Furness, A. D. Kaplan, J. Ning, J. P. Perdew, and J. Sun.,  J. Phys. Chem. Lett. 11, 9248-9248 (2020)
Using LibXC functional ID 498 : Re-regularized SCAN correlation by Furness et al
[ 1]  J. W. Furness, A. D. Kaplan, J. Ning, J. P. Perdew, and J. Sun.,  J. Phys. Chem. Lett. 11, 8208-8215 (2020)
[ 2]  J. W. Furness, A. D. Kaplan, J. Ning, J. P. Perdew, and J. Sun.,  J. Phys. Chem. Lett. 11, 9248-9248 (2020)
Using LibXC functional ID 497 : Re-regularized SCAN exchange by Furness et al
[ 1]  J. W. Furness, A. D. Kaplan, J. Ning, J. P. Perdew, and J. Sun.,  J. Phys. Chem. Lett. 11, 8208-8215 (2020)
[ 2]  J. W. Furness, A. D. Kaplan, J. Ning, J. P. Perdew, and J. Sun.,  J. Phys. Chem. Lett. 11, 9248-9248 (2020)
Using LibXC functional ID 498 : Re-regularized SCAN correlation by Furness et al
[ 1]  J. W. Furness, A. D. Kaplan, J. Ning, J. P. Perdew, and J. Sun.,  J. Phys. Chem. Lett. 11, 8208-8215 (2020)
[ 2]  J. W. Furness, A. D. Kaplan, J. Ning, J. P. Perdew, and J. Sun.,  J. Phys. Chem. Lett. 11, 9248-9248 (2020)

================================================================================
                                       INPUT FILE
================================================================================
NAME = sp_gas.inp
|  1> ! r2scan-3c def2/J RI DEFGRID2 scfconv6 printgap
|  2> %output
|  3>     printlevel normal
|  4> end
|  5> * xyz 0 1
|  6> C -3.487649188 0.2857543545 -3.83216e-05
|  7> C -2.7566544562 1.4630871487 1.73457e-05
|  8> C -1.3749841175 1.4105748538 0.0001060769
|  9> C -0.7336747294 0.1858163963 8.26577e-05
| 10> C -1.4484767498 -1.0084266984 3.50916e-05
| 11> C -2.8424134407 -0.9333438931 -2.54998e-05
| 12> O -0.8921592016 -2.2372720387 -1.4273e-06
| 13> I 1.4038535427 0.1412901085 -1.84863e-05
| 14> H -4.5652565013 0.3161999684 0.0001058417
| 15> H -3.2537499859 2.4192301352 4.2336e-05
| 16> H -0.7953424244 2.3201540203 0.000114043
| 17> H -3.388221844 -1.8628642193 -2.56283e-05
| 18> H 0.0779602871 -2.1926003102 2.427e-07
| 19> *
| 20> 
| 21>                          ****END OF INPUT****
================================================================================

                       ****************************
                       * Single Point Calculation *
                       ****************************

---------------------------------
CARTESIAN COORDINATES (ANGSTROEM)
---------------------------------
  C     -3.487649    0.285754   -0.000038
  C     -2.756654    1.463087    0.000017
  C     -1.374984    1.410575    0.000106
  C     -0.733675    0.185816    0.000083
  C     -1.448477   -1.008427    0.000035
  C     -2.842413   -0.933344   -0.000025
  O     -0.892159   -2.237272   -0.000001
  I      1.403854    0.141290   -0.000018
  H     -4.565257    0.316200    0.000106
  H     -3.253750    2.419230    0.000042
  H     -0.795342    2.320154    0.000114
  H     -3.388222   -1.862864   -0.000026
  H      0.077960   -2.192600    0.000000

----------------------------
CARTESIAN COORDINATES (A.U.)
----------------------------
  NO LB      ZA    FRAG     MASS         X           Y           Z
   0 C     6.0000    0    12.011   -6.590702    0.539997   -0.000072
   1 C     6.0000    0    12.011   -5.209322    2.764834    0.000033
   2 C     6.0000    0    12.011   -2.598343    2.665600    0.000200
   3 C     6.0000    0    12.011   -1.386444    0.351142    0.000156
   4 C     6.0000    0    12.011   -2.737224   -1.905650    0.000066
   5 C     6.0000    0    12.011   -5.371383   -1.763764   -0.000048
   6 O     8.0000    0    15.999   -1.685937   -4.227831   -0.000003
   7 I    25.0000*   0   126.900    2.652899    0.267000   -0.000035
   8 H     1.0000    0     1.008   -8.627085    0.597531    0.000200
   9 H     1.0000    0     1.008   -6.148696    4.571682    0.000080
  10 H     1.0000    0     1.008   -1.502979    4.384456    0.000216
  11 H     1.0000    0     1.008   -6.402811   -3.520303   -0.000048
  12 H     1.0000    0     1.008    0.147324   -4.143414    0.000000
* core charge reduced due to ECP

--------------------------------
INTERNAL COORDINATES (ANGSTROEM)
--------------------------------
 C      0   0   0     0.000000000000     0.00000000     0.00000000
 C      1   0   0     1.385808720321     0.00000000     0.00000000
 C      2   1   0     1.382667882694   119.65919468     0.00000000
 C      3   2   1     1.382501721891   119.81406155     0.00000000
 C      4   3   2     1.391818414833   121.46029650     0.00000000
 C      1   2   3     1.379322191172   120.27318835     0.00000000
 O      5   4   3     1.348906996848   124.74079224   179.99941003
 I      4   3   2     2.137991981875   118.83084454   179.99264623
 H      1   2   3     1.078037326750   120.21740599   179.98687205
 H      2   1   3     1.077642508862   120.69447756   180.00309954
 H      3   2   1     1.078572553227   120.33132091   179.99778423
 H      6   1   2     1.077921541640   121.68775694   179.99736096
 H      7   5   4     0.971147458260   111.72053415     0.00000000

---------------------------
INTERNAL COORDINATES (A.U.)
---------------------------
 C      0   0   0     0.000000000000     0.00000000     0.00000000
 C      1   0   0     2.618798955406     0.00000000     0.00000000
 C      2   1   0     2.612863632460   119.65919468     0.00000000
 C      3   2   1     2.612549634048   119.81406155     0.00000000
 C      4   3   2     2.630155632183   121.46029650     0.00000000
 C      1   2   3     2.606541191755   120.27318835     0.00000000
 O      5   4   3     2.549064804173   124.74079224   179.99941003
 I      4   3   2     4.040219322263   118.83084454   179.99264623
 H      1   2   3     2.037195309702   120.21740599   179.98687205
 H      2   1   3     2.036449212020   120.69447756   180.00309954
 H      3   2   1     2.038206741163   120.33132091   179.99778423
 H      6   1   2     2.036976507554   121.68775694   179.99736096
 H      7   5   4     1.835202731766   111.72053415     0.00000000

---------------------
BASIS SET INFORMATION
---------------------
There are 4 groups of distinct atoms

 Group   1 Type C   : 11s6p1d contracted to 5s3p1d pattern {62111/411/1}
 Group   2 Type O   : 11s6p2d contracted to 5s3p2d pattern {62111/411/11}
 Group   3 Type I   : 11s10p8d contracted to 6s5p3d pattern {521111/34111/611}
 Group   4 Type H   : 4s1p contracted to 2s1p pattern {31/1}

Atom   0C    basis set group =>   1
Atom   1C    basis set group =>   1
Atom   2C    basis set group =>   1
Atom   3C    basis set group =>   1
Atom   4C    basis set group =>   1
Atom   5C    basis set group =>   1
Atom   6O    basis set group =>   2
Atom   7I    basis set group =>   3
Atom   8H    basis set group =>   4
Atom   9H    basis set group =>   4
Atom  10H    basis set group =>   4
Atom  11H    basis set group =>   4
Atom  12H    basis set group =>   4
---------------------------------
AUXILIARY/J BASIS SET INFORMATION
---------------------------------
There are 4 groups of distinct atoms

 Group   1 Type C   : 12s5p4d2f1g contracted to 6s4p3d1f1g pattern {711111/2111/211/2/1}
 Group   2 Type O   : 12s5p4d2f1g contracted to 6s4p3d1f1g pattern {711111/2111/211/2/1}
 Group   3 Type I   : 11s5p5d3f1g contracted to 8s4p3d2f1g pattern {41111111/2111/311/21/1}
 Group   4 Type H   : 5s2p1d contracted to 3s1p1d pattern {311/2/1}

Atom   0C    basis set group =>   1
Atom   1C    basis set group =>   1
Atom   2C    basis set group =>   1
Atom   3C    basis set group =>   1
Atom   4C    basis set group =>   1
Atom   5C    basis set group =>   1
Atom   6O    basis set group =>   2
Atom   7I    basis set group =>   3
Atom   8H    basis set group =>   4
Atom   9H    basis set group =>   4
Atom  10H    basis set group =>   4
Atom  11H    basis set group =>   4
Atom  12H    basis set group =>   4
-------------------------
ECP PARAMETER INFORMATION
-------------------------

 Group 1, Type I  ECP Def2-ECP (replacing 28 core electrons, lmax=3)

Atom   7I    ECP group =>   1


Checking for AutoStart:
The File: sp_gas.gbw exists
Trying to determine its content:
     ... Fine, the file contains calculation information
     ... Fine, the calculation information was read
     ... Fine, the file contains a basis set
     ... Fine, the basis set was read
     ... Fine, the file contains ECP parameters
     ... Fine, ECP parameters were read
     ... Fine, the file contains a geometry
     ... Fine, the geometry was read
     ... Fine, the file contains a set of orbitals
     ... Fine, the orbitals can be read
     => possible old guess file was deleted
     => GBW file was renamed to GES file
     => GES file is set as startup file
     => Guess is set to MORead
     ... now leaving AutoStart

------------------------------------------------------------------------------
                             ORCA STARTUP CALCULATIONS
                           -- RI-GTO INTEGRALS CHOSEN --
------------------------------------------------------------------------------
------------------------------------------------------------------------------
                   ___                                                        
                  /   \      - P O W E R E D   B Y -                         
                 /     \                                                     
                 |  |  |   _    _      __       _____    __    __             
                 |  |  |  | |  | |    /  \     |  _  \  |  |  /  |          
                  \  \/   | |  | |   /    \    | | | |  |  | /  /          
                 / \  \   | |__| |  /  /\  \   | |_| |  |  |/  /          
                |  |  |   |  __  | /  /__\  \  |    /   |      \           
                |  |  |   | |  | | |   __   |  |    \   |  |\   \          
                \     /   | |  | | |  |  |  |  | |\  \  |  | \   \       
                 \___/    |_|  |_| |__|  |__|  |_| \__\ |__|  \__/        
                                                                              
                      - O R C A' S   B I G   F R I E N D -                    
                                      &                                       
                       - I N T E G R A L  F E E D E R -                       
                                                                              
 v1 FN, 2020, v2 2021, v3 2022-2024                                           
------------------------------------------------------------------------------


----------------------
SHARK INTEGRAL PACKAGE
----------------------

Number of atoms                             ...     13
Number of basis functions                   ...    199
Number of shells                            ...     93
Maximum angular momentum                    ...      2
Integral batch strategy                     ... SHARK/LIBINT Hybrid
RI-J (if used) integral strategy            ... SPLIT-RIJ (Revised 2003 algorithm where possible)
Printlevel                                  ...      1
Contraction scheme used                     ... SEGMENTED contraction
Prescreening option                         ... SCHWARTZ
   Thresh                                   ... 1.000e-10
   Tcut                                     ... 1.000e-11
   Tpresel                                  ... 1.000e-11 
Coulomb Range Separation                    ... NOT USED
Exchange Range Separation                   ... NOT USED
Multipole approximations                    ... NOT USED
Finite Nucleus Model                        ... NOT USED
CABS basis                                  ... NOT available
Auxiliary Coulomb fitting basis             ... AVAILABLE
   # of basis functions in Aux-J            ...    456
   # of shells in Aux-J                     ...    148
   Maximum angular momentum in Aux-J        ...      4
Auxiliary J/K fitting basis                 ... NOT available
Auxiliary Correlation fitting basis         ... NOT available
Auxiliary 'external' fitting basis          ... NOT available

Checking pre-screening integrals            ... done (  0.0 sec) Dimension = 93
Check shell pair data                       ... done (  0.0 sec)
Shell pair information
Shell pair cut-off parameter TPreSel        ...   1.0e-11
Total number of shell pairs                 ...      4371
Shell pairs after pre-screening             ...      3923
Total number of primitive shell pairs       ...     16675
Primitive shell pairs kept                  ...     10595
          la=0 lb=0:   1130 shell pairs
          la=1 lb=0:   1437 shell pairs
          la=1 lb=1:    466 shell pairs
          la=2 lb=0:    507 shell pairs
          la=2 lb=1:    320 shell pairs
          la=2 lb=2:     63 shell pairs

Calculating one electron integrals          ... done (  0.0 sec)
Calculating ECP integrals                   ... done (  0.1 sec)
Calculating RI/J V-Matrix + Cholesky decomp.... done (  0.1 sec)
Calculating Nuclear repulsion               ... done (  0.0 sec) ENN=    451.624680028457 Eh

Diagonalization of the overlap matrix:
Smallest eigenvalue                        ... 2.666e-05
Time for diagonalization                   ...    0.003 sec
Threshold for overlap eigenvalues          ... 1.000e-07
Number of eigenvalues below threshold      ... 0
Time for construction of square roots      ...    0.012 sec
Total time needed                          ...    0.023 sec

-------------------
DFT GRID GENERATION
-------------------

General Integration Accuracy     IntAcc      ... 4.388
Radial Grid Type                 RadialGrid  ... OptM3 with GC (2021)
Angular Grid (max. ang.)         AngularGrid ... 4 (Lebedev-302)
Angular grid pruning method      GridPruning ... 4 (adaptive)
Weight generation scheme         WeightScheme... mBecke (2022)
Basis function cutoff            BFCut       ... 1.0000e-10
Integration weight cutoff        WCut        ... 1.0000e-14
Partially contracted basis set               ... off
Rotationally invariant grid construction     ... off
Angular grids for H and He will be reduced by one unit
Diffuse basis detected: some atoms will have their outermost
                        angular grid increased by 1.

Total number of grid points                  ...    69920
Total number of batches                      ...     1099
Average number of points per batch           ...       63
Average number of grid points per atom       ...     5378
Initializing property integral containers    ... done (  0.0 sec)

SHARK setup successfully completed in   1.1 seconds

Maximum memory used throughout the entire STARTUP-calculation: 34.4 MB
-------------------------------------------------------------------------------
                                 ORCA GUESS
                   Start orbitals & Density for SCF / CASSCF
-------------------------------------------------------------------------------

------------
SCF SETTINGS
------------
Hamiltonian:
 Density Functional     Method          .... DFT(GTOs)
  Functional kind                       .... Exchange
  Functional name                       .... Re-regularized SCAN exchange by Furness et al
  Functional family                     .... MGGA
  Functional refs                              
    [ 0] J. W. Furness, A. D. Kaplan, J. Ning, J. P. Perdew, and J. Sun.,  J. Phys. Chem. Lett. 11, 8208-8215 (2020), doi: 10.1021/acs.jpclett.0c02405
    [ 1] J. W. Furness, A. D. Kaplan, J. Ning, J. P. Perdew, and J. Sun.,  J. Phys. Chem. Lett. 11, 9248-9248 (2020), doi: 10.1021/acs.jpclett.0c03077
  Functional external parameters        .... 6
    Parameter  0 _c1        =  6.670000e-01 : c1 parameter        
    Parameter  1 _c2        =  8.000000e-01 : c2 parameter        
    Parameter  2 _d         =  1.240000e+00 : d parameter         
    Parameter  3 _k1        =  6.500000e-02 : k1 parameter        
    Parameter  4 _eta       =  1.000000e-03 : eta parameter       
    Parameter  5 _dp2       =  3.610000e-01 : dp2 parameter       
  Functional kind                       .... Correlation
  Functional name                       .... Re-regularized SCAN correlation by Furness et al
  Functional family                     .... MGGA
  Functional refs                              
    [ 0] J. W. Furness, A. D. Kaplan, J. Ning, J. P. Perdew, and J. Sun.,  J. Phys. Chem. Lett. 11, 8208-8215 (2020), doi: 10.1021/acs.jpclett.0c02405
    [ 1] J. W. Furness, A. D. Kaplan, J. Ning, J. P. Perdew, and J. Sun.,  J. Phys. Chem. Lett. 11, 9248-9248 (2020), doi: 10.1021/acs.jpclett.0c03077
  Functional external parameters        .... 1
    Parameter  0 _eta       =  1.000000e-03 : Regularization parameter
 Gradients option       PostSCFGGA      .... off
 RI-approximation to the Coulomb term is turned on
   Number of AuxJ basis functions       .... 456


General Settings:
 Integral files         IntName         .... sp_gas
 Hartree-Fock type      HFTyp           .... RHF
 Total Charge           Charge          ....    0
 Multiplicity           Mult            ....    1
 Number of Electrons    NEL             ....   74
 Basis Dimension        Dim             ....  199
 Nuclear Repulsion      ENuc            ....    451.6246800285 Eh

Convergence Acceleration:
 AO-DIIS                CNVDIIS         .... on
   Start iteration      DIISMaxIt       ....    12
   Startup error        DIISStart       ....  0.200000
   # of expansion vecs  DIISMaxEq       ....     5
   Bias factor          DIISBfac        ....   1.050
   Max. coefficient     DIISMaxC        ....  10.000
 MO-DIIS                CNVKDIIS        .... off
 Trust-Rad. Augm. Hess. CNVTRAH         .... auto
   Auto Start mean grad. ratio tolernc. ....  1.125000
   Auto Start start iteration           ....     1
   Auto Start num. interpolation iter.  ....    10
   Max. Number of Micro iterations      ....    24
   Max. Number of Macro iterations      .... Maxiter - #DIIS iter
   Number of Davidson start vectors     ....     2
   Converg. threshold    (grad. norm)   ....   3.330e-04
   Grad. Scal. Fac. for Micro threshold ....   0.100
   Minimum threshold for Micro iter.    ....   1.000e-02
   NR start threshold (gradient norm)   ....   1.000e-04
   Initial trust radius                 ....   0.400
   Minimum AH scaling param. (alpha)    ....   1.000
   Maximum AH scaling param. (alpha)    .... 1000.000
   Quad. conv. algorithm                .... NR
   White noise on init. David. guess    .... on
   Maximum white noise                  ....   0.010
   Pseudo random numbers                .... off
   Inactive MOs                         .... canonical
   Orbital update algorithm             .... Taylor
   Preconditioner                       .... Diag
   Full preconditioner red. dimension   ....   250
   COSX micro iterations for RIJONX calc.... off
 SOSCF                  CNVSOSCF        .... on
   Start iteration      SOSCFMaxIt      ....   150
   Startup grad/error   SOSCFStart      ....  0.003300
   Hessian update       SOSCFHessUp     .... L-BFGS
 Level Shifting         CNVShift        .... on
   Level shift para.    LevelShift      ....    0.2500
   Turn off err/grad.   ShiftErr        ....    0.0010
 Zerner damping         CNVZerner       .... off
 Static damping         CNVDamp         .... on
   Fraction old density DampFac         ....    0.7000
   Max. Damping (<1)    DampMax         ....    0.9800
   Min. Damping (>=0)   DampMin         ....    0.0000
   Turn off err/grad.   DampErr         ....    0.1000

SCF Procedure:
 Maximum # iterations   MaxIter         ....   125
 SCF integral mode      SCFMode         .... Direct
   Integral package                     .... SHARK and LIBINT hybrid scheme
 Reset frequency        DirectResetFreq ....    20
 Integral Threshold     Thresh          ....  1.000e-10 Eh
 Primitive CutOff       TCut            ....  1.000e-11 Eh

Convergence Tolerance:
 Convergence Check Mode ConvCheckMode   .... Total+1el-Energy
 Convergence forced     ConvForced      .... 0
 Energy Change          TolE            ....  1.000e-06 Eh
 1-El. energy change                    ....  1.000e-03 Eh
 Orbital Gradient       TolG            ....  3.330e-04
 Orbital Rotation angle TolX            ....  3.330e-04
 DIIS Error             TolErr          ....  1.000e-06

---------------------
INITIAL GUESS: MOREAD
---------------------
Guess MOs are being read from file: sp_gas.ges
Input Geometry matches current geometry (good)
Atom 0: N(Shells)= 9 and 6 - projection required
Input basis set needs projection
NBasis(read)= 134
NBasis(calc)= 199
Basis set overlap was calculated
Using GuessMode=FMatrix for the initial guess
C*T matrix was formed
Effective Fockian was calculated
Effective Fockian was diagonalized
Initial density was built
                      ------------------
                      INITIAL GUESS DONE (   0.0 sec)
                      ------------------
             **** ENERGY FILE WAS UPDATED (sp_gas.en.tmp) ****
Finished Guess after   0.2 sec
Maximum memory used throughout the entire GUESS-calculation: 14.4 MB

-------------------------------------------------------------------------------------------
                                      ORCA LEAN-SCF
                              memory conserving SCF solver
-------------------------------------------------------------------------------------------

----------------------------------------D-I-I-S--------------------------------------------
Iteration    Energy (Eh)           Delta-E    RMSDP     MaxDP     DIISErr   Damp  Time(sec)
-------------------------------------------------------------------------------------------
               ***  Starting incremental Fock matrix formation  ***
    1    -604.3861388092836933     0.00e+00  1.57e-02  5.32e-01  6.21e-01  0.700   1.6
    2    -604.4317531937788317    -4.56e-02  1.16e-02  3.76e-01  4.36e-01  0.700   1.5
    3    -604.4638836091687608    -3.21e-02  8.18e-03  2.61e-01  3.06e-01  0.700   1.5
    4    -604.4864163751994965    -2.25e-02  5.74e-03  1.82e-01  2.14e-01  0.700   1.4
                               ***Turning on AO-DIIS***
    5    -604.5022163984895087    -1.58e-02  4.02e-03  1.28e-01  1.50e-01  0.700   1.4
    6    -604.5132861652894007    -1.11e-02  2.82e-03  8.97e-02  1.05e-01  0.700   1.4
    7    -604.5210491480027031    -7.76e-03  1.97e-03  6.28e-02  7.34e-02  0.700   1.4
    8    -604.5264883732270391    -5.44e-03  4.60e-03  1.46e-01  5.14e-02  0.000   1.4
                              *** Initializing SOSCF ***
---------------------------------------S-O-S-C-F--------------------------------------
Iteration    Energy (Eh)           Delta-E    RMSDP     MaxDP     MaxGrad    Time(sec)
--------------------------------------------------------------------------------------
    9    -604.5391944670298017    -1.27e-02  1.89e-05  8.47e-04  2.66e-04     1.4
               *** Restarting incremental Fock matrix formation ***
   10    -604.5391948177136783    -3.51e-07  1.77e-05  6.86e-04  7.98e-05     1.6
                  *** Gradient check signals convergence ***

               *****************************************************
               *                     SUCCESS                       *
               *           SCF CONVERGED AFTER  10 CYCLES          *
               *****************************************************

             **** ENERGY FILE WAS UPDATED (sp_gas.en.tmp) ****

----------------
TOTAL SCF ENERGY
----------------

Total Energy       :       -604.53919481771368 Eh          -16450.34781 eV

Components:
Nuclear Repulsion  :        451.62468002845731 Eh           12289.33232 eV
Electronic Energy  :      -1056.16387484617098 Eh          -28739.68013 eV
One Electron Energy:      -1829.66984082034401 Eh          -49787.84753 eV
Two Electron Energy:        773.50596597417302 Eh           21048.16740 eV

Virial components:
Potential Energy   :      -1022.20430294492041 Eh          -27815.59320 eV
Kinetic Energy     :        417.66510812720674 Eh           11365.24539 eV
Virial Ratio       :          2.44742566006637

DFT components:
N(Alpha)           :       37.000030596526 electrons
N(Beta)            :       37.000030596526 electrons
N(Total)           :       74.000061193051 electrons
E(X)               :      -62.588185086773 Eh       
E(C)               :       -2.666962934353 Eh       
E(XC)              :      -65.255148021126 Eh       

---------------
SCF CONVERGENCE
---------------

  Last Energy change         ...    3.5068e-07  Tolerance :   1.0000e-06
  Last MAX-Density change    ...    6.8561e-04  Tolerance :   1.0000e-05
  Last RMS-Density change    ...    1.7667e-05  Tolerance :   1.0000e-06
  Last DIIS Error            ...    2.6634e-04  Tolerance :   1.0000e-06
  Last Orbital Gradient      ...    7.9815e-05  Tolerance :   3.3300e-04
  Last Orbital Rotation      ...    2.5133e-04  Tolerance :   3.3300e-04


----------------
ORBITAL ENERGIES
----------------

  NO   OCC          E(Eh)            E(eV) 
   0   2.0000     -18.995206      -516.8858 
   1   2.0000     -10.117223      -275.3036 
   2   2.0000     -10.093985      -274.6713 
   3   2.0000     -10.054971      -273.6097 
   4   2.0000     -10.047915      -273.4177 
   5   2.0000     -10.045032      -273.3392 
   6   2.0000     -10.042548      -273.2716 
   7   2.0000      -6.829747      -185.8469 
   8   2.0000      -4.848414      -131.9321 
   9   2.0000      -4.832508      -131.4992 
  10   2.0000      -4.831517      -131.4723 
  11   2.0000      -1.883829       -51.2616 
  12   2.0000      -1.879817       -51.1524 
  13   2.0000      -1.878865       -51.1265 
  14   2.0000      -1.866177       -50.7813 
  15   2.0000      -1.866172       -50.7811 
  16   2.0000      -1.042865       -28.3778 
  17   2.0000      -0.841371       -22.8949 
  18   2.0000      -0.746146       -20.3037 
  19   2.0000      -0.727043       -19.7839 
  20   2.0000      -0.669426       -18.2160 
  21   2.0000      -0.595498       -16.2043 
  22   2.0000      -0.591317       -16.0906 
  23   2.0000      -0.525203       -14.2915 
  24   2.0000      -0.478609       -13.0236 
  25   2.0000      -0.447742       -12.1837 
  26   2.0000      -0.417883       -11.3712 
  27   2.0000      -0.401008       -10.9120 
  28   2.0000      -0.390106       -10.6153 
  29   2.0000      -0.368753       -10.0343 
  30   2.0000      -0.342303        -9.3145 
  31   2.0000      -0.329091        -8.9550 
  32   2.0000      -0.318262        -8.6604 
  33   2.0000      -0.282801        -7.6954 
  34   2.0000      -0.260882        -7.0990 
  35   2.0000      -0.236204        -6.4275 
  36   2.0000      -0.216072        -5.8796 
  37   0.0000      -0.070178        -1.9096 
  38   0.0000      -0.048141        -1.3100 
  39   0.0000      -0.030569        -0.8318 
  40   0.0000       0.054915         1.4943 
  41   0.0000       0.096473         2.6252 
  42   0.0000       0.109823         2.9884 
  43   0.0000       0.114721         3.1217 
  44   0.0000       0.120910         3.2901 
  45   0.0000       0.124640         3.3916 
  46   0.0000       0.141488         3.8501 
  47   0.0000       0.152803         4.1580 
*Only the first 10 virtual orbitals were printed.

                    ********************************
                    * MULLIKEN POPULATION ANALYSIS *
                    ********************************

-----------------------
MULLIKEN ATOMIC CHARGES
-----------------------
   0 C :   -0.112921
   1 C :   -0.165940
   2 C :   -0.114307
   3 C :   -0.157992
   4 C :    0.410816
   5 C :   -0.272984
   6 O :   -0.403138
   7 I :   -0.114574
   8 H :    0.151241
   9 H :    0.150886
  10 H :    0.157688
  11 H :    0.162543
  12 H :    0.308682
Sum of atomic charges:    0.0000000

--------------------------------
MULLIKEN REDUCED ORBITAL CHARGES
--------------------------------
  0 C s       :     3.168359  s :     3.168359
      pz      :     0.977026  p :     2.906201
      px      :     1.031841
      py      :     0.897334
      dz2     :     0.003317  d :     0.038361
      dxz     :     0.002352
      dyz     :     0.007787
      dx2y2   :     0.013267
      dxy     :     0.011637

  1 C s       :     3.186740  s :     3.186740
      pz      :     1.019096  p :     2.941812
      px      :     0.921854
      py      :     1.000863
      dz2     :     0.003349  d :     0.037387
      dxz     :     0.005786
      dyz     :     0.003306
      dx2y2   :     0.012501
      dxy     :     0.012445

  2 C s       :     3.162146  s :     3.162146
      pz      :     0.989963  p :     2.914016
      px      :     0.946268
      py      :     0.977785
      dz2     :     0.003418  d :     0.038144
      dxz     :     0.006387
      dyz     :     0.004259
      dx2y2   :     0.010762
      dxy     :     0.013318

  3 C s       :     3.172805  s :     3.172805
      pz      :     1.101977  p :     2.944118
      px      :     0.766278
      py      :     1.075863
      dz2     :     0.003439  d :     0.041068
      dxz     :     0.004422
      dyz     :     0.007142
      dx2y2   :     0.012549
      dxy     :     0.013516

  4 C s       :     3.073444  s :     3.073444
      pz      :     0.948001  p :     2.440718
      px      :     0.773311
      py      :     0.719406
      dz2     :     0.004980  d :     0.075022
      dxz     :     0.008904
      dyz     :     0.016226
      dx2y2   :     0.022588
      dxy     :     0.022325

  5 C s       :     3.230024  s :     3.230024
      pz      :     1.034852  p :     3.007398
      px      :     0.947144
      py      :     1.025403
      dz2     :     0.003446  d :     0.035562
      dxz     :     0.005143
      dyz     :     0.003651
      dx2y2   :     0.013230
      dxy     :     0.010092

  6 O s       :     3.751963  s :     3.751963
      pz      :     1.830717  p :     4.617113
      px      :     1.338705
      py      :     1.447692
      dz2     :     0.006043  d :     0.034062
      dxz     :     0.003687
      dyz     :     0.004824
      dx2y2   :     0.010631
      dxy     :     0.008876

  7 I s       :     4.010856  s :     4.010856
      pz      :     3.963126  p :    11.044732
      px      :     3.141909
      py      :     3.939696
      dz2     :     2.006474  d :    10.058986
      dxz     :     2.021469
      dyz     :     2.001245
      dx2y2   :     2.018786
      dxy     :     2.011012

  8 H s       :     0.829198  s :     0.829198
      pz      :     0.004116  p :     0.019561
      px      :     0.012303
      py      :     0.003142

  9 H s       :     0.829348  s :     0.829348
      pz      :     0.004443  p :     0.019766
      px      :     0.005037
      py      :     0.010286

 10 H s       :     0.822488  s :     0.822488
      pz      :     0.004138  p :     0.019825
      px      :     0.005867
      py      :     0.009819

 11 H s       :     0.817719  s :     0.817719
      pz      :     0.004322  p :     0.019738
      px      :     0.005396
      py      :     0.010020

 12 H s       :     0.647878  s :     0.647878
      pz      :     0.011633  p :     0.043440
      px      :     0.023870
      py      :     0.007937


------------------------
MULLIKEN OVERLAP CHARGES
------------------------
B(  0-C ,  1-C ) :   0.9820 B(  0-C ,  2-C ) :  -0.1513 B(  0-C ,  4-C ) :  -0.1600 
B(  0-C ,  5-C ) :   0.8732 B(  0-C ,  8-H ) :   0.7937 B(  0-C ,  9-H ) :  -0.0575 
B(  0-C , 11-H ) :  -0.0617 B(  1-C ,  2-C ) :   0.8803 B(  1-C ,  3-C ) :  -0.1557 
B(  1-C ,  5-C ) :  -0.1330 B(  1-C ,  8-H ) :  -0.0503 B(  1-C ,  9-H ) :   0.7942 
B(  2-C ,  3-C ) :   0.7118 B(  2-C ,  5-C ) :  -0.1872 B(  2-C ,  7-I ) :  -0.1973 
B(  2-C ,  9-H ) :  -0.0520 B(  2-C , 10-H ) :   0.7919 B(  3-C ,  4-C ) :   0.5463 
B(  3-C ,  5-C ) :  -0.2073 B(  3-C ,  6-O ) :  -0.1839 B(  3-C ,  7-I ) :   0.5737 
B(  3-C , 10-H ) :  -0.0550 B(  4-C ,  5-C ) :   0.9261 B(  4-C ,  6-O ) :   0.5385 
B(  4-C ,  7-I ) :  -0.2294 B(  4-C , 12-H ) :  -0.1153 B(  5-C ,  8-H ) :  -0.0539 
B(  5-C , 11-H ) :   0.7899 B(  6-O , 12-H ) :   0.5697 B(  7-I , 12-H ) :   0.0805 



                     *******************************
                     * LOEWDIN POPULATION ANALYSIS *
                     *******************************

----------------------
LOEWDIN ATOMIC CHARGES
----------------------
   0 C :   -0.148928
   1 C :   -0.180332
   2 C :   -0.159867
   3 C :   -0.235141
   4 C :    0.175239
   5 C :   -0.131334
   6 O :   -0.493255
   7 I :    0.186384
   8 H :    0.170841
   9 H :    0.170626
  10 H :    0.177408
  11 H :    0.184157
  12 H :    0.284202

-------------------------------
LOEWDIN REDUCED ORBITAL CHARGES
-------------------------------
  0 C s       :     2.901240  s :     2.901240
      pz      :     0.963685  p :     3.164196
      px      :     1.104173
      py      :     1.096338
      dz2     :     0.005596  d :     0.083492
      dxz     :     0.003418
      dyz     :     0.014568
      dx2y2   :     0.032333
      dxy     :     0.027577

  1 C s       :     2.900561  s :     2.900561
      pz      :     1.010167  p :     3.197962
      px      :     1.086567
      py      :     1.101228
      dz2     :     0.005704  d :     0.081809
      dxz     :     0.010526
      dyz     :     0.005341
      dx2y2   :     0.029954
      dxy     :     0.030285

  2 C s       :     2.900711  s :     2.900711
      pz      :     0.977341  p :     3.174835
      px      :     1.109702
      py      :     1.087792
      dz2     :     0.005935  d :     0.084321
      dxz     :     0.011571
      dyz     :     0.007574
      dx2y2   :     0.026243
      dxy     :     0.032998

  3 C s       :     2.926352  s :     2.926352
      pz      :     1.089416  p :     3.224976
      px      :     1.029311
      py      :     1.106249
      dz2     :     0.006439  d :     0.083813
      dxz     :     0.007198
      dyz     :     0.012601
      dx2y2   :     0.027465
      dxy     :     0.030110

  4 C s       :     2.780874  s :     2.780874
      pz      :     0.904203  p :     2.879626
      px      :     1.042011
      py      :     0.933412
      dz2     :     0.011189  d :     0.164261
      dxz     :     0.016219
      dyz     :     0.030950
      dx2y2   :     0.054419
      dxy     :     0.051484

  5 C s       :     2.892469  s :     2.892469
      pz      :     1.014267  p :     3.161579
      px      :     1.043789
      py      :     1.103523
      dz2     :     0.005709  d :     0.077286
      dxz     :     0.009087
      dyz     :     0.005986
      dx2y2   :     0.030554
      dxy     :     0.025949

  6 O s       :     3.478045  s :     3.478045
      pz      :     1.796333  p :     4.741112
      px      :     1.405116
      py      :     1.539663
      dz2     :     0.033926  d :     0.274098
      dxz     :     0.018741
      dyz     :     0.052739
      dx2y2   :     0.097718
      dxy     :     0.070974

  7 I s       :     3.725662  s :     3.725662
      pz      :     3.936688  p :    10.974105
      px      :     3.134445
      py      :     3.902971
      dz2     :     2.015379  d :    10.113850
      dxz     :     2.033256
      dyz     :     2.001347
      dx2y2   :     2.045256
      dxy     :     2.018612

  8 H s       :     0.784475  s :     0.784475
      pz      :     0.008837  p :     0.044684
      px      :     0.028895
      py      :     0.006952

  9 H s       :     0.784019  s :     0.784019
      pz      :     0.009720  p :     0.045355
      px      :     0.011545
      py      :     0.024089

 10 H s       :     0.777440  s :     0.777440
      pz      :     0.009029  p :     0.045152
      px      :     0.013274
      py      :     0.022849

 11 H s       :     0.770416  s :     0.770416
      pz      :     0.009638  p :     0.045427
      px      :     0.011986
      py      :     0.023803

 12 H s       :     0.592451  s :     0.592451
      pz      :     0.029553  p :     0.123346
      px      :     0.072299
      py      :     0.021495


---------------------------------
LOEWDIN BOND ORDERS (THRESH 0.050000)
---------------------------------
B(  0-C ,  1-C ) :   1.4823 B(  0-C ,  2-C ) :   0.0892 B(  0-C ,  3-C ) :   0.1140 
B(  0-C ,  4-C ) :   0.0922 B(  0-C ,  5-C ) :   1.5295 B(  0-C ,  8-H ) :   0.8720 
B(  0-C ,  9-H ) :   0.0534 B(  0-C , 11-H ) :   0.0529 B(  1-C ,  2-C ) :   1.5062 
B(  1-C ,  3-C ) :   0.0967 B(  1-C ,  4-C ) :   0.1039 B(  1-C ,  5-C ) :   0.0906 
B(  1-C ,  8-H ) :   0.0534 B(  1-C ,  9-H ) :   0.8719 B(  1-C , 10-H ) :   0.0534 
B(  2-C ,  3-C ) :   1.4618 B(  2-C ,  4-C ) :   0.0914 B(  2-C ,  5-C ) :   0.1260 
B(  2-C ,  7-I ) :   0.1442 B(  2-C ,  9-H ) :   0.0554 B(  2-C , 10-H ) :   0.8652 
B(  3-C ,  4-C ) :   1.2878 B(  3-C ,  5-C ) :   0.0913 B(  3-C ,  6-O ) :   0.2185 
B(  3-C ,  7-I ) :   1.2704 B(  3-C , 10-H ) :   0.0523 B(  4-C ,  5-C ) :   1.2956 
B(  4-C ,  6-O ) :   1.5164 B(  4-C ,  7-I ) :   0.1334 B(  4-C , 11-H ) :   0.0542 
B(  5-C ,  6-O ) :   0.2298 B(  5-C ,  8-H ) :   0.0557 B(  5-C , 11-H ) :   0.8568 
B(  6-O ,  7-I ) :   0.0870 B(  6-O , 12-H ) :   0.9239 

------------------------------------------
LOEWDIN REDUCED ORBITAL POPULATIONS PER MO
-------------------------------------------
THRESHOLD FOR PRINTING IS 0.1%%
                      0         1         2         3         4         5   
                 -18.99521 -10.11722 -10.09398 -10.05497 -10.04792 -10.04503
                   2.00000   2.00000   2.00000   2.00000   2.00000   2.00000
                  --------  --------  --------  --------  --------  --------
 0 C  s               0.0       0.0       0.0       0.0      98.7       0.7
 0 C  py              0.0       0.0       0.0       0.0       0.0       0.1
 1 C  s               0.0       0.0       0.0       0.1       0.2       0.0
 1 C  px              0.0       0.0       0.0       0.1       0.0       0.0
 1 C  py              0.0       0.0       0.0       0.0       0.1       0.0
 2 C  s               0.0       0.0       0.0      99.5       0.0       0.0
 2 C  py              0.0       0.0       0.1       0.0       0.0       0.0
 3 C  s               0.0       0.0      99.6       0.0       0.0       0.0
 3 C  py              0.0       0.1       0.0       0.1       0.0       0.0
 4 C  s               0.0      99.2       0.0       0.0       0.0       0.0
 4 C  px              0.0       0.0       0.0       0.0       0.0       0.1
 5 C  s               0.0       0.0       0.0       0.0       0.7      98.9
 5 C  px              0.0       0.1       0.0       0.0       0.0       0.0
 5 C  py              0.0       0.0       0.0       0.0       0.1       0.0
 6 O  s              99.9       0.0       0.0       0.0       0.0       0.0
 6 O  py              0.0       0.1       0.0       0.0       0.0       0.0
 6 O  dxy             0.0       0.1       0.0       0.0       0.0       0.0

                      6         7         8         9        10        11   
                 -10.04255  -6.82975  -4.84841  -4.83251  -4.83152  -1.88383
                   2.00000   2.00000   2.00000   2.00000   2.00000   2.00000
                  --------  --------  --------  --------  --------  --------
 0 C  s               0.2       0.0       0.0       0.0       0.0       0.0
 1 C  s              99.4       0.0       0.0       0.0       0.0       0.0
 2 C  px              0.1       0.0       0.0       0.0       0.0       0.0
 3 C  px              0.0       0.2       0.0       0.0       0.0       0.1
 7 I  s               0.0      99.7       0.0       0.0       0.0       0.0
 7 I  pz              0.0       0.0       0.0       0.0     100.0       0.0
 7 I  px              0.0       0.0      99.9       0.0       0.0       0.0
 7 I  py              0.0       0.0       0.0     100.0       0.0       0.0
 7 I  dz2             0.0       0.0       0.0       0.0       0.0      22.5
 7 I  dx2y2           0.0       0.0       0.0       0.0       0.0      77.4

                     12        13        14        15        16        17   
                  -1.87982  -1.87886  -1.86618  -1.86617  -1.04286  -0.84137
                   2.00000   2.00000   2.00000   2.00000   2.00000   2.00000
                  --------  --------  --------  --------  --------  --------
 0 C  s               0.0       0.0       0.0       0.0       0.1      11.0
 0 C  px              0.0       0.0       0.0       0.0       0.1       2.7
 0 C  dz2             0.0       0.0       0.0       0.0       0.0       0.1
 1 C  s               0.0       0.0       0.0       0.0       0.0      11.9
 1 C  px              0.0       0.0       0.0       0.0       0.0       0.9
 1 C  py              0.0       0.0       0.0       0.0       0.0       2.1
 1 C  dz2             0.0       0.0       0.0       0.0       0.0       0.1
 2 C  s               0.0       0.0       0.0       0.0       0.1      13.8
 2 C  px              0.0       0.0       0.0       0.0       0.0       0.6
 2 C  py              0.0       0.0       0.0       0.0       0.1       2.3
 2 C  dz2             0.0       0.0       0.0       0.0       0.0       0.2
 3 C  s               0.0       0.0       0.0       0.0       1.0      13.8
 3 C  px              0.0       0.0       0.0       0.0       0.1       2.0
 3 C  py              0.0       0.0       0.0       0.0       1.6       0.3
 3 C  dz2             0.0       0.0       0.0       0.0       0.0       0.2
 4 C  s               0.0       0.0       0.0       0.0      10.6       7.2
 4 C  px              0.0       0.0       0.0       0.0       2.1       1.1
 4 C  py              0.0       0.0       0.0       0.0       7.3       5.9
 4 C  dz2             0.0       0.0       0.0       0.0       0.4       0.1
 4 C  dx2y2           0.0       0.0       0.0       0.0       0.3       0.0
 4 C  dxy             0.0       0.0       0.0       0.0       0.5       0.1
 5 C  s               0.0       0.0       0.0       0.0       0.9       9.9
 5 C  px              0.0       0.0       0.0       0.0       1.5       0.4
 5 C  py              0.0       0.0       0.0       0.0       0.2       2.4
 5 C  dz2             0.0       0.0       0.0       0.0       0.0       0.1
 6 O  s               0.0       0.0       0.0       0.0      58.2       1.9
 6 O  px              0.0       0.0       0.0       0.0       0.2       0.6
 6 O  py              0.0       0.0       0.0       0.0       2.8       0.7
 6 O  dz2             0.0       0.0       0.0       0.0       0.2       0.2
 6 O  dx2y2           0.0       0.0       0.0       0.0       0.0       0.2
 6 O  dxy             0.0       0.0       0.0       0.0       0.1       0.2
 7 I  s               0.0       0.0       0.0       0.0       0.0       1.0
 7 I  px              0.0       0.0       0.0       0.0       0.2       0.8
 7 I  dz2             0.0       0.0       0.0      77.5       0.0       0.1
 7 I  dxz             0.0     100.0       0.0       0.0       0.0       0.0
 7 I  dyz             0.0       0.0     100.0       0.0       0.0       0.0
 7 I  dx2y2           0.1       0.0       0.0      22.5       0.0       0.2
 7 I  dxy            99.9       0.0       0.0       0.0       0.0       0.0
 8 H  s               0.0       0.0       0.0       0.0       0.0       1.0
 9 H  s               0.0       0.0       0.0       0.0       0.0       1.1
10 H  s               0.0       0.0       0.0       0.0       0.0       1.3
11 H  s               0.0       0.0       0.0       0.0       0.1       0.9
12 H  s               0.0       0.0       0.0       0.0       9.2       0.5
12 H  px              0.0       0.0       0.0       0.0       2.1       0.1

                     18        19        20        21        22        23   
                  -0.74615  -0.72704  -0.66943  -0.59550  -0.59132  -0.52520
                   2.00000   2.00000   2.00000   2.00000   2.00000   2.00000
                  --------  --------  --------  --------  --------  --------
 0 C  s              14.1       1.6       7.4       3.6       0.0       5.4
 0 C  px              0.3       0.0       0.3       0.5       0.0      10.5
 0 C  py              0.9       8.3       0.0       0.1      13.7       0.1
 0 C  dz2             0.1       0.0       0.0       0.0       0.0       0.0
 0 C  dxy             0.0       0.3       0.0       0.0       0.2       0.0
 1 C  s               1.2      17.8       0.1       2.1       7.1       1.3
 1 C  px              4.6       0.5       3.9       2.5       4.6       2.9
 1 C  py              1.7       0.2       0.9       3.9       0.3       0.6
 1 C  dz2             0.0       0.1       0.0       0.0       0.0       0.0
 1 C  dx2y2           0.1       0.1       0.1       0.1       0.0       0.0
 2 C  s               6.7       8.8       3.4       2.6       5.9       0.6
 2 C  px              3.8       4.0       0.1       1.2       6.3       9.9
 2 C  py              1.4       1.5       0.1       6.0       0.1       0.1
 2 C  dx2y2           0.1       0.2       0.0       0.1       0.1       0.1
 3 C  s              16.0       1.9       0.6       5.7       0.0       1.6
 3 C  px              2.5       0.2      13.9       1.2       0.0       1.6
 3 C  py              0.9       7.1       0.2       2.0      13.7       3.8
 3 C  dz2             0.1       0.0       0.0       0.0       0.0       0.0
 3 C  dx2y2           0.0       0.0       0.2       0.0       0.0       0.2
 3 C  dxy             0.0       0.2       0.0       0.0       0.2       0.1
 4 C  s               0.0      11.3       2.1       0.3       4.4       0.1
 4 C  px              8.0       1.7       0.2       6.1       4.5       4.1
 4 C  py              2.7       1.2       0.1      11.8       0.1       6.9
 4 C  dx2y2           0.1       0.1       0.0       0.0       0.1       0.5
 4 C  dxy             0.1       0.1       0.0       0.1       0.0       0.0
 5 C  s              11.3       7.7       0.6       1.3       7.6       1.6
 5 C  px              1.3       3.0       3.4       1.7       3.7       4.2
 5 C  py              1.0       1.0       1.2       6.4       0.3       0.0
 5 C  dx2y2           0.0       0.2       0.1       0.1       0.0       0.0
 5 C  dxy             0.1       0.0       0.0       0.0       0.0       0.2
 6 O  s               0.1       2.7       0.1       0.0       1.2       0.1
 6 O  px              0.4       3.5       1.6      15.8       3.5      15.8
 6 O  py              0.0       2.8       0.6       1.5       6.8       5.7
 6 O  dz2             0.0       0.3       0.0       0.0       0.0       0.1
 6 O  dx2y2           0.2       0.4       0.2       0.2       1.1       0.3
 6 O  dxy             0.2       0.6       0.3       0.4       0.0       0.1
 7 I  s              11.9       1.2      53.8      10.0       0.2       2.3
 7 I  px              1.2       0.1       0.2       1.3       0.0       1.6
 7 I  py              0.0       0.0       0.0       0.2       0.1       0.5
 7 I  dz2             0.2       0.0       0.0       0.1       0.0       0.0
 7 I  dx2y2           0.4       0.1       0.0       0.2       0.0       0.3
 7 I  dxy             0.0       0.0       0.0       0.1       0.1       0.2
 8 H  s               2.2       0.3       2.1       1.5       0.0       8.2
 8 H  px              0.2       0.0       0.2       0.1       0.0       0.5
 9 H  s               0.2       3.1       0.0       1.3       3.6       0.4
 9 H  py              0.0       0.2       0.0       0.0       0.3       0.0
10 H  s               1.2       1.6       0.6       2.1       3.4       1.4
10 H  py              0.1       0.1       0.0       0.1       0.2       0.1
11 H  s               1.8       1.4       0.1       1.5       3.7       0.0
11 H  py              0.1       0.1       0.0       0.0       0.3       0.0
12 H  s               0.1       1.8       0.8       3.9       2.0       5.4
12 H  px              0.0       0.3       0.0       0.3       0.2       0.2

                     24        25        26        27        28        29   
                  -0.47861  -0.44774  -0.41788  -0.40101  -0.39011  -0.36875
                   2.00000   2.00000   2.00000   2.00000   2.00000   2.00000
                  --------  --------  --------  --------  --------  --------
 0 C  s               0.4       0.6       0.8       0.0       0.3       0.0
 0 C  pz              0.0       0.0       0.0       3.7       0.0       0.0
 0 C  px              6.3       1.1       0.9       0.0      25.8       0.1
 0 C  py              2.4       9.8       0.7       0.0       0.0      11.5
 0 C  dx2y2           0.1       0.0       0.1       0.0       0.5       0.0
 0 C  dxy             0.0       0.0       0.2       0.0       0.0       0.3
 1 C  s               0.7       1.0       1.3       0.0       0.4       0.1
 1 C  pz              0.0       0.0       0.0       3.0       0.0       0.0
 1 C  px              0.1      16.5       3.1       0.0       3.6       0.3
 1 C  py             18.9       2.1       0.2       0.0       1.0      10.7
 1 C  dx2y2           0.0       0.1       0.0       0.0       0.5       0.1
 1 C  dxy             0.0       0.0       0.2       0.0       0.0       0.2
 2 C  s               0.3       1.1       0.4       0.0       0.7       0.6
 2 C  pz              0.0       0.0       0.0       5.0       0.0       0.0
 2 C  px              0.0       5.2       9.4       0.0       3.6       0.6
 2 C  py             12.4       4.8      14.7       0.0       2.0       0.0
 2 C  dx2y2           0.0       0.1       0.2       0.0       0.1       0.0
 2 C  dxy             0.0       0.3       0.3       0.0       0.0       0.2
 3 C  s               0.3       2.5       1.7       0.0       0.1       1.2
 3 C  pz              0.0       0.0       0.0      13.8       0.0       0.0
 3 C  px              1.7       0.3       0.3       0.0      14.8       0.4
 3 C  py              7.6       4.1       0.4       0.0       0.1       0.8
 3 C  dxy             0.1       0.0       0.4       0.0       0.0       0.0
 4 C  s               0.4       0.2       2.1       0.0       0.4       0.3
 4 C  pz              0.0       0.0       0.0      29.1       0.0       0.0
 4 C  px              3.3       7.3       5.2       0.0       0.1       0.0
 4 C  py              1.3       0.4       1.1       0.0       1.7       1.5
 4 C  dx2y2           0.2       0.1       0.2       0.0       0.2       0.5
 4 C  dxy             0.2       0.2       0.1       0.0       0.1       0.1
 5 C  s               1.9       0.4       0.4       0.0       0.9       0.0
 5 C  pz              0.0       0.0       0.0       9.2       0.0       0.0
 5 C  px              4.9       3.5      15.2       0.0       0.2       0.9
 5 C  py              3.8      10.8       7.9       0.0       2.5      11.1
 5 C  dxz             0.0       0.0       0.0       0.1       0.0       0.0
 5 C  dx2y2           0.0       0.1       0.3       0.0       0.3       0.0
 5 C  dxy             0.0       0.2       0.1       0.0       0.0       0.1
 6 O  s               1.7       0.6       0.0       0.0       0.3       5.5
 6 O  pz              0.0       0.0       0.0      32.0       0.0       0.0
 6 O  px              6.1       0.2       1.0       0.0       0.3      15.1
 6 O  py              1.9      10.9       0.6       0.0       2.7      21.5
 6 O  dz2             0.2       0.0       0.0       0.0       0.0       0.2
 6 O  dyz             0.0       0.0       0.0       1.2       0.0       0.0
 6 O  dx2y2           0.0       0.5       0.0       0.0       0.0       0.8
 6 O  dxy             0.1       0.3       0.4       0.0       0.1       0.1
 7 I  s               1.4       0.6       0.2       0.0       2.7       0.1
 7 I  pz              0.0       0.0       0.0       1.5       0.0       0.0
 7 I  px              1.9       1.8       1.2       0.0      16.6       1.4
 7 I  py              0.4       0.3       0.2       0.0       0.1       0.6
 7 I  dz2             0.1       0.0       0.0       0.0       0.2       0.0
 7 I  dxz             0.0       0.0       0.0       0.3       0.0       0.0
 7 I  dx2y2           0.1       0.2       0.2       0.0       0.3       0.3
 7 I  dxy             0.2       0.2       0.0       0.0       0.0       0.0
 8 H  s               1.3       0.1       1.6       0.0      14.7       0.1
 8 H  px              0.0       0.0       0.1       0.0       0.2       0.0
 8 H  py              0.0       0.1       0.0       0.0       0.0       0.1
 9 H  s               6.8       6.6       0.0       0.0       0.2       4.9
 9 H  px              0.1       0.0       0.0       0.0       0.0       0.1
 9 H  py              0.2       0.3       0.0       0.0       0.0       0.0
10 H  s               3.3       1.2      14.1       0.0       1.2       0.6
10 H  px              0.1       0.1       0.1       0.0       0.0       0.0
10 H  py              0.0       0.0       0.3       0.0       0.0       0.0
11 H  s               5.2       2.4      11.2       0.0       0.1       3.6
11 H  px              0.0       0.2       0.0       0.0       0.0       0.1
11 H  py              0.2       0.0       0.3       0.0       0.0       0.0
12 H  s               1.0       0.2       0.5       0.0       0.0       2.9
12 H  pz              0.0       0.0       0.0       0.5       0.0       0.0
12 H  py              0.0       0.2       0.0       0.0       0.1       0.3

                     30        31        32        33        34        35   
                  -0.34230  -0.32909  -0.31826  -0.28280  -0.26088  -0.23620
                   2.00000   2.00000   2.00000   2.00000   2.00000   2.00000
                  --------  --------  --------  --------  --------  --------
 0 C  s               0.2       0.0       0.0       0.0       0.0       0.0
 0 C  pz              0.0      12.4       0.0      17.0       0.0       9.7
 0 C  px              0.4       0.0       5.8       0.0       0.1       0.0
 0 C  py              5.6       0.0       1.4       0.0       0.0       0.0
 0 C  dyz             0.0       0.0       0.0       0.0       0.0       0.3
 0 C  dx2y2           0.2       0.0       0.6       0.0       0.0       0.0
 0 C  dxy             0.2       0.0       0.1       0.0       0.0       0.0
 1 C  s               0.1       0.0       0.0       0.0       0.1       0.0
 1 C  pz              0.0      19.2       0.0       4.6       0.0       4.1
 1 C  px              3.6       0.0       6.7       0.0       0.4       0.0
 1 C  py             10.7       0.0       1.6       0.0       0.0       0.0
 1 C  dxz             0.0       0.0       0.0       0.1       0.0       0.4
 1 C  dx2y2           0.2       0.0       0.2       0.0       0.0       0.0
 1 C  dxy             0.7       0.0       0.1       0.0       0.0       0.0
 2 C  s               0.1       0.0       0.1       0.0       0.3       0.0
 2 C  pz              0.0      18.5       0.0       2.0       0.0      22.7
 2 C  px              3.5       0.0       5.6       0.0       1.3       0.0
 2 C  py              7.0       0.0       1.7       0.0       0.1       0.0
 2 C  dxz             0.0       0.1       0.0       0.2       0.0       0.0
 2 C  dx2y2           0.1       0.0       0.3       0.0       0.0       0.0
 2 C  dxy             0.4       0.0       0.4       0.0       0.0       0.0
 3 C  s               0.1       0.0       0.1       0.0       0.0       0.0
 3 C  pz              0.0       7.1       0.0      15.7       0.0       3.9
 3 C  px              4.8       0.0       7.1       0.0       0.1       0.0
 3 C  py              8.5       0.0       3.1       0.0       1.1       0.0
 3 C  dxz             0.0       0.0       0.0       0.1       0.0       0.1
 3 C  dyz             0.0       0.2       0.0       0.0       0.0       0.2
 3 C  dx2y2           0.2       0.0       0.5       0.0       0.0       0.0
 3 C  dxy             0.0       0.0       0.1       0.0       0.3       0.0
 4 C  s               0.1       0.0       0.0       0.0       0.2       0.0
 4 C  pz              0.0       1.2       0.0       0.0       0.0       0.8
 4 C  px              0.1       0.0       7.6       0.0       0.4       0.0
 4 C  py              1.4       0.0       3.0       0.0       0.2       0.0
 4 C  dxz             0.0       0.1       0.0       0.2       0.0       0.4
 4 C  dyz             0.0       0.6       0.0       0.1       0.0       0.0
 4 C  dx2y2           0.0       0.0       0.5       0.0       0.0       0.0
 4 C  dxy             0.8       0.0       0.2       0.0       0.0       0.0
 5 C  s               0.3       0.0       0.1       0.0       0.0       0.0
 5 C  pz              0.0       2.3       0.0      11.4       0.0      21.2
 5 C  px              0.4       0.0       7.7       0.0       0.0       0.0
 5 C  py              4.8       0.0       1.5       0.0       0.1       0.0
 5 C  dyz             0.0       0.1       0.0       0.1       0.0       0.1
 5 C  dx2y2           0.0       0.0       0.4       0.0       0.0       0.0
 5 C  dxy             0.1       0.0       0.3       0.0       0.0       0.0
 6 O  s               0.8       0.0       0.9       0.0       0.0       0.0
 6 O  pz              0.0      35.4       0.0       0.5       0.0       3.4
 6 O  px              2.5       0.0       2.2       0.0       1.5       0.0
 6 O  py             15.2       0.0       3.1       0.0       0.3       0.0
 6 O  dxz             0.0       0.0       0.0       0.2       0.0       0.1
 6 O  dx2y2           0.1       0.0       0.5       0.0       0.2       0.0
 6 O  dxy             0.0       0.0       0.2       0.0       0.3       0.0
 7 I  s               0.5       0.0       0.6       0.0       0.0       0.0
 7 I  pz              0.0       1.4       0.0      46.8       0.0      31.6
 7 I  px              9.9       0.0      18.6       0.0       0.1       0.0
 7 I  py              0.4       0.0       0.5       0.0      91.7       0.0
 7 I  dxz             0.0       0.1       0.0       0.5       0.0       0.3
 7 I  dx2y2           0.1       0.0       0.0       0.0       0.0       0.0
 8 H  s               0.9       0.0       5.1       0.0       0.1       0.0
 8 H  pz              0.0       0.1       0.0       0.2       0.0       0.1
 9 H  s              10.8       0.0       0.0       0.0       0.1       0.0
 9 H  pz              0.0       0.1       0.0       0.0       0.0       0.0
10 H  s               1.7       0.0       5.1       0.0       0.1       0.0
10 H  pz              0.0       0.1       0.0       0.0       0.0       0.3
10 H  px              0.1       0.0       0.0       0.0       0.0       0.0
11 H  s               1.2       0.0       5.1       0.0       0.1       0.0
11 H  pz              0.0       0.0       0.0       0.1       0.0       0.2
12 H  s               0.3       0.0       0.8       0.0       0.4       0.0
12 H  pz              0.0       0.6       0.0       0.0       0.0       0.1
12 H  px              0.0       0.0       0.0       0.0       0.2       0.0
12 H  py              0.2       0.0       0.1       0.0       0.0       0.0

                     36        37        38        39        40        41   
                  -0.21607  -0.07018  -0.04814  -0.03057   0.05492   0.09647
                   2.00000   0.00000   0.00000   0.00000   0.00000   0.00000
                  --------  --------  --------  --------  --------  --------
 0 C  s               0.0       0.2       0.0       0.0       0.4       7.1
 0 C  pz              5.4       0.0      20.8      10.2       0.0       0.0
 0 C  px              0.0       0.0       0.0       0.0       0.7       6.9
 0 C  py              0.0       0.0       0.0       0.0       0.4       0.1
 0 C  dxz             0.0       0.0       0.1       0.1       0.0       0.0
 0 C  dyz             0.4       0.0       0.5       0.9       0.0       0.0
 0 C  dx2y2           0.0       0.0       0.0       0.0       0.0       1.8
 1 C  s               0.0       0.3       0.0       0.0       0.4       9.1
 1 C  pz             19.6       0.0       0.3      29.4       0.0       0.0
 1 C  px              0.0       0.7       0.0       0.0       0.1       2.0
 1 C  py              0.0       0.1       0.0       0.0       0.2       6.9
 1 C  dxz             0.0       0.0       1.1       0.0       0.0       0.0
 1 C  dyz             0.0       0.0       0.3       0.2       0.0       0.0
 1 C  dx2y2           0.0       0.0       0.0       0.0       0.0       0.8
 1 C  dxy             0.0       0.2       0.0       0.0       0.0       0.9
 2 C  s               0.0       0.0       0.0       0.0       0.5       9.1
 2 C  pz              0.6       0.0      25.0       6.9       0.0       0.0
 2 C  px              0.0       0.1       0.0       0.0       1.3       1.7
 2 C  py              0.0       1.0       0.0       0.0       0.3       6.5
 2 C  dxz             0.4       0.0       0.0       1.0       0.0       0.0
 2 C  dyz             0.2       0.0       0.4       0.1       0.0       0.0
 2 C  dx2y2           0.0       0.6       0.0       0.0       0.1       0.0
 2 C  dxy             0.0       0.5       0.0       0.0       0.0       0.6
 3 C  s               0.0       6.5       0.0       0.0       2.8       1.7
 3 C  pz             13.9       0.0      18.7       5.1       0.0       0.0
 3 C  px              0.0      24.8       0.0       0.0       0.9       0.9
 3 C  py              0.0       0.0       0.0       0.0       0.7       0.4
 3 C  dz2             0.0       0.3       0.0       0.0       0.1       0.1
 3 C  dxz             0.1       0.0       0.1       0.1       0.0       0.0
 3 C  dyz             0.2       0.0       0.5       1.1       0.0       0.0
 3 C  dx2y2           0.0       0.2       0.0       0.0       0.4       0.4
 3 C  dxy             0.0       0.0       0.0       0.0       0.1       0.1
 4 C  s               0.0       0.1       0.0       0.0       4.3       1.4
 4 C  pz             14.1       0.0       0.0      26.5       0.0       0.0
 4 C  px              0.0       0.3       0.0       0.0       3.4       0.2
 4 C  py              0.0       1.1       0.0       0.0       5.2       1.3
 4 C  dz2             0.0       0.0       0.0       0.0       0.6       0.0
 4 C  dxz             0.1       0.0       1.1       0.0       0.0       0.0
 4 C  dyz             0.8       0.0       0.3       0.0       0.0       0.0
 4 C  dx2y2           0.0       0.9       0.0       0.0       0.0       0.0
 4 C  dxy             0.0       0.3       0.0       0.0       0.9       0.2
 5 C  s               0.0       0.3       0.0       0.0       1.4       2.9
 5 C  pz              6.6       0.0      22.7       4.1       0.0       0.0
 5 C  px              0.0       0.7       0.0       0.0       1.7       1.9
 5 C  py              0.0       0.0       0.0       0.0       0.2       0.5
 5 C  dxz             0.3       0.0       0.1       1.2       0.0       0.0
 5 C  dyz             0.0       0.0       0.4       0.1       0.0       0.0
 5 C  dx2y2           0.0       0.0       0.0       0.0       0.0       0.4
 5 C  dxy             0.0       0.2       0.0       0.0       0.6       0.5
 6 O  s               0.0       0.1       0.0       0.0       9.0       0.1
 6 O  pz             18.6       0.0       0.0       5.6       0.0       0.0
 6 O  px              0.0       0.4       0.0       0.0       6.3       0.1
 6 O  py              0.0       0.3       0.0       0.0       2.2       0.5
 6 O  dz2             0.0       0.0       0.0       0.0       0.3       0.0
 6 O  dxz             0.6       0.0       1.0       0.6       0.0       0.0
 6 O  dyz             1.2       0.0       0.2       2.9       0.0       0.0
 6 O  dx2y2           0.0       0.1       0.0       0.0       2.8       0.5
 6 O  dxy             0.0       0.1       0.0       0.0       0.1       0.8
 7 I  s               0.0       3.0       0.0       0.0       4.0       1.3
 7 I  pz             15.6       0.0       1.2       0.4       0.0       0.0
 7 I  px              0.0      35.9       0.0       0.0       0.9       1.7
 7 I  py              0.0       0.1       0.0       0.0       3.4       2.6
 7 I  dz2             0.0       3.5       0.0       0.0       0.8       0.9
 7 I  dxz             0.6       0.0       2.9       1.4       0.0       0.0
 7 I  dyz             0.0       0.0       0.2       0.3       0.0       0.0
 7 I  dx2y2           0.0      14.4       0.0       0.0       8.0       0.0
 7 I  dxy             0.0       0.0       0.0       0.0       2.5       0.0
 8 H  s               0.0       0.0       0.0       0.0       0.2       5.5
 8 H  pz              0.1       0.0       0.6       0.3       0.0       0.0
 8 H  px              0.0       0.0       0.0       0.0       0.1       2.2
 9 H  s               0.0       0.4       0.0       0.0       0.0       4.6
 9 H  pz              0.3       0.0       0.0       0.9       0.0       0.0
 9 H  px              0.0       0.1       0.0       0.0       0.0       0.3
 9 H  py              0.0       0.0       0.0       0.0       0.0       2.0
10 H  s               0.0       1.0       0.0       0.0       0.2       4.9
10 H  pz              0.0       0.0       0.7       0.2       0.0       0.0
10 H  px              0.0       0.1       0.0       0.0       0.1       0.7
10 H  py              0.0       0.0       0.0       0.0       0.0       1.6
11 H  s               0.0       0.5       0.0       0.0       0.8       2.2
11 H  pz              0.1       0.0       0.7       0.1       0.0       0.0
11 H  px              0.0       0.1       0.0       0.0       0.0       0.1
11 H  py              0.0       0.0       0.0       0.0       0.0       0.7
12 H  s               0.0       0.1       0.0       0.0      23.7       0.1
12 H  pz              0.4       0.0       0.0       0.2       0.0       0.0
12 H  px              0.0       0.0       0.0       0.0       6.8       0.0

                     42        43        44        45        46        47   
                   0.10982   0.11472   0.12091   0.12464   0.14149   0.15280
                   0.00000   0.00000   0.00000   0.00000   0.00000   0.00000
                  --------  --------  --------  --------  --------  --------
 0 C  s               0.0       7.5       1.9       0.0       6.9       2.9
 0 C  pz             14.8       0.0       0.0       0.0       0.0       0.0
 0 C  px              0.0       5.2       3.1       4.0      10.1       4.5
 0 C  py              0.0       1.3       1.3       1.6       1.8       1.1
 0 C  dz2             0.0       0.0       0.4       0.0       0.5       0.1
 0 C  dxz             0.5       0.0       0.0       0.0       0.0       0.0
 0 C  dx2y2           0.0       0.1       0.1       0.2       0.2       0.1
 0 C  dxy             0.0       0.0       0.1       0.2       0.1       0.1
 1 C  s               0.0       0.6       7.6       3.7       0.7       2.0
 1 C  pz             13.6       0.0       0.0       0.0       0.0       0.0
 1 C  px              0.0       0.2       0.6       5.9       4.6       3.1
 1 C  py              0.0       3.1       1.7       3.8       4.3       1.4
 1 C  dz2             0.0       0.1       0.0       0.7       0.1       0.2
 1 C  dyz             0.3       0.0       0.0       0.0       0.0       0.0
 1 C  dx2y2           0.0       0.0       0.1       0.0       0.5       0.0
 1 C  dxy             0.0       0.0       0.0       0.1       0.3       0.2
 2 C  s               0.0       0.3       5.3      10.7       3.4       0.3
 2 C  pz             11.2       0.0       0.0       0.0       0.0       0.0
 2 C  px              0.0       3.2       1.1       6.9       1.3       0.8
 2 C  py              0.0      12.1       0.1       1.4       8.4       0.5
 2 C  dz2             0.0       0.1       0.9       0.0       0.3       0.0
 2 C  dxz             0.2       0.0       0.0       0.0       0.0       0.0
 2 C  dyz             0.2       0.0       0.0       0.0       0.0       0.0
 2 C  dx2y2           0.0       0.3       0.2       0.2       0.2       0.5
 2 C  dxy             0.0       0.1       0.0       0.1       0.2       0.1
 3 C  s               0.0       2.3       6.7       6.9       1.7       1.2
 3 C  pz              8.7       0.0       0.0       0.0       0.0       0.0
 3 C  px              0.0       0.7       0.6       1.6       2.5       1.8
 3 C  py              0.0       1.0       1.1       0.9       0.6       0.9
 3 C  dz2             0.0       0.0       0.6       0.4       0.1       0.1
[...]
 2 C  py              1.5       2.4       0.7       0.5       0.3       0.0
 2 C  dz2             2.5       1.5       0.0       0.2       0.0       0.0
 2 C  dx2y2           0.7       1.3       6.9       1.2       0.2       0.0
 2 C  dxy             4.7       8.5       0.6       5.7       1.6       0.1
 3 C  s               2.8       0.1       0.2       0.1       0.2       0.1
 3 C  px              0.3       0.2       0.1       0.1       0.1       0.5
 3 C  py              0.1       0.2       4.4       0.1       0.1       0.0
 3 C  dz2             2.3       0.0       0.0       0.0       0.0       0.0
 3 C  dx2y2           3.1       0.6       0.0       1.1       0.5       0.2
 3 C  dxy             0.0       0.0      10.1       0.0       0.1       0.0
 4 C  s               2.7       0.1       0.0       2.1       2.4       0.0
 4 C  px              0.6       0.3       2.4       0.3       1.2       0.0
 4 C  py              0.2       0.2       1.5       1.6       3.1       0.1
 4 C  dz2             2.8       0.0       0.0       0.8       1.7       0.0
 4 C  dx2y2           0.8       0.5      11.2       0.1       4.1       0.1
 4 C  dxy             3.3       1.1       6.8       0.0       4.0       0.2
 5 C  s               4.8       0.9       0.2       0.1       0.1       0.0
 5 C  px              0.6       0.6       3.9       0.1       0.2       0.0
 5 C  py              0.4       2.4       0.5       0.7       0.7       0.1
 5 C  dz2             4.4       0.7       0.0       0.1       0.2       0.0
 5 C  dx2y2           0.3       1.0      10.7       0.9       1.0       0.0
 5 C  dxy             4.4       9.7       0.7       5.1       1.9       0.1
 6 O  s               0.8       0.4       0.5       5.7      21.3       0.6
 6 O  px              2.8       1.6       0.5       1.1       0.1       0.0
 6 O  py              0.0       0.2       1.8       5.2      13.2       0.4
 6 O  dz2             0.0       0.0       0.4       3.5      13.6       0.3
 6 O  dx2y2           0.3       1.0       2.7       0.7       0.2       0.0
 6 O  dxy             0.5       2.8       4.5       3.0       7.2       0.0
 7 I  s               0.0       0.1       0.1       0.2       3.0      95.2
 7 I  px              0.0       0.0       0.0       0.0       0.0       0.2
 8 H  s               1.5       1.3       0.0       3.1       0.7       0.0
 8 H  px              7.4       3.8       0.0       6.4       1.3       0.0
 8 H  py              0.0       0.1       0.2       0.1       0.0       0.0
 9 H  s               1.1       1.2       0.1       3.3       0.6       0.1
 9 H  px              1.5       0.2       0.2       1.6       0.2       0.0
 9 H  py              4.3       3.7       0.1       5.2       0.7       0.1
10 H  s               0.6       5.1       0.1       1.8       0.4       0.0
10 H  px              0.5       4.4       0.4       0.8       0.3       0.0
10 H  py              0.6      11.7       0.1       3.1       0.5       0.0
11 H  s               0.1       4.3       0.3       1.3       1.0       0.1
11 H  px              0.1       2.8       0.8       0.8       0.5       0.0
11 H  py              0.1      10.9       0.3       1.9       1.2       0.1
12 H  s               0.1       0.0       0.0       0.0       1.3       0.0
12 H  px              0.0       0.0       0.1       0.1       2.0       0.1
12 H  py              0.1       0.5       1.7       0.0       0.0       0.0

                    186       187       188       189       190       191   
                   4.56917  21.35150  21.86515  21.96267  22.14659  22.16730
                   0.00000   0.00000   0.00000   0.00000   0.00000   0.00000
                  --------  --------  --------  --------  --------  --------
 0 C  s               0.0      14.4      28.1       0.3      34.1       0.8
 0 C  dx2y2           0.2       0.0       0.0       0.0       0.0       0.0
 1 C  s               0.0      14.8      14.1      19.3       7.1      24.3
 2 C  s               0.0      17.7       1.2      25.4      12.0      28.2
 2 C  dxy             0.1       0.0       0.0       0.0       0.0       0.0
 3 C  s               0.1      25.6      42.3       0.2      23.2       0.4
 3 C  py              0.0       0.0       0.0       0.2       0.0       0.0
 3 C  dx2y2           0.2       0.0       0.0       0.0       0.0       0.0
 4 C  s               0.3      13.2       4.9      25.5      21.5      19.2
 4 C  px              0.4       0.0       0.0       0.1       0.0       0.0
 4 C  py              1.4       0.0       0.1       0.0       0.0       0.0
 4 C  dx2y2           1.1       0.0       0.0       0.0       0.0       0.0
 4 C  dxy             1.5       0.0       0.0       0.0       0.0       0.0
 5 C  s               0.2      14.1       8.8      28.5       1.6      26.6
 5 C  dx2y2           0.1       0.0       0.0       0.0       0.0       0.0
 5 C  dxy             0.2       0.0       0.0       0.0       0.0       0.0
 6 O  s               4.1       0.1       0.0       0.1       0.0       0.0
 6 O  px             21.7       0.0       0.0       0.0       0.0       0.0
 6 O  py              1.5       0.0       0.0       0.0       0.0       0.0
 6 O  dz2             3.6       0.0       0.0       0.0       0.0       0.0
 6 O  dx2y2          31.4       0.0       0.0       0.0       0.0       0.0
 6 O  dxy             3.4       0.0       0.0       0.0       0.0       0.0
12 H  s              12.9       0.0       0.0       0.0       0.0       0.0
12 H  px             14.7       0.0       0.0       0.0       0.0       0.0

                    192       193       194       195       196       197   
                  22.31393  34.41214  34.48935  34.62283  42.37095  43.63671
                   0.00000   0.00000   0.00000   0.00000   0.00000   0.00000
                  --------  --------  --------  --------  --------  --------
 0 C  s              21.8       0.0       0.0       0.0       0.0       0.0
 1 C  s              20.0       0.0       0.0       0.0       0.0       0.0
 2 C  s              14.9       0.0       0.0       0.0       0.0       0.0
 3 C  s               7.8       0.0       0.0       0.0       0.0       0.0
 4 C  s              15.2       0.0       0.0       0.0       0.0       0.0
 5 C  s              20.0       0.0       0.0       0.0       0.0       0.0
 6 O  s               0.0       0.0       0.0       0.0       0.0      99.9
 7 I  s               0.0       0.0       0.0       0.1      99.9       0.0
 7 I  pz              0.0     100.0       0.0       0.0       0.0       0.0
 7 I  px              0.0       0.0       0.0      99.7       0.0       0.0
 7 I  py              0.0       0.0      99.8       0.0       0.0       0.0

                    198   
                 117.82275
                   0.00000
                  --------
 7 I  s             100.0


                      *****************************
                      * MAYER POPULATION ANALYSIS *
                      *****************************

  NA   - Mulliken gross atomic population
  ZA   - Total nuclear charge
  QA   - Mulliken gross atomic charge
  VA   - Mayer's total valence
  BVA  - Mayer's bonded valence
  FA   - Mayer's free valence

  ATOM       NA         ZA         QA         VA         BVA        FA
  0 C      6.1129     6.0000    -0.1129     3.8082     3.8082     0.0000
  1 C      6.1659     6.0000    -0.1659     3.8474     3.8474     0.0000
  2 C      6.1143     6.0000    -0.1143     3.7733     3.7733     0.0000
  3 C      6.1580     6.0000    -0.1580     3.7730     3.7730     0.0000
  4 C      5.5892     6.0000     0.4108     3.7547     3.7547     0.0000
  5 C      6.2730     6.0000    -0.2730     3.8499     3.8499     0.0000
  6 O      8.4031     8.0000    -0.4031     2.0275     2.0275    -0.0000
  7 I     25.1146    25.0000    -0.1146     1.1273     1.1273    -0.0000
  8 H      0.8488     1.0000     0.1512     0.9669     0.9669     0.0000
  9 H      0.8491     1.0000     0.1509     0.9676     0.9676     0.0000
 10 H      0.8423     1.0000     0.1577     0.9693     0.9693     0.0000
 11 H      0.8375     1.0000     0.1625     0.9656     0.9656    -0.0000
 12 H      0.6913     1.0000     0.3087     0.9286     0.9286     0.0000

  Mayer bond orders larger than 0.100000
B(  0-C ,  1-C ) :   1.4021 B(  0-C ,  5-C ) :   1.4067 B(  0-C ,  8-H ) :   0.9453 
B(  1-C ,  2-C ) :   1.4186 B(  1-C ,  9-H ) :   0.9446 B(  2-C ,  3-C ) :   1.3460 
B(  2-C , 10-H ) :   0.9381 B(  3-C ,  4-C ) :   1.3489 B(  3-C ,  7-I ) :   1.0331 
B(  4-C ,  5-C ) :   1.3684 B(  4-C ,  6-O ) :   1.0154 B(  5-C , 11-H ) :   0.9443 
B(  6-O , 12-H ) :   0.8404 

-------
TIMINGS
-------

Total SCF time: 0 days 0 hours 0 min 15 sec 

Total time                  ....      15.101 sec
Sum of individual times     ....      14.654 sec  ( 97.0%)

SCF preparation             ....       0.164 sec  (  1.1%)
Fock matrix formation       ....      13.683 sec  ( 90.6%)
  Startup                   ....       0.056 sec  (  0.4% of F)
  Split-RI-J                ....       2.593 sec  ( 19.0% of F)
  XC integration            ....      10.547 sec  ( 77.1% of F)
    XC Preparation          ....       0.000 sec  (  0.0% of XC)
    Basis function eval.    ....       1.757 sec  ( 16.7% of XC)
    Density eval.           ....       2.996 sec  ( 28.4% of XC)
    XC-Functional eval.     ....       1.193 sec  ( 11.3% of XC)
    XC-Potential eval.      ....       3.718 sec  ( 35.3% of XC)
Diagonalization             ....       0.000 sec  (  0.0%)
Density matrix formation    ....       0.220 sec  (  1.5%)
Total Energy calculation    ....       0.032 sec  (  0.2%)
Population analysis         ....       0.086 sec  (  0.6%)
Orbital Transformation      ....       0.048 sec  (  0.3%)
Orbital Orthonormalization  ....       0.000 sec  (  0.0%)
DIIS solution               ....       0.373 sec  (  2.5%)
  MO trafo                  ....       0.000 sec  (  0.0 % of DIIS)
  Orb grad                  ....       0.000 sec  (  0.0 % of DIIS)
  Energy W gradient         ....       0.000 sec  (  0.0 % of DIIS)
  DIIS error                ....       0.008 sec  (  2.2 % of DIIS)
  DIIS work                 ....       0.320 sec  ( 85.7 % of DIIS)
  Form Q                    ....       0.000 sec  (  0.0 % of DIIS)
  Form QpQm                 ....       0.000 sec  (  0.0 % of DIIS)
  Exp/Cayley                ....       0.000 sec  (  0.0 % of DIIS)
  Orb update                ....       0.000 sec  (  0.0 % of DIIS)
  Wake-sleep                ....       0.020 sec  (  5.4 % of DIIS)
SOSCF solution              ....       0.047 sec  (  0.3%)
  MO trafo                  ....       0.036 sec  ( 75.3 % of SOSCF)
  Orb grad                  ....       0.001 sec  (  1.1 % of SOSCF)
  Rot update                ....       0.000 sec  (  0.1 % of SOSCF)
  Step                      ....       0.011 sec  ( 23.4 % of SOSCF)
Finished LeanSCF after  15.2 sec

Maximum memory used throughout the entire LEANSCF-calculation: 21.5 MB


-------------------------------------------------------------------------------
                          DFT DISPERSION CORRECTION                            
                                                                               
                                DFTD4 V3.4.0                                   
-------------------------------------------------------------------------------
The R2SCAN3C composite method is recognized
Using three-body term ABC
Active option DFTDOPT                   ...         5   

-------------------------   ----------------
Dispersion correction           -0.004885420
-------------------------   ----------------

 ** NOTE ** -> element i  will be treated as br
------------------   -----------------
gCP correction             0.003967472
------------------   -----------------

-------------------------   --------------------
FINAL SINGLE POINT ENERGY      -604.540112765185
-------------------------   --------------------


------------------------------------------------------------------------------
                              ORCA PROPERTY CALCULATIONS
------------------------------------------------------------------------------

GBWName                                 ... sp_gas.gbw
Number of atoms                         ...     13
Number of basis functions               ...    199
Max core memory                         ...   1024 MB

Electric properties:
Dipole moment                           ... YES
Quadrupole moment                       ...  NO
Static polarizability (Dipole/Dipole)   ...  NO
Static polarizability (Dipole/Quad.)    ...  NO
Static polarizability (Quad./Quad.)     ...  NO
Static polarizability (Velocity)        ...  NO

Atomic electric properties:
Dipole moment                           ...  NO
Quadrupole moment                       ...  NO
Static polarizability                   ...  NO

Choice of electric origin               ... Center of mass
Position of electric origin             ...    -0.000086     0.000006     0.000000

General magnetic properties:
Magnetizability                         ...  NO

EPR properties:
g-Tensor (aka g-matrix)                 ...  NO
Zero-Field splitting spin-orbit         ...  NO
Zero-field splitting spin-spin          ...  NO
Hyperfine couplings                     ...  NO (   0 nuclei)
Quadrupole couplings                    ...  NO (   0 nuclei)
Contact density                         ...  NO (   0 nuclei)

NMR properties:
Chemical shifts                         ...  NO (   0 nuclei)
Spin-rotation constants                 ...  NO (   0 nuclei)
Spin-spin couplings                     ...  NO (   0 nuclei,    0 pairs)

Choice of magnetic origin               ... GIAO
Position of magnetic origin             ...     0.000000     0.000000     0.000000

Properties with geometric perturbations:
SCF Hessian                             ...  NO
IR spectrum                             ...  NO
VCD spectrum                            ...  NO
X-ray spectroscopy properties:
SCF XES/XAS/RIXS spectra                ...  NO


-------------
DIPOLE MOMENT
-------------

Method             : SCF
Type of density    : Electron Density
Multiplicity       :   1
Irrep              :   0
Energy             :  -604.5391948177136783 Eh
Relativity type    : 
Basis              : AO
                                X                 Y                 Z
Electronic contribution:    112.882236793       9.623179969      -0.001520431
Nuclear contribution   :   -113.053453076      -9.345201850       0.001563399
                        -----------------------------------------
Total Dipole Moment    :     -0.171216283       0.277978119       0.000042968
                        -----------------------------------------
Magnitude (a.u.)       :      0.326476419
Magnitude (Debye)      :      0.829837108



--------------------
Rotational spectrum 
--------------------
 
Rotational constants in cm-1:             0.096018             0.024220             0.019342 
Rotational constants in MHz :          2878.533413           726.110258           579.844454 

Dipole components along the rotational axes: 
x,y,z [a.u.] :     0.162527     0.283146     0.000038 
x,y,z [Debye]:     0.413110     0.719701     0.000097 

 

Dipole moment calculation done in   0.0 sec 

Maximum memory used throughout the entire PROP-calculation: 13.0 MB

--------------------------------
SUGGESTED CITATIONS FOR THIS RUN
--------------------------------

Below you find a list of papers that are relevant to this ORCA run
We neither can nor want to force you to cite these papers, but we appreciate if you do
You receive ORCA, which is the product of decades of hard work by many enthusiastic individuals, for free
The only thing we kindly ask in return is that you cite our papers,
We deeply appreciate it, if you show your appreciation for ORCA by not just citing the generic ORCA reference.

Please note that relegating all ORCA citations to the supporting information does *not* help us.
SI sections are not indexed - citations you put there will not count into any citation statistics
But we need these citations in order to attract the funding resources that allow us to do what we are doing

Therefore, if you are a happy ORCA user, please consider citing a few of the papers listed below in the main body of your paper

In addition to the list printed below, the program has created the file sp_gas.bibtex that contains the list in bibtex format
You can import this file easily into all common literature databanks and citation aid programs


List of essential papers. We consider these as the minimum necessary citations

  1. Neese,F.
     Software update: the ORCA program system, version 5.0
     WIRES Comput. Molec. Sci., 2022 12(1)e1606
     doi.org/10.1002/wcms.1606
  2. Grimme,S.; Hansen,A.; Ehlert,S.; Mewes,J.
     r2SCAN-3c: A 'Swiss army knife' composite electronic-structure method
     J. Chem. Phys., 2021 154 064103
     doi.org/10.1063/5.0040021

List of papers to cite with high priority. The work reported in these papers was absolutely
necessary for this run to complete.
Our perspective: the developers of density functionals and basis sets usually get cited in chemistry papers
Good! But without the algorithms to do something with them, the functionals or basis sets would not do anything.
Hence, in our opinion, the algorithm design and method developments papers are equally worthy of getting cited

  1. Neese,F.
     An improvement of the resolution of the identity approximation for the formation of the Coulomb matrix
     J. Comp. Chem., 2003 24(14)1740-1747
     doi.org/10.1002/jcc.10318
  2. Neese,F.
     The SHARK Integral Generation and Digestion System
     J. Comp. Chem., 2022  1-16
     doi.org/10.1002/jcc.26942
  3. Lehtola,S.; Steigemann,C.; Oliveira,M.; Marques,M.
     Recent developments in Libxc - A comprehensive library of functionals for density functional theory
     Software X, 2018 7 
     doi.org/10.1016/j.softx.2017.11.002
  4. Caldeweyher,E.; Bannwarth,C.; Grimme,S.
     Extension of the D3 dispersion coefficient model
     J. Chem. Phys., 2017 147 034112-XXXX
     doi.org/10.1063/1.4993215
  5. Caldeweyher,E.; Ehlert,S.; Hansen,A.; Neugebauer,H.; Spicher,S.; Bannwarth,C.; Grimme,S.
     A generally applicable atomic-charge dependent London dispersion correction
     J. Chem. Phys., 2019 150 154122-XXXX
     doi.org/10.1063/1.5090222
  6. Caldeweyher,E.; Mewes,J.; Ehlert,S.; Grimme,S.
     Extension and evaluation of the D4 London-dispersion model for periodic systems
     Phys. Chem. Chem. Phys., 2020 22(16)8499-8512
     doi.org/10.1039/D0CP00502A

List of suggested additional citations. These are papers that are important in the 'surrounding' of 
of this run, or papers that preceded the highly important papers. If you like your results we are grateful for a citation.

  1. Neese,F.
     The ORCA program system
     WIRES Comput. Molec. Sci., 2012 2(1)73-78
     doi.org/10.1002/wcms.81
  2. Neese,F.
     Software update: the ORCA program system, version 4.0
     WIRES Comput. Molec. Sci., 2018 8(1)1-6
     doi.org/10.1002/wcms.1327
  3. Neese,F.; Wennmohs,F.; Becker,U.; Riplinger,C.
     The ORCA quantum chemistry program package
     J. Chem. Phys., 2020 152 Art. No. L224108
     doi.org/10.1063/5.0004608

List of optional additional citations

  1. Neese,F.
     Approximate second-order SCF convergence for spin unrestricted wavefunctions
     Chem. Phys. Lett., 2000 325(1-3)93-98
     doi.org/10.1016/s0009-2614(00)00662-x

Timings for individual modules:

Sum of individual times          ...       16.628 sec (=   0.277 min)
Startup calculation              ...        1.100 sec (=   0.018 min)   6.6 %
SCF iterations                   ...       15.434 sec (=   0.257 min)  92.8 %
Property calculations            ...        0.094 sec (=   0.002 min)   0.6 %
                             ****ORCA TERMINATED NORMALLY****
TOTAL RUN TIME: 0 days 0 hours 0 minutes 17 seconds 247 msec
