24
 energy: -687.115486234901 gnorm: 0.005322130949 xtb: 6.7.1 (edcfbbe)
C           -2.57073091692917       -0.62517412681712       -0.35900753860330
C           -1.21998612902773       -0.28252444400493        0.22499509056052
H           -1.29235978301446       -0.21404731110855        1.32245414987025
C           -0.69151745206561        1.04357407377713       -0.32732597585108
H           -0.70250615506182        1.00537391608833       -1.42820886430207
C            0.73794942963735        1.27468233726173        0.14384891138789
H            0.73154967209838        1.40560325291639        1.23739466197814
C            1.61212475427955        0.07853529072484       -0.19653659193309
H            1.66695767532178       -0.04603838632155       -1.28947002203581
C            0.98933422177148       -1.18220470813717        0.40251426686072
H            0.94796068578116       -1.10941541664092        1.49977649464937
O           -0.32457574605294       -1.34982250455337       -0.13303370399999
O            1.72788280737588       -2.33800692620516        0.10565827318612
O            2.90865954386732        0.32204037016682        0.35212540480192
O            1.20029250494617        2.47430108529685       -0.48787203382940
O           -1.55146758913172        2.08552795209749        0.14204165835973
O           -3.06153564836632       -1.80716696489638        0.29033977565831
H           -2.46343825839789       -0.79122506522634       -1.43921658662986
H           -3.25351383106776        0.21571280279692       -0.19605114980974
H            1.78905647955355       -2.41167127299544       -0.85971168702886
H            3.48670253704368       -0.39008820377536        0.05313844304587
H            2.02431245219868        2.72926754076079       -0.05859572908164
H           -1.15539609406817        2.92200235376957       -0.13850715482189
H           -3.90536937710766       -2.02930046807128       -0.12234261097526
24
 energy: -687.115568601352 gnorm: 0.001842839375 xtb: 6.7.1 (edcfbbe)
C           -2.57217917381693       -0.62461895266602       -0.35735414346255
C           -1.21999509009976       -0.28274042927876        0.22317807069980
H           -1.28864794849053       -0.21644911598592        1.32131876844086
C           -0.69178806215468        1.04358755240751       -0.32896170131107
H           -0.70184716326949        1.00475076315528       -1.42996278624245
C            0.73750860159335        1.27399610595886        0.14350085967004
H            0.72952953019447        1.40670108149917        1.23698001554732
C            1.61237029087056        0.07738689610304       -0.19466071852098
H            1.66995595027747       -0.04547284245081       -1.28800758476139
C            0.98640665506847       -1.18408396531694        0.40052303961542
H            0.94065509707736       -1.11447789663583        1.49778341730348
O           -0.32576619824339       -1.34868512501366       -0.14073845636077
O            1.72399120743403       -2.34108761834772        0.10340124452838
O            2.90738146624714        0.32011437081634        0.35838155646581
O            1.20021037129871        2.47244903071827       -0.49085308356423
O           -1.55184700575583        2.08569431907648        0.14038978781567
O           -3.06131853664389       -1.80648004286288        0.29418886920135
H           -2.46662555100011       -0.79069723532701       -1.43859264425386
H           -3.25386719526185        0.21819956206649       -0.19387879816181
H            1.80554598628393       -2.40218152717936       -0.86132535982042
H            3.48851327811812       -0.39071810244208        0.05712637332324
H            2.02521348818918        2.73054734660212       -0.06038674498513
H           -1.15595862779398        2.92284316030016       -0.13900286360751
H           -3.90705663163062       -2.02864214198378       -0.11463996573597
24
 energy: -687.115636438391 gnorm: 0.012948491772 xtb: 6.7.1 (edcfbbe)
C           -2.58167336369896       -0.62128274509291       -0.34859243630364
C           -1.22074914930935       -0.28465813790041        0.21226856908280
H           -1.27054941768389       -0.22881940920121        1.31293977936631
C           -0.69296940534963        1.04285489023487       -0.33699202105807
H           -0.69916836806972        1.00230890260540       -1.43818431012890
C            0.73575263399143        1.27124105255059        0.14062861027329
H            0.72106979524909        1.41264865083396        1.23322938748640
C            1.61397435431467        0.07177797714070       -0.18486735015752
H            1.68832955999252       -0.04361026355169       -1.27902580214346
C            0.97438189396458       -1.19451885073052        0.38834753640465
H            0.90705073976569       -1.13864740897631        1.48529581982686
O           -0.33087418845104       -1.34452268766757       -0.17692996119626
O            1.71071040400986       -2.35366595089896        0.09082190140267
O            2.90030265623624        0.31078399598720        0.39134240125256
O            1.20331123004385        2.46423759667024       -0.50314067742062
O           -1.55278444377682        2.08628798625811        0.13040444000613
O           -3.06371042305316       -1.80080241574902        0.31307789085818
H           -2.48955048369526       -0.78958249927331       -1.43273315678175
H           -3.25933336438639        0.22627977973156       -0.18038503922490
H            1.89009318787999       -2.35566476901053       -0.87037624615994
H            3.49433486012794       -0.38937789959763        0.07958160621196
H            2.02743611553320        2.73269266567494       -0.06756609252788
H           -1.15584071168932        2.92506170726585       -0.14382066991367
H           -3.91916488682461       -2.02108660318780       -0.07691868653286
24
 energy: -687.115715178664 gnorm: 0.004931841519 xtb: 6.7.1 (edcfbbe)
C           -2.58072052401451       -0.62171924487228       -0.34945459865827
C           -1.22038979676078       -0.28475555364198        0.21299391298352
H           -1.27235287578137       -0.22775330253553        1.31308990759812
C           -0.69286506662191        1.04266322174420       -0.33664992298933
H           -0.69929510340179        1.00259266212484       -1.43776695277801
C            0.73571079318771        1.27154430674632        0.14081961518405
H            0.72179477797031        1.41176500785220        1.23340439138526
C            1.61406348537432        0.07288515222974       -0.18609485648565
H            1.68825995211689       -0.04315971020734       -1.27981940429674
C            0.97696812228497       -1.19323148290396        0.38859579161387
H            0.91263196746109       -1.13570188583584        1.48548123391038
O           -0.32969238340287       -1.34547654216879       -0.17247318412411
O            1.71494903685257       -2.35039207368709        0.08981842024208
O            2.90046117036031        0.31236797214131        0.38916655058401
O            1.20333027403528        2.46524464418917       -0.50081173155890
O           -1.55280213445690        2.08590655358912        0.13043937046471
O           -3.06399667587438       -1.80100012487454        0.31119705627786
H           -2.48865731794657       -0.79001690939697       -1.43285519077619
H           -3.25847558928838        0.22471895419600       -0.18085581738275
H            1.87602934954718       -2.36386063158784       -0.86841208336090
H            3.49313659036996       -0.38762493050235        0.07891673387007
H            2.02632839133588        2.73118658521245       -0.06555352502038
H           -1.15535276099306        2.92411197613204       -0.14425365089997
H           -3.91868407815276       -2.02035905023499       -0.08051635447437
24
 energy: -687.115739524479 gnorm: 0.001320563038 xtb: 6.7.1 (edcfbbe)
C           -2.58191623488024       -0.62151443302168       -0.34832060400343
C           -1.22012828643962       -0.28518228116607        0.21111752960350
H           -1.27057451253541       -0.22876305231555        1.31101981808884
C           -0.69284618201470        1.04215010169037       -0.33860343249695
H           -0.69871807242964        1.00206150163172       -1.43963920501495
C            0.73528642072734        1.27108514094144        0.14013723134266
H            0.72053095380250        1.41160087945392        1.23250073564019
C            1.61448577145396        0.07271414064048       -0.18509782945475
H            1.69318820363425       -0.04192587597182       -1.27839909477763
C            0.97702213095158       -1.19436308292263        0.38604945425760
H            0.91132455934469       -1.13874712340141        1.48286831998717
O           -0.32970111298592       -1.34593639950690       -0.17551187750063
O            1.71558335363928       -2.34994862350932        0.08558772840460
O            2.89863445760536        0.31210383487411        0.39489883931172
O            1.20413108223593        2.46456033463652       -0.50051375597690
O           -1.55296059464898        2.08549338567713        0.12735755964293
O           -3.06490751050399       -1.79982756952195        0.31387070515066
H           -2.49366182863818       -0.79033051172315       -1.43134538721512
H           -3.25831603454423        0.22470914432584       -0.17736152751883
H            1.88147638512696       -2.36092585126277       -0.86974197181221
H            3.49289528490208       -0.38445486546256        0.08370919463573
H            2.02514492990795        2.72929926974116       -0.06422721214527
H           -1.15428451793255        2.92311225356864       -0.14689770596735
H           -3.92131004045766       -2.01703455170544       -0.07505190935512
24
 energy: -687.115755764035 gnorm: 0.001689789676 xtb: 6.7.1 (edcfbbe)
C           -2.58520549038407       -0.62061577340422       -0.34517900181476
C           -1.21990953703444       -0.28610685683169        0.20679379543622
H           -1.26585120626704       -0.23089761517034        1.30674125368850
C           -0.69283524495693        1.04079696736000       -0.34329700786317
H           -0.69677171850768        0.99984142901525       -1.44423202306307
C            0.73408888058520        1.26984255192229        0.13877626428047
H            0.71626954842330        1.41134310383853        1.23083472488691
C            1.61527097074200        0.07179833150751       -0.18198122421499
H            1.70390044019843       -0.03942276622158       -1.27466174908606
C            0.97590287313866       -1.19788234908722        0.38022677369645
H            0.90663124272261       -1.14716791231687        1.47701818464119
O           -0.33056956503731       -1.34652711331298       -0.18403177926640
O            1.71506192507550       -2.35119380709584        0.07637199784387
O            2.89443263592918        0.31089343269059        0.40918884501246
O            1.20566429573609        2.46251252773048       -0.50084895416663
O           -1.55334662542600        2.08493942995710        0.11964683771977
O           -3.06657747107230       -1.79738501822616        0.32079398378851
H           -2.50492084560042       -0.79054831100620       -1.42805050316885
H           -3.25878068967739        0.22614637424373       -0.16955951635484
H            1.89987278018407       -2.35079688458031       -0.87480781276141
H            3.49406403437564       -0.37778972034094        0.09406952187577
H            2.02348403556116        2.72677018986625       -0.06139227095793
H           -1.15207562081863        2.92161524118168       -0.15338502693297
H           -3.92742350359259       -2.01022928779566       -0.06062999314152
24
 energy: -687.115761134490 gnorm: 0.000594991790 xtb: 6.7.1 (edcfbbe)
C           -2.58685030643806       -0.62013260005727       -0.34321334695082
C           -1.21987192115271       -0.28640592989368        0.20479716967652
H           -1.26299657435027       -0.23160910642211        1.30500002641213
C           -0.69274346833682        1.03995624126293       -0.34616148591919
H           -0.69496727343413        0.99750393631383       -1.44707837419197
C            0.73326764932266        1.26895966555486        0.13839975358430
H            0.71290379292936        1.41092825861739        1.23040434815005
C            1.61574631507291        0.07114864490186       -0.17992995514213
H            1.70921386910176       -0.03801349783406       -1.27244723293714
C            0.97485122587151       -1.19993676352138        0.37764449567446
H            0.90388989281658       -1.15267991455873        1.47451022531224
O           -0.33133681342366       -1.34649964088121       -0.18878348049387
O            1.71365001129306       -2.35280590207756        0.07103519993628
O            2.89231150278536        0.30990556235075        0.41734867304178
O            1.20630396999810        2.46126592274278       -0.50094080113917
O           -1.55373103171332        2.08491185549291        0.11434224554017
O           -3.06698608582100       -1.79654312021558        0.32470431614545
H           -2.51019144436575       -0.79032674239348       -1.42644705644185
H           -3.25915188993348        0.22744936795826       -0.16566257228811
H            1.90956541815137       -2.34407032368685       -0.87872787162015
H            3.49605701106296       -0.37392792901950        0.09834804519189
H            2.02307292839453        2.72662669356838       -0.05898618487869
H           -1.15106594869007        2.92123988138379       -0.15787860641482
H           -3.93056608007003       -2.00700817870969       -0.05187227662118
24
 energy: -687.115763059291 gnorm: 0.000373703241 xtb: 6.7.1 (edcfbbe)
C           -2.58728080253867       -0.62002872525141       -0.34225591177400
C           -1.21980629787779       -0.28642354641749        0.20428923686880
H           -1.26201260559494       -0.23095422980951        1.30454384572273
C           -0.69239214535875        1.03931128078897       -0.34776564480242
H           -0.69318420652762        0.99520212941533       -1.44864154828294
C            0.73280184103281        1.26868028339344        0.13876179796519
H            0.71063613952090        1.41027244522681        1.23081989140142
C            1.61588545420105        0.07105521903570       -0.17865814419209
H            1.71128483065227       -0.03713283795445       -1.27103764041791
C            0.97470354475938       -1.20094283095895        0.37667058973797
H            0.90419737783892       -1.15564616857898        1.47360494688809
O           -0.33173748583255       -1.34672132237585       -0.18966142624059
O            1.71309414005469       -2.35364362521670        0.06771008120857
O            2.89136296454837        0.30970328286055        0.42101069694279
O            1.20651703036232        2.46122998943963       -0.49971173494214
O           -1.55394771426594        2.08502435495522        0.11019482848793
O           -3.06673077392957       -1.79655672750928        0.32620173871777
H           -2.51184205211516       -0.79018712648669       -1.42568783404681
H           -3.25928433288947        0.22781603291782       -0.16400122044025
H            1.91005949759663       -2.34210586476898       -0.88148049672759
H            3.49746942144566       -0.37082879651750        0.09888935778888
H            2.02272106476507        2.72710767770449       -0.05620154589606
H           -1.15023435405619        2.92101625203966       -0.16165582034087
H           -3.93190644236170       -2.00531062920797       -0.04753265631465
24
 energy: -687.115763059291 gnorm: 0.000373703241 xtb: 6.7.1 (edcfbbe)
C           -2.58728080253867       -0.62002872525141       -0.34225591177400
C           -1.21980629787779       -0.28642354641749        0.20428923686880
H           -1.26201260559494       -0.23095422980951        1.30454384572273
C           -0.69239214535875        1.03931128078897       -0.34776564480242
H           -0.69318420652762        0.99520212941533       -1.44864154828294
C            0.73280184103281        1.26868028339344        0.13876179796519
H            0.71063613952090        1.41027244522681        1.23081989140142
C            1.61588545420105        0.07105521903570       -0.17865814419209
H            1.71128483065227       -0.03713283795445       -1.27103764041791
C            0.97470354475938       -1.20094283095895        0.37667058973797
H            0.90419737783892       -1.15564616857898        1.47360494688809
O           -0.33173748583255       -1.34672132237585       -0.18966142624059
O            1.71309414005469       -2.35364362521670        0.06771008120857
O            2.89136296454837        0.30970328286055        0.42101069694279
O            1.20651703036232        2.46122998943963       -0.49971173494214
O           -1.55394771426594        2.08502435495522        0.11019482848793
O           -3.06673077392957       -1.79655672750928        0.32620173871777
H           -2.51184205211516       -0.79018712648669       -1.42568783404681
H           -3.25928433288947        0.22781603291782       -0.16400122044025
H            1.91005949759663       -2.34210586476898       -0.88148049672759
H            3.49746942144566       -0.37082879651750        0.09888935778888
H            2.02272106476507        2.72710767770449       -0.05620154589606
H           -1.15023435405619        2.92101625203966       -0.16165582034087
H           -3.93190644236170       -2.00531062920797       -0.04753265631465
