      -----------------------------------------------------------      
     |                   =====================                   |     
     |                           x T B                           |     
     |                   =====================                   |     
     |                         S. Grimme                         |     
     |          Mulliken Center for Theoretical Chemistry        |     
     |                    University of Bonn                     |     
      -----------------------------------------------------------      

   * xtb version 6.7.1 (edcfbbe) compiled by 'albert@albert-system' on 2024-07-22

   xtb is free software: you can redistribute it and/or modify it under
   the terms of the GNU Lesser General Public License as published by
   the Free Software Foundation, either version 3 of the License, or
   (at your option) any later version.
   
   xtb is distributed in the hope that it will be useful,
   but WITHOUT ANY WARRANTY; without even the implied warranty of
   MERCHANTABILITY or FITNESS FOR A PARTICULAR PURPOSE.  See the
   GNU Lesser General Public License for more details.
   
   Cite this work as:
   * C. Bannwarth, E. Caldeweyher, S. Ehlert, A. Hansen, P. Pracht,
     J. Seibert, S. Spicher, S. Grimme, WIREs Comput. Mol. Sci., 2020, 11,
     e01493. DOI: 10.1002/wcms.1493
   
   for GFN2-xTB:
   * C. Bannwarth, S. Ehlert and S. Grimme., J. Chem. Theory Comput., 2019,
     15, 1652-1671. DOI: 10.1021/acs.jctc.8b01176
   for GFN1-xTB:
   * S. Grimme, C. Bannwarth, P. Shushkov, J. Chem. Theory Comput., 2017,
     13, 1989-2009. DOI: 10.1021/acs.jctc.7b00118
   for GFN0-xTB:
   * P. Pracht, E. Caldeweyher, S. Ehlert, S. Grimme, ChemRxiv, 2019, preprint.
     DOI: 10.26434/chemrxiv.8326202.v1
   for GFN-FF:
   * S. Spicher and S. Grimme, Angew. Chem. Int. Ed., 2020, 59, 15665-15673.
     DOI: 10.1002/anie.202004239
   
   for ALPB and GBSA implicit solvation:
   * S. Ehlert, M. Stahn, S. Spicher, S. Grimme, J. Chem. Theory Comput.,
     2021, 17, 4250-4261. DOI: 10.1021/acs.jctc.1c00471
   
   for ddCOSMO and CPCM-X implicit solvation:
   * M. Stahn, S. Ehlert, S. Grimme, J. Phys. Chem. A,
     2023, XX, XXXX-XXXX. DOI: 10.1021/acs.jpca.3c04382
   
   for DFT-D4:
   * E. Caldeweyher, C. Bannwarth and S. Grimme, J. Chem. Phys., 2017,
     147, 034112. DOI: 10.1063/1.4993215
   * E. Caldeweyher, S. Ehlert, A. Hansen, H. Neugebauer, S. Spicher,
     C. Bannwarth and S. Grimme, J. Chem. Phys., 2019, 150, 154122.
     DOI: 10.1063/1.5090222
   * E. Caldeweyher, J.-M. Mewes, S. Ehlert and S. Grimme, Phys. Chem. Chem. Phys.
     2020, 22, 8499-8512. DOI: 10.1039/D0CP00502A
   
   for sTDA-xTB:
   * S. Grimme and C. Bannwarth, J. Chem. Phys., 2016, 145, 054103.
     DOI: 10.1063/1.4959605
   
   in the mass-spec context:
   * V. Asgeirsson, C. Bauer and S. Grimme, Chem. Sci., 2017, 8, 4879.
     DOI: 10.1039/c7sc00601b
   * J. Koopman and S. Grimme, ACS Omega 2019, 4, 12, 15120-15133.
     DOI: 10.1021/acsomega.9b02011
   
   for metadynamics refer to:
   * S. Grimme, J. Chem. Theory Comput., 2019, 155, 2847-2862
     DOI: 10.1021/acs.jctc.9b00143
   
   for SPH calculations refer to:
   * S. Spicher and S. Grimme, J. Chem. Theory Comput., 2021, 17, 1701-1714
     DOI: 10.1021/acs.jctc.0c01306
   
   for ONIOM refer to:
   * C. Plett, A. Katbashev, S. Ehlert, S. Grimme, M. Bursch,
     Phys. Chem. Chem. Phys., 2023, 25, 17860-17868. DOI: 10.1039/D3CP02178E
   
   for DIPRO refer to:
   * J. Kohn, N. Gildemeister, S. Grimme, D. Fazzi, A. Hansen,
     J. Chem. Phys., 2023, just accepted.
   
   for PTB refer to:
   * S. Grimme, M. Mueller, A. Hansen, J. Chem. Phys., 2023, 158, 124111.
     DOI: 10.1063/5.0137838
   
   with help from (in alphabetical order)
   P. Atkinson, C. Bannwarth, F. Bohle, G. Brandenburg, E. Caldeweyher
   M. Checinski, S. Dohm, S. Ehlert, S. Ehrlich, I. Gerasimov, C. Hölzer
   A. Katbashev, J. Kohn, J. Koopman, C. Lavigne, S. Lehtola, F. März, M. Müller,
   F. Musil, H. Neugebauer, J. Pisarek, C. Plett, P. Pracht, F. Pultar,
   J. Seibert, P. Shushkov, S. Spicher, M. Stahn, M. Steiner, T. Strunk,
   J. Stückrath, T. Rose, and J. Unsleber
   
 * started run on 2025/04/03 at 21:11:50.429     
   ID    Z sym.   atoms
    1    6 C      1-6
    2   17 Cl     7
    3    7 N      8
    4    1 H      9-14

           -------------------------------------------------
          |                Calculation Setup                |
           -------------------------------------------------

          program call               : /srv/scratch/z5358697/.xtb/bin/xtb xtb_opt.coord --opt normal --orca -I xtb_opt-xcontrol-inp
          hostname                   : k147
          coordinate file            : xtb_opt.coord
          omp threads                :                     1

           -------------------------------------------------
          |                   Orca driver                   |
           -------------------------------------------------
orca executable           : /apps/z_install_tree/linux-rocky8-ivybridge/gcc-12.2.0/orca-6.0.0-srtngmq3qlimg2qxbl6avaaiffipurdx/bin/orca
orca input file           : xtb_opt.inp
orca input line           : 
orca parallel             : false
orca number of threads    : 1
                         * ORCA takes the control...
  ------------------------------------------------------------------------

                                 *****************
                                 * O   R   C   A *
                                 *****************

                                            #,                                       
                                            ###                                      
                                            ####                                     
                                            #####                                    
                                            ######                                   
                                           ########,                                 
                                     ,,################,,,,,                         
                               ,,#################################,,                 
                          ,,##########################################,,             
                       ,#########################################, ''#####,          
                    ,#############################################,,   '####,        
                  ,##################################################,,,,####,       
                ,###########''''           ''''###############################       
              ,#####''   ,,,,##########,,,,          '''####'''          '####       
            ,##' ,,,,###########################,,,                        '##       
           ' ,,###''''                  '''############,,,                           
         ,,##''                                '''############,,,,        ,,,,,,###''
      ,#''                                            '''#######################'''  
     '                                                          ''''####''''         
             ,#######,   #######,   ,#######,      ##                                
            ,#'     '#,  ##    ##  ,#'     '#,    #''#        ,####,   ,####,        
            ##       ##  ##   ,#'  ##            #'  '#       #'       #'  '#        
            ##       ##  #######   ##           ,######,      #####,   #    #        
            '#,     ,#'  ##    ##  '#,     ,#' ,#      #,     #,   #   #,  ,#        
             '#######'   ##     ##  '#######'  #'      '#     '####' # '####'        



                #########################################################
                #                        -***-                          #
                #          Department of theory and spectroscopy        #
                #                                                       #
                #                      Frank Neese                      #
                #                                                       #
                #     Directorship, Architecture, Infrastructure        #
                #                    SHARK, DRIVERS                     #
                #        Core code/Algorithms in most modules           #
                #                                                       #
                #        Max Planck Institute fuer Kohlenforschung      #
                #                Kaiser Wilhelm Platz 1                 #
                #                 D-45470 Muelheim/Ruhr                 #
                #                      Germany                          #
                #                                                       #
                #                  All rights reserved                  #
                #                        -***-                          #
                #########################################################


                         Program Version 6.0.0  -   RELEASE  -


 With contributions from (in alphabetic order):
   Daniel Aravena         : Magnetic Suceptibility
   Michael Atanasov       : Ab Initio Ligand Field Theory (pilot matlab implementation)
   Alexander A. Auer      : GIAO ZORA, VPT2 properties, NMR spectrum
   Ute Becker             : All parallelization in ORCA, NUMFREQ, NUMCALC
   Giovanni Bistoni       : ED, misc. LED, open-shell LED, HFLD
   Martin Brehm           : Molecular dynamics
   Dmytro Bykov           : pre 5.0 version of the SCF Hessian
   Marcos Casanova-Páez   : Triplet and SCS-CIS(D). UHF-(DLPNO)-IP/EA/STEOM-CCSD. UHF-CVS-IP/STEOM-CCSD
   Vijay G. Chilkuri      : MRCI spin determinant printing, contributions to CSF-ICE
   Pauline Colinet        : FMM embedding
   Dipayan Datta          : RHF DLPNO-CCSD density
   Achintya Kumar Dutta   : EOM-CC, STEOM-CC
   Nicolas Foglia         : Exact transition moments, OPA infrastructure, MCD improvements
   Dmitry Ganyushin       : Spin-Orbit,Spin-Spin,Magnetic field MRCI
   Miquel Garcia          : C-PCM and meta-GGA Hessian, CCSD/C-PCM, Gaussian charge scheme
   Tiago L. C. Gouveia    : GS-ROHF, GS-ROCIS
   Yang Guo               : DLPNO-NEVPT2, F12-NEVPT2, CIM, IAO-localization
   Andreas Hansen         : Spin unrestricted coupled pair/coupled cluster methods
   Ingolf Harden          : AUTO-CI MPn and infrastructure 
   Benjamin Helmich-Paris : MC-RPA, TRAH-(SCF,CASSCF), AVAS, COSX integrals, SCF dyn. polar.
   Lee Huntington         : MR-EOM, pCC
   Robert Izsak           : Overlap fitted RIJCOSX, COSX-SCS-MP3, EOM
   Riya Kayal             : Wick's Theorem for AUTO-CI, AUTO-CI UHF-CCSDT
   Emily Kempfer          : AUTO-CI, RHF CISDT and CCSDT
   Christian Kollmar      : KDIIS, OOCD, Brueckner-CCSD(T), CCSD density, CASPT2, CASPT2-K, improved NEVPT2
   Axel Koslowski         : Symmetry handling
   Simone Kossmann        : Meta GGA functionals, TD-DFT gradient, OOMP2, (MP2 Hessian; deprecated post 5.0)
   Lucas Lang             : DCDCAS
   Marvin Lechner         : AUTO-CI (C++ implementation), FIC-MRCC
   Spencer Leger          : CASSCF response
   Dagmar Lenk            : GEPOL surface, SMD, ORCA-2-JSON
   Dimitrios Liakos       : Extrapolation schemes; Compound Job, initial MDCI parallelization
   Dimitrios Manganas     : Further ROCIS development; embedding schemes. LFT, Crystal Embedding
   Dimitrios Pantazis     : SARC Basis sets
   Anastasios Papadopoulos: AUTO-CI, single reference methods and gradients
   Taras Petrenko         : pre 6.0 DFT Hessian and TD-DFT gradient, (ASA, deprecated), ECA, 1-Electron XAS/XES, NRVS
   Peter Pinski           : DLPNO-MP2, DLPNO-MP2 Gradient
   Christoph Reimann      : Effective Core Potentials
   Marius Retegan         : Local ZFS, SOC
   Christoph Riplinger    : Optimizer, TS searches, QM/MM, DLPNO-CCSD(T), (RO)-DLPNO pert. Triples
   Michael Roemelt        : Original ROCIS implementation
   Masaaki Saitow         : Open-shell DLPNO-CCSD energy and density
   Barbara Sandhoefer     : DKH picture change effects
   Kantharuban Sivalingam : CASSCF convergence/infrastructure, NEVPT2 and variants, FIC-MRCI
   Bernardo de Souza      : ESD, SOC TD-DFT
   Georgi Stoychev        : AutoAux, RI-MP2 NMR, DLPNO-MP2 response, X2C
   Van Anh Tran           : RI-MP2 g-tensors
   Willem Van den Heuvel  : Paramagnetic NMR
   Zikuan Wang            : NOTCH, Electric field optimization 
   Frank Wennmohs         : Technical directorship and infrastructure
   Hang Xu                : AUTO-CI-Response properties 


 We gratefully acknowledge several colleagues who have allowed us to
 interface, adapt or use parts of their codes:
   Stefan Grimme, W. Hujo, H. Kruse, P. Pracht,  : VdW corrections, initial TS optimization,
                  C. Bannwarth, S. Ehlert,         DFT functionals, gCP, sTDA/sTD-DF
                  L. Wittmann, M. Mueller
   Ed Valeev, F. Pavosevic, A. Kumar             : LibInt (2-el integral package), F12 methods
   Garnet Chan, S. Sharma, J. Yang, R. Olivares  : DMRG
   Ulf Ekstrom                                   : XCFun DFT Library
   Mihaly Kallay                                 : mrcc  (arbitrary order and MRCC methods)
   Frank Weinhold                                : gennbo (NPA and NBO analysis)
   Simon Mueller                                 : openCOSMO-RS
   Christopher J. Cramer and Donald G. Truhlar   : smd solvation model
   Lars Goerigk                                  : TD-DFT with DH, B97 family of functionals
   V. Asgeirsson, H. Jonsson                     : NEB implementation
   FAccTs GmbH                                   : IRC, NEB, NEB-TS, DLPNO-Multilevel, CI-OPT
                                                   MM, QMMM, 2- and 3-layer-ONIOM, Crystal-QMMM,
                                                   LR-CPCM, SF, NACMEs, symmetry and pop. for TD-DFT,
                                                   nearIR, NL-DFT gradient (VV10), updates on ESD,
                                                   ML-optimized integration grids, MBIS, APM,
                                                   GOAT, DOCKER, SOLVATOR, interface openCOSMO-RS
   S Lehtola, MJT Oliveira, MAL Marques          : LibXC Library
   Liviu Ungur et al                             : ANISO software


 Your calculation uses the libint2 library for the computation of 2-el integrals
 For citations please refer to: http://libint.valeyev.net

 Your ORCA version has been built with support for libXC version: 6.2.2
 For citations please refer to: https://libxc.gitlab.io

 This ORCA versions uses:
   CBLAS   interface :  Fast vector & matrix operations
   LAPACKE interface :  Fast linear algebra routines
   SCALAPACK package :  Parallel linear algebra routines
   Shared memory     :  Shared parallel matrices
   BLAS/LAPACK       :  OpenBLAS 0.3.27  USE64BITINT DYNAMIC_ARCH NO_AFFINITY SkylakeX SINGLE_THREADED
        Core in use  :  SkylakeX
   Copyright (c) 2011-2014, The OpenBLAS Project




***************************************
The coordinates will be read from file: xtb_opt.xyz
***************************************


Your calculation utilizes the geometrical counterpoise correction gCP
Please cite in your paper:
H.Kruse, S. Grimme J.Chem.Phys., 136, (2012), 154101 
   

Your calculation utilizes the atom-pairwise dispersion correction
based on EEQ partial charges (D4)


Your calculation utilizes the SMD solvation module
Please cite in your paper:
A.V. Marenich, C.J. Cramer, D.G. Truhlar J. Phys. Chem. B, 113, (2009), 6378 

================================================================================

----- Orbital basis set information -----
Your calculation utilizes the basis: def2-mTZVPP
   Stefan Grimme, Andreas Hansen, Sebastian Ehlert, and Jan-Michael Mewes 
   J. Chem. Phys. 154, 064103 (2021). DOI: 10.1063/5.0040021

----- AuxJ basis set information -----
Your calculation utilizes the auxiliary basis: def2/J
   F. Weigend, Phys. Chem. Chem. Phys. 8, 1057 (2006).

================================================================================
                                        WARNINGS
                       Please study these warnings very carefully!
================================================================================

Using LibXC functional ID 497 : Re-regularized SCAN exchange by Furness et al
[ 1]  J. W. Furness, A. D. Kaplan, J. Ning, J. P. Perdew, and J. Sun.,  J. Phys. Chem. Lett. 11, 8208-8215 (2020)
[ 2]  J. W. Furness, A. D. Kaplan, J. Ning, J. P. Perdew, and J. Sun.,  J. Phys. Chem. Lett. 11, 9248-9248 (2020)
Using LibXC functional ID 498 : Re-regularized SCAN correlation by Furness et al
[ 1]  J. W. Furness, A. D. Kaplan, J. Ning, J. P. Perdew, and J. Sun.,  J. Phys. Chem. Lett. 11, 8208-8215 (2020)
[ 2]  J. W. Furness, A. D. Kaplan, J. Ning, J. P. Perdew, and J. Sun.,  J. Phys. Chem. Lett. 11, 9248-9248 (2020)
Using LibXC functional ID 497 : Re-regularized SCAN exchange by Furness et al
[ 1]  J. W. Furness, A. D. Kaplan, J. Ning, J. P. Perdew, and J. Sun.,  J. Phys. Chem. Lett. 11, 8208-8215 (2020)
[ 2]  J. W. Furness, A. D. Kaplan, J. Ning, J. P. Perdew, and J. Sun.,  J. Phys. Chem. Lett. 11, 9248-9248 (2020)
Using LibXC functional ID 498 : Re-regularized SCAN correlation by Furness et al
[ 1]  J. W. Furness, A. D. Kaplan, J. Ning, J. P. Perdew, and J. Sun.,  J. Phys. Chem. Lett. 11, 8208-8215 (2020)
[ 2]  J. W. Furness, A. D. Kaplan, J. Ning, J. P. Perdew, and J. Sun.,  J. Phys. Chem. Lett. 11, 9248-9248 (2020)

================================================================================
                                       INPUT FILE
================================================================================
NAME = xtb_opt.inp
|  1> ! r2scan-3c def2/J RI DEFGRID2 scfconv7 ENGRAD tightSCF miniprint
|  2> %cpcm
|  3>     smd true
|  4>     smdsolvent "water"
|  5> end
|  6> * xyzfile 0 1 xtb_opt.xyz
|  7> 
|  8>                          ****END OF INPUT****
================================================================================

                     *******************************
                     * Energy+Gradient Calculation *
                     *******************************

---------------------------------
CARTESIAN COORDINATES (ANGSTROEM)
---------------------------------
  C      0.866596   -1.824826   -0.001448
  C      1.880842   -0.891779    0.006851
  C      1.591176    0.478443    0.010945
  C      0.248724    0.875939    0.009163
  C     -0.744817   -0.079855    0.000125
  C     -0.464683   -1.434418   -0.004402
  Cl    -2.412233    0.442807   -0.000658
  N      2.588761    1.407757   -0.043779
  H      1.106474   -2.876781   -0.002894
  H      2.910992   -1.212831    0.007905
  H     -0.006344    1.923828    0.011907
  H     -1.260902   -2.160000   -0.008475
  H      2.353263    2.358754    0.180120
  H      3.518475    1.105855    0.189932

----------------------------
CARTESIAN COORDINATES (A.U.)
----------------------------
  NO LB      ZA    FRAG     MASS         X           Y           Z
   0 C     6.0000    0    12.011    1.637629   -3.448421   -0.002736
   1 C     6.0000    0    12.011    3.554277   -1.685219    0.012947
   2 C     6.0000    0    12.011    3.006888    0.904126    0.020683
   3 C     6.0000    0    12.011    0.470021    1.655286    0.017315
   4 C     6.0000    0    12.011   -1.407500   -0.150904    0.000236
   5 C     6.0000    0    12.011   -0.878124   -2.710656   -0.008319
   6 Cl   17.0000    0    35.453   -4.558460    0.836784   -0.001243
   7 N     7.0000    0    14.007    4.892049    2.660275   -0.082731
   8 H     1.0000    0     1.008    2.090933   -5.436329   -0.005468
   9 H     1.0000    0     1.008    5.500977   -2.291918    0.014938
  10 H     1.0000    0     1.008   -0.011988    3.635508    0.022501
  11 H     1.0000    0     1.008   -2.382760   -4.081808   -0.016015
  12 H     1.0000    0     1.008    4.447022    4.457399    0.340377
  13 H     1.0000    0     1.008    6.648955    2.089764    0.358920

------------------------------------------------------------------------------
                   ___                                                        
                  /   \      - P O W E R E D   B Y -                         
                 /     \                                                     
                 |  |  |   _    _      __       _____    __    __             
                 |  |  |  | |  | |    /  \     |  _  \  |  |  /  |          
                  \  \/   | |  | |   /    \    | | | |  |  | /  /          
                 / \  \   | |__| |  /  /\  \   | |_| |  |  |/  /          
                |  |  |   |  __  | /  /__\  \  |    /   |      \           
                |  |  |   | |  | | |   __   |  |    \   |  |\   \          
                \     /   | |  | | |  |  |  |  | |\  \  |  | \   \       
                 \___/    |_|  |_| |__|  |__|  |_| \__\ |__|  \__/        
                                                                              
                      - O R C A' S   B I G   F R I E N D -                    
                                      &                                       
                       - I N T E G R A L  F E E D E R -                       
                                                                              
 v1 FN, 2020, v2 2021, v3 2022-2024                                           
------------------------------------------------------------------------------


----------------------
SHARK INTEGRAL PACKAGE
----------------------

Number of atoms                             ...     14
Number of basis functions                   ...    195
Number of shells                            ...     93
Maximum angular momentum                    ...      2
Integral batch strategy                     ... SHARK/LIBINT Hybrid
RI-J (if used) integral strategy            ... SPLIT-RIJ (Revised 2003 algorithm where possible)
Printlevel                                  ...      1
Contraction scheme used                     ... SEGMENTED contraction
Prescreening option                         ... SCHWARTZ
   Thresh                                   ... 3.000e-11
   Tcut                                     ... 1.000e-12
   Tpresel                                  ... 1.000e-12 
Coulomb Range Separation                    ... NOT USED
Exchange Range Separation                   ... NOT USED
Multipole approximations                    ... NOT USED
Finite Nucleus Model                        ... NOT USED
CABS basis                                  ... NOT available
Auxiliary Coulomb fitting basis             ... AVAILABLE
   # of basis functions in Aux-J            ...    460
   # of shells in Aux-J                     ...    152
   Maximum angular momentum in Aux-J        ...      4
Auxiliary J/K fitting basis                 ... NOT available
Auxiliary Correlation fitting basis         ... NOT available
Auxiliary 'external' fitting basis          ... NOT available

Checking pre-screening integrals            ... done (  0.0 sec) Dimension = 93
Check shell pair data                       ... done (  0.0 sec)
Shell pair information
Shell pair cut-off parameter TPreSel        ...   1.0e-12
Total number of shell pairs                 ...      4371
Shell pairs after pre-screening             ...      3980
Total number of primitive shell pairs       ...     16865
Primitive shell pairs kept                  ...     10905
          la=0 lb=0:   1204 shell pairs
          la=1 lb=0:   1478 shell pairs
          la=1 lb=1:    466 shell pairs
          la=2 lb=0:    482 shell pairs
          la=2 lb=1:    296 shell pairs
          la=2 lb=2:     54 shell pairs

Calculating one electron integrals          ... done (  0.0 sec)
Calculating RI/J V-Matrix + Cholesky decomp.... done (  0.1 sec)
Calculating Nuclear repulsion               ... done (  0.0 sec) ENN=    398.468223960647 Eh

Diagonalization of the overlap matrix:
Smallest eigenvalue                        ... 3.116e-05
Time for diagonalization                   ...    0.004 sec
Threshold for overlap eigenvalues          ... 1.000e-07
Number of eigenvalues below threshold      ... 0
Time for construction of square roots      ...    0.013 sec
Total time needed                          ...    0.024 sec

-------------------
DFT GRID GENERATION
-------------------

General Integration Accuracy     IntAcc      ... 4.388
Radial Grid Type                 RadialGrid  ... OptM3 with GC (2021)
Angular Grid (max. ang.)         AngularGrid ... 4 (Lebedev-302)
Angular grid pruning method      GridPruning ... 4 (adaptive)
Weight generation scheme         WeightScheme... mBecke (2022)
Basis function cutoff            BFCut       ... 1.0000e-11
Integration weight cutoff        WCut        ... 1.0000e-14
Partially contracted basis set               ... off
Rotationally invariant grid construction     ... off
Angular grids for H and He will be reduced by one unit

Total number of grid points                  ...    68765
Total number of batches                      ...     1081
Average number of points per batch           ...       63
Average number of grid points per atom       ...     4912
Initializing property integral containers    ... done (  0.0 sec)

SHARK setup successfully completed in   1.0 seconds

Maximum memory used throughout the entire STARTUP-calculation: 32.2 MB
Occupation numbers will be reassigned to an Aufbau configuration
             **** ENERGY FILE WAS UPDATED (xtb_opt.en.tmp) ****
Finished Guess after   0.2 sec
Maximum memory used throughout the entire GUESS-calculation: 13.5 MB
--------------------
CPCM SOLVATION MODEL
--------------------
CPCM parameters:
  Epsilon                                         ...      78.3550
  Refrac                                          ...       1.3328
  Rsolv                                           ...       1.3000
  Surface type                                    ... GAUSSIAN VDW
  Discretization scheme                           ... Constant charge density
    Threshold for H atoms                         ...       5.0000 (charges/Ang^2)
    Threshold for non-H atoms                     ...       5.0000 (charges/Ang^2)
  Epsilon function type                           ...         CPCM
Solvent:                                          ... WATER
SMD-CDS solvent descriptors:
  Soln                                            ...       1.3328
  Soln25                                          ...       1.3323
  Sola                                            ...       0.0000
  Solb                                            ...       0.0000
  Solg                                            ...       0.0000
  Solc                                            ...       0.0000
  Solh                                            ...       0.0000
Radii:
  Scheme                                          ... Element-dependent radii
  Radius for C  used is    3.4960 Bohr (=   1.8500 Ang.)
  Radius for Cl used is    4.4975 Bohr (=   2.3800 Ang.)
  Radius for N  used is    3.5716 Bohr (=   1.8900 Ang.)
  Radius for H  used is    2.2677 Bohr (=   1.2000 Ang.)
Calculating surface                               ...        done! (  0.0s)
Cavity surface points                             ...         1221
Cavity Volume                                     ...     988.5755
Cavity Surface-area                               ...     579.6835
Calculating surface distance matrix               ...        done! (  0.0s)
Performing Cholesky decomposition & store         ...        done! (  0.1s)
Overall time for CPCM initialization              ...                 0.1s

----------------------------------------D-I-I-S--------------------------------------------
Iteration    Energy (Eh)           Delta-E    RMSDP     MaxDP     DIISErr   Damp  Time(sec)
-------------------------------------------------------------------------------------------
               ***  Starting incremental Fock matrix formation  ***
                              *** Initializing SOSCF ***
---------------------------------------S-O-S-C-F--------------------------------------
Iteration    Energy (Eh)           Delta-E    RMSDP     MaxDP     MaxGrad    Time(sec)
--------------------------------------------------------------------------------------
    1    -747.1264378023979589     0.00e+00  2.07e-06  4.64e-05  1.40e-05     2.6
               *** Restarting incremental Fock matrix formation ***
    2    -747.1264378057817339    -3.38e-09  2.46e-06  5.96e-05  1.42e-05     2.6
                  *** Gradient check signals convergence ***

               *****************************************************
               *                     SUCCESS                       *
               *           SCF CONVERGED AFTER   2 CYCLES          *
               *****************************************************


SMD CDS free energy correction energy :                 3.07172     Kcal/mol
Total Energy after SMD CDS correction =              -747.121542712 Eh
             **** ENERGY FILE WAS UPDATED (xtb_opt.en.tmp) ****

----------------
TOTAL SCF ENERGY
----------------

Total Energy       :       -747.12154271155464 Eh          -20330.21075 eV

Components:
Nuclear Repulsion  :        398.46822396064749 Eh           10842.87161 eV
Electronic Energy  :      -1145.57777527213375 Eh          -31172.75606 eV
One Electron Energy:      -1813.31996717675975 Eh          -49342.94485 eV
Two Electron Energy:        667.74219190462588 Eh           18170.18880 eV
CPCM Dielectric    :         -0.01688649429556 Eh              -0.45950 eV
SMD CDS (Gcds)     :          0.00489509422705 Eh               0.13320 eV

Virial components:
Potential Energy   :      -1492.07182164730011 Eh          -40601.33840 eV
Kinetic Energy     :        744.95027893574547 Eh           20271.12765 eV
Virial Ratio       :          2.00291464254354

DFT components:
N(Alpha)           :       33.000036432222 electrons
N(Beta)            :       33.000036432222 electrons
N(Total)           :       66.000072864444 electrons
E(X)               :      -67.622269435441 Eh       
E(C)               :       -2.253655239007 Eh       
E(XC)              :      -69.875924674449 Eh       

CPCM Solvation Model Properties:
Surface-charge          :         -0.02685247056180
Corrected charge        :         -0.00000000000000
Outlying charge corr.   :          0.00005378338059 Eh               0.00146 eV
Free-energy (cav+disp)  :          0.00489509422705 Eh               0.13320 eV

---------------
SCF CONVERGENCE
---------------

  Last Energy change         ...    3.3838e-09  Tolerance :   1.0000e-07
  Last MAX-Density change    ...    5.9614e-05  Tolerance :   1.0000e-07
  Last RMS-Density change    ...    2.4559e-06  Tolerance :   5.0000e-09
  Last DIIS Error            ...    7.1078e-05  Tolerance :   1.0000e-07
  Last Orbital Gradient      ...    1.4210e-05  Tolerance :   1.0000e-04
  Last Orbital Rotation      ...    7.3170e-05  Tolerance :   1.0000e-04


----------------
ORBITAL ENERGIES
----------------

  NO   OCC          E(Eh)            E(eV) 
   0   2.0000    -101.219768     -2754.3299 
   1   2.0000     -14.163320      -385.4035 
   2   2.0000     -10.096736      -274.7462 
   3   2.0000     -10.082403      -274.3561 
   4   2.0000     -10.038519      -273.1620 
   5   2.0000     -10.034194      -273.0443 
   6   2.0000     -10.029811      -272.9250 
   7   2.0000     -10.027822      -272.8709 
   8   2.0000      -9.375809      -255.1287 
   9   2.0000      -7.121775      -193.7934 
  10   2.0000      -7.112194      -193.5326 
  11   2.0000      -7.111737      -193.5202 
  12   2.0000      -0.894265       -24.3342 
  13   2.0000      -0.850496       -23.1432 
  14   2.0000      -0.790702       -21.5161 
  15   2.0000      -0.711769       -19.3682 
  16   2.0000      -0.692759       -18.8509 
  17   2.0000      -0.584599       -15.9078 
  18   2.0000      -0.570796       -15.5322 
  19   2.0000      -0.495042       -13.4708 
  20   2.0000      -0.484111       -13.1733 
  21   2.0000      -0.451646       -12.2899 
  22   2.0000      -0.410718       -11.1762 
  23   2.0000      -0.410130       -11.1602 
  24   2.0000      -0.394938       -10.7468 
  25   2.0000      -0.380322       -10.3491 
  26   2.0000      -0.340317        -9.2605 
  27   2.0000      -0.330590        -8.9958 
  28   2.0000      -0.321736        -8.7549 
  29   2.0000      -0.287321        -7.8184 
  30   2.0000      -0.283423        -7.7123 
  31   2.0000      -0.231428        -6.2975 
  32   2.0000      -0.188965        -5.1420 
  33   0.0000      -0.037223        -1.0129 
  34   0.0000      -0.018583        -0.5057 
  35   0.0000       0.010752         0.2926 
  36   0.0000       0.086384         2.3506 
  37   0.0000       0.113507         3.0887 
  38   0.0000       0.117108         3.1867 
  39   0.0000       0.127816         3.4780 
  40   0.0000       0.139945         3.8081 
  41   0.0000       0.143729         3.9111 
  42   0.0000       0.155851         4.2409 
  43   0.0000       0.186927         5.0865 
*Only the first 10 virtual orbitals were printed.
Total SCF time: 0 days 0 hours 0 min 5 sec 
Finished LeanSCF after   5.7 sec

Maximum memory used throughout the entire LEANSCF-calculation: 23.1 MB


-------------------------------------------------------------------------------
                          DFT DISPERSION CORRECTION                            
                                                                               
                                DFTD4 V3.4.0                                   
-------------------------------------------------------------------------------
-------------------------   ----------------
Dispersion correction           -0.004872581
-------------------------   ----------------

------------------   -----------------
gCP correction             0.006779963
------------------   -----------------

-------------------------   --------------------
FINAL SINGLE POINT ENERGY      -747.119635329596
-------------------------   --------------------

------------------------------------------------------------------------------
                         ORCA SCF GRADIENT CALCULATION
------------------------------------------------------------------------------

Nuc. rep. gradient        (SHARK) ... done (  0.0 sec)
HCore & Overlap gradient  (SHARK) ... done (  0.2 sec)
Split-RIJ-J gradient      (SHARK) ... done (  1.3 sec)
XC gradient                       ... done (  4.6 sec)
CPCM gradient                     ... done (  0.7 sec)
SMD gradient                      ... done (  0.0 sec)
Dispersion correction             ... done (  0.0 sec)

-------------------
DISPERSION GRADIENT
-------------------

   1   C   :    0.000017683   -0.000088766   -0.000000506
   2   C   :    0.000062403   -0.000037282   -0.000000233
   3   C   :    0.000055572    0.000028371    0.000000050
   4   C   :   -0.000013364    0.000046143   -0.000000181
   5   C   :   -0.000066631   -0.000000300   -0.000000514
   6   C   :   -0.000043395   -0.000059829   -0.000000428
   7   Cl  :   -0.000168779    0.000042388   -0.000000234
   8   N   :    0.000093885    0.000078456    0.000004757
   9   H   :    0.000009821   -0.000043863   -0.000000178
  10   H   :    0.000035933   -0.000018319   -0.000000440
  11   H   :   -0.000010790    0.000037704   -0.000000427
  12   H   :   -0.000024788   -0.000029845   -0.000000209
  13   H   :    0.000026919    0.000024183   -0.000000706
  14   H   :    0.000025530    0.000020960   -0.000000750

Difference to translation invariance:
           :    0.0000000000    0.0000000000    0.0000000000

Difference to rotation invariance:
           :   -0.0000000000   -0.0000000000   -0.0000000000

Norm of the Dispersion gradient    ...    0.0002897379
RMS gradient                       ...    0.0000447075
MAX gradient                       ...    0.0001687789
gCP correction                   ... done

------------------
CARTESIAN GRADIENT
------------------

   1   C   :    0.001154391   -0.000076028   -0.000329133
   2   C   :   -0.004979621    0.000478051   -0.000423112
   3   C   :    0.002636413    0.002527382    0.001057606
   4   C   :    0.001465979   -0.005001591   -0.000347157
   5   C   :   -0.004821903    0.001935651   -0.000272185
   6   C   :    0.006563204    0.004685877    0.000172672
   7   Cl  :    0.007238283   -0.002362884    0.000002073
   8   N   :   -0.003506673   -0.003648972    0.003508035
   9   H   :   -0.001254524    0.004386887    0.000028152
  10   H   :   -0.004971642    0.001250971    0.000000381
  11   H   :    0.000314487   -0.005025895   -0.000023856
  12   H   :    0.002998811    0.003460818    0.000085277
  13   H   :   -0.000770752   -0.002242132   -0.001780171
  14   H   :   -0.002066454   -0.000368136   -0.001678581

Difference to translation invariance:
           :    0.0000000000    0.0000000000    0.0000000000

Difference to rotation invariance:
           :   -0.0000640697   -0.0000131022    0.0001041426

Norm of the Cartesian gradient     ...    0.0191278192
RMS gradient                       ...    0.0029514866
MAX gradient                       ...    0.0072382830

-------
TIMINGS
-------

Total SCF gradient time     ....        7.323 sec

Densities                   ....       0.001 sec  (  0.0%)
One electron gradient       ....       0.197 sec  (  2.7%)
RI-J Coulomb gradient       ....       1.289 sec  ( 17.6%)
XC gradient                 ....       4.564 sec  ( 62.3%)
CPCM gradient               ....       0.688 sec  (  9.4%)
   A-Matrix (El+Nuc)        ....       0.053 sec  (  0.7%)
   Potential                ....       0.636 sec  (  8.7%)
SMD gradient                ....       0.012 sec  (  0.2%)

Maximum memory used throughout the entire SCFGRAD-calculation: 33.7 MB

------------------------------------------------------------------------------
                              ORCA PROPERTY CALCULATIONS
------------------------------------------------------------------------------

GBWName                                 ... xtb_opt.gbw
Number of atoms                         ...     14
Number of basis functions               ...    195
Max core memory                         ...   1024 MB

Electric properties:
Dipole moment                           ... YES
Quadrupole moment                       ...  NO
Static polarizability (Dipole/Dipole)   ...  NO
Static polarizability (Dipole/Quad.)    ...  NO
Static polarizability (Quad./Quad.)     ...  NO
Static polarizability (Velocity)        ...  NO

Atomic electric properties:
Dipole moment                           ...  NO
Quadrupole moment                       ...  NO
Static polarizability                   ...  NO

Choice of electric origin               ... Center of mass
Position of electric origin             ...     0.000030    -0.000005     0.000000

General magnetic properties:
Magnetizability                         ...  NO

EPR properties:
g-Tensor (aka g-matrix)                 ...  NO
Zero-Field splitting spin-orbit         ...  NO
Zero-field splitting spin-spin          ...  NO
Hyperfine couplings                     ...  NO (   0 nuclei)
Quadrupole couplings                    ...  NO (   0 nuclei)
Contact density                         ...  NO (   0 nuclei)

NMR properties:
Chemical shifts                         ...  NO (   0 nuclei)
Spin-rotation constants                 ...  NO (   0 nuclei)
Spin-spin couplings                     ...  NO (   0 nuclei,    0 pairs)

Choice of magnetic origin               ... GIAO
Position of magnetic origin             ...     0.000000     0.000000     0.000000

Properties with geometric perturbations:
SCF Hessian                             ...  NO
IR spectrum                             ...  NO
VCD spectrum                            ...  NO
X-ray spectroscopy properties:
SCF XES/XAS/RIXS spectra                ...  NO


-------------
DIPOLE MOMENT
-------------

Method             : SCF
Type of density    : Electron Density
Multiplicity       :   1
Irrep              :   0
Energy             :  -747.1215427115546390 Eh
Relativity type    : 
Basis              : AO
                                X                 Y                 Z
Electronic contribution:     -9.624010704       1.825747700      -0.019148109
Nuclear contribution   :     11.340822376      -1.394507859       0.355737209
                        -----------------------------------------
Total Dipole Moment    :      1.716811673       0.431239841       0.336589100
                        -----------------------------------------
Magnitude (a.u.)       :      1.801860800
Magnitude (Debye)      :      4.579966178



--------------------
Rotational spectrum 
--------------------
 
Rotational constants in cm-1:             0.115295             0.039983             0.029698 
Rotational constants in MHz :          3456.468877          1198.646662           890.318846 

Dipole components along the rotational axes: 
x,y,z [a.u.] :     1.716813    -0.431234     0.336589 
x,y,z [Debye]:     4.363792    -1.096110     0.855541 

 

Dipole moment calculation done in   0.0 sec 

Maximum memory used throughout the entire PROP-calculation: 12.1 MB

--------------------------------
SUGGESTED CITATIONS FOR THIS RUN
--------------------------------

Below you find a list of papers that are relevant to this ORCA run
We neither can nor want to force you to cite these papers, but we appreciate if you do
You receive ORCA, which is the product of decades of hard work by many enthusiastic individuals, for free
The only thing we kindly ask in return is that you cite our papers,
We deeply appreciate it, if you show your appreciation for ORCA by not just citing the generic ORCA reference.

Please note that relegating all ORCA citations to the supporting information does *not* help us.
SI sections are not indexed - citations you put there will not count into any citation statistics
But we need these citations in order to attract the funding resources that allow us to do what we are doing

Therefore, if you are a happy ORCA user, please consider citing a few of the papers listed below in the main body of your paper

In addition to the list printed below, the program has created the file xtb_opt.bibtex that contains the list in bibtex format
You can import this file easily into all common literature databanks and citation aid programs


List of essential papers. We consider these as the minimum necessary citations

  1. Neese,F.
     Software update: the ORCA program system, version 5.0
     WIRES Comput. Molec. Sci., 2022 12(1)e1606
     doi.org/10.1002/wcms.1606
  2. Grimme,S.; Hansen,A.; Ehlert,S.; Mewes,J.
     r2SCAN-3c: A 'Swiss army knife' composite electronic-structure method
     J. Chem. Phys., 2021 154 064103
     doi.org/10.1063/5.0040021

List of papers to cite with high priority. The work reported in these papers was absolutely
necessary for this run to complete.
Our perspective: the developers of density functionals and basis sets usually get cited in chemistry papers
Good! But without the algorithms to do something with them, the functionals or basis sets would not do anything.
Hence, in our opinion, the algorithm design and method developments papers are equally worthy of getting cited

  1. Neese,F.
     An improvement of the resolution of the identity approximation for the formation of the Coulomb matrix
     J. Comp. Chem., 2003 24(14)1740-1747
     doi.org/10.1002/jcc.10318
  2. Garcia-Rates,M.; Neese,F.
     Effect of the Solute Cavity on the Solvation Energy and its Derivatives within the Framework of the Gaussian Charge Scheme
     J. Comput. Chem., 2020 41 922-939
     doi.org/10.1002/jcc.26139
  3. Neese,F.
     The SHARK Integral Generation and Digestion System
     J. Comp. Chem., 2022  1-16
     doi.org/10.1002/jcc.26942
  4. Lehtola,S.; Steigemann,C.; Oliveira,M.; Marques,M.
     Recent developments in Libxc - A comprehensive library of functionals for density functional theory
     Software X, 2018 7 
     doi.org/10.1016/j.softx.2017.11.002
  5. Caldeweyher,E.; Bannwarth,C.; Grimme,S.
     Extension of the D3 dispersion coefficient model
     J. Chem. Phys., 2017 147 034112-XXXX
     doi.org/10.1063/1.4993215
  6. Caldeweyher,E.; Ehlert,S.; Hansen,A.; Neugebauer,H.; Spicher,S.; Bannwarth,C.; Grimme,S.
     A generally applicable atomic-charge dependent London dispersion correction
     J. Chem. Phys., 2019 150 154122-XXXX
     doi.org/10.1063/1.5090222
  7. Caldeweyher,E.; Mewes,J.; Ehlert,S.; Grimme,S.
     Extension and evaluation of the D4 London-dispersion model for periodic systems
     Phys. Chem. Chem. Phys., 2020 22(16)8499-8512
     doi.org/10.1039/D0CP00502A

List of suggested additional citations. These are papers that are important in the 'surrounding' of 
of this run, or papers that preceded the highly important papers. If you like your results we are grateful for a citation.

  1. Neese,F.
     The ORCA program system
     WIRES Comput. Molec. Sci., 2012 2(1)73-78
     doi.org/10.1002/wcms.81
  2. Neese,F.
     Software update: the ORCA program system, version 4.0
     WIRES Comput. Molec. Sci., 2018 8(1)1-6
     doi.org/10.1002/wcms.1327
  3. Neese,F.; Wennmohs,F.; Becker,U.; Riplinger,C.
     The ORCA quantum chemistry program package
     J. Chem. Phys., 2020 152 Art. No. L224108
     doi.org/10.1063/5.0004608

List of optional additional citations

  1. Neese,F.
     Approximate second-order SCF convergence for spin unrestricted wavefunctions
     Chem. Phys. Lett., 2000 325(1-3)93-98
     doi.org/10.1016/s0009-2614(00)00662-x

Timings for individual modules:

Sum of individual times          ...       14.439 sec (=   0.241 min)
Startup calculation              ...        1.006 sec (=   0.017 min)   7.0 %
SCF iterations                   ...        5.912 sec (=   0.099 min)  40.9 %
Property calculations            ...        0.105 sec (=   0.002 min)   0.7 %
SCF Gradient evaluation          ...        7.417 sec (=   0.124 min)  51.4 %
                             ****ORCA TERMINATED NORMALLY****
TOTAL RUN TIME: 0 days 0 hours 0 minutes 15 seconds 88 msec
  ------------------------------------------------------------------------
          * successful ORCA run, taking over control again...

         :::::::::::::::::::::::::::::::::::::::::::::::::::::
         ::                  ORCA SUMMARY                   ::
         :::::::::::::::::::::::::::::::::::::::::::::::::::::
         :: total energy            -747.119635329596 Eh    ::
         :: gradient norm              0.019127819233 Eh/a0 ::
         :: HOMO-LUMO gap              0.000000000000 eV    ::
         :::::::::::::::::::::::::::::::::::::::::::::::::::::

      ----------------------------------------------------------- 
     |                       L-ANC optimizer                     |
      ----------------------------------------------------------- 
          low memory version by Sebastian Ehlert

          ...................................................
          :                      SETUP                      :
          :.................................................:
          :   energy convergence        0.5000000E-05 Eh    :
          :   grad. convergence         0.1000000E-02 Eh/a0 :
          :   optimization log               true           :
          :   writing optlog all                1     steps :
          :   Hessian reset                    20     steps :
          :   maximium step len.        1.0000000     a0    :
          :   LBFGS images                     20           :
          ...................................................
 * calculating model hessian...
Using Lindh-Hessian (1995)
 Shifting diagonal of input Hessian by   1.000000000000000E-002
 Lowest  eigenvalues of input Hessian
    0.000000    0.000000    0.000000    0.000000    0.000000    0.000000
    0.017943    0.020397    0.027451    0.029538    0.038139    0.038456
    0.063582    0.067711    0.079739    0.087639    0.110210    0.112297
 Highest eigenvalues
    1.524030    1.693936    1.829118    1.912460    2.040719    2.141870
 

........................................................................
.............................. CYCLE    1 ..............................
........................................................................
                         * ORCA takes the control...
  ------------------------------------------------------------------------

                                 *****************
                                 * O   R   C   A *
                                 *****************

                                            #,                                       
                                            ###                                      
                                            ####                                     
                                            #####                                    
                                            ######                                   
                                           ########,                                 
                                     ,,################,,,,,                         
                               ,,#################################,,                 
                          ,,##########################################,,             
                       ,#########################################, ''#####,          
                    ,#############################################,,   '####,        
                  ,##################################################,,,,####,       
                ,###########''''           ''''###############################       
              ,#####''   ,,,,##########,,,,          '''####'''          '####       
            ,##' ,,,,###########################,,,                        '##       
           ' ,,###''''                  '''############,,,                           
         ,,##''                                '''############,,,,        ,,,,,,###''
      ,#''                                            '''#######################'''  
     '                                                          ''''####''''         
             ,#######,   #######,   ,#######,      ##                                
            ,#'     '#,  ##    ##  ,#'     '#,    #''#        ,####,   ,####,        
            ##       ##  ##   ,#'  ##            #'  '#       #'       #'  '#        
            ##       ##  #######   ##           ,######,      #####,   #    #        
            '#,     ,#'  ##    ##  '#,     ,#' ,#      #,     #,   #   #,  ,#        
             '#######'   ##     ##  '#######'  #'      '#     '####' # '####'        



                #########################################################
                #                        -***-                          #
                #          Department of theory and spectroscopy        #
                #                                                       #
                #                      Frank Neese                      #
                #                                                       #
                #     Directorship, Architecture, Infrastructure        #
                #                    SHARK, DRIVERS                     #
                #        Core code/Algorithms in most modules           #
                #                                                       #
                #        Max Planck Institute fuer Kohlenforschung      #
                #                Kaiser Wilhelm Platz 1                 #
                #                 D-45470 Muelheim/Ruhr                 #
                #                      Germany                          #
                #                                                       #
                #                  All rights reserved                  #
                #                        -***-                          #
                #########################################################


                         Program Version 6.0.0  -   RELEASE  -


 With contributions from (in alphabetic order):
   Daniel Aravena         : Magnetic Suceptibility
   Michael Atanasov       : Ab Initio Ligand Field Theory (pilot matlab implementation)
   Alexander A. Auer      : GIAO ZORA, VPT2 properties, NMR spectrum
   Ute Becker             : All parallelization in ORCA, NUMFREQ, NUMCALC
   Giovanni Bistoni       : ED, misc. LED, open-shell LED, HFLD
   Martin Brehm           : Molecular dynamics
   Dmytro Bykov           : pre 5.0 version of the SCF Hessian
   Marcos Casanova-Páez   : Triplet and SCS-CIS(D). UHF-(DLPNO)-IP/EA/STEOM-CCSD. UHF-CVS-IP/STEOM-CCSD
   Vijay G. Chilkuri      : MRCI spin determinant printing, contributions to CSF-ICE
   Pauline Colinet        : FMM embedding
   Dipayan Datta          : RHF DLPNO-CCSD density
   Achintya Kumar Dutta   : EOM-CC, STEOM-CC
   Nicolas Foglia         : Exact transition moments, OPA infrastructure, MCD improvements
   Dmitry Ganyushin       : Spin-Orbit,Spin-Spin,Magnetic field MRCI
   Miquel Garcia          : C-PCM and meta-GGA Hessian, CCSD/C-PCM, Gaussian charge scheme
   Tiago L. C. Gouveia    : GS-ROHF, GS-ROCIS
   Yang Guo               : DLPNO-NEVPT2, F12-NEVPT2, CIM, IAO-localization
   Andreas Hansen         : Spin unrestricted coupled pair/coupled cluster methods
   Ingolf Harden          : AUTO-CI MPn and infrastructure 
   Benjamin Helmich-Paris : MC-RPA, TRAH-(SCF,CASSCF), AVAS, COSX integrals, SCF dyn. polar.
   Lee Huntington         : MR-EOM, pCC
   Robert Izsak           : Overlap fitted RIJCOSX, COSX-SCS-MP3, EOM
   Riya Kayal             : Wick's Theorem for AUTO-CI, AUTO-CI UHF-CCSDT
   Emily Kempfer          : AUTO-CI, RHF CISDT and CCSDT
   Christian Kollmar      : KDIIS, OOCD, Brueckner-CCSD(T), CCSD density, CASPT2, CASPT2-K, improved NEVPT2
   Axel Koslowski         : Symmetry handling
   Simone Kossmann        : Meta GGA functionals, TD-DFT gradient, OOMP2, (MP2 Hessian; deprecated post 5.0)
   Lucas Lang             : DCDCAS
   Marvin Lechner         : AUTO-CI (C++ implementation), FIC-MRCC
   Spencer Leger          : CASSCF response
   Dagmar Lenk            : GEPOL surface, SMD, ORCA-2-JSON
   Dimitrios Liakos       : Extrapolation schemes; Compound Job, initial MDCI parallelization
   Dimitrios Manganas     : Further ROCIS development; embedding schemes. LFT, Crystal Embedding
   Dimitrios Pantazis     : SARC Basis sets
   Anastasios Papadopoulos: AUTO-CI, single reference methods and gradients
   Taras Petrenko         : pre 6.0 DFT Hessian and TD-DFT gradient, (ASA, deprecated), ECA, 1-Electron XAS/XES, NRVS
   Peter Pinski           : DLPNO-MP2, DLPNO-MP2 Gradient
   Christoph Reimann      : Effective Core Potentials
   Marius Retegan         : Local ZFS, SOC
   Christoph Riplinger    : Optimizer, TS searches, QM/MM, DLPNO-CCSD(T), (RO)-DLPNO pert. Triples
   Michael Roemelt        : Original ROCIS implementation
   Masaaki Saitow         : Open-shell DLPNO-CCSD energy and density
   Barbara Sandhoefer     : DKH picture change effects
   Kantharuban Sivalingam : CASSCF convergence/infrastructure, NEVPT2 and variants, FIC-MRCI
   Bernardo de Souza      : ESD, SOC TD-DFT
   Georgi Stoychev        : AutoAux, RI-MP2 NMR, DLPNO-MP2 response, X2C
   Van Anh Tran           : RI-MP2 g-tensors
   Willem Van den Heuvel  : Paramagnetic NMR
   Zikuan Wang            : NOTCH, Electric field optimization 
   Frank Wennmohs         : Technical directorship and infrastructure
   Hang Xu                : AUTO-CI-Response properties 


 We gratefully acknowledge several colleagues who have allowed us to
 interface, adapt or use parts of their codes:
   Stefan Grimme, W. Hujo, H. Kruse, P. Pracht,  : VdW corrections, initial TS optimization,
                  C. Bannwarth, S. Ehlert,         DFT functionals, gCP, sTDA/sTD-DF
                  L. Wittmann, M. Mueller
   Ed Valeev, F. Pavosevic, A. Kumar             : LibInt (2-el integral package), F12 methods
   Garnet Chan, S. Sharma, J. Yang, R. Olivares  : DMRG
   Ulf Ekstrom                                   : XCFun DFT Library
   Mihaly Kallay                                 : mrcc  (arbitrary order and MRCC methods)
   Frank Weinhold                                : gennbo (NPA and NBO analysis)
   Simon Mueller                                 : openCOSMO-RS
   Christopher J. Cramer and Donald G. Truhlar   : smd solvation model
   Lars Goerigk                                  : TD-DFT with DH, B97 family of functionals
   V. Asgeirsson, H. Jonsson                     : NEB implementation
   FAccTs GmbH                                   : IRC, NEB, NEB-TS, DLPNO-Multilevel, CI-OPT
                                                   MM, QMMM, 2- and 3-layer-ONIOM, Crystal-QMMM,
                                                   LR-CPCM, SF, NACMEs, symmetry and pop. for TD-DFT,
                                                   nearIR, NL-DFT gradient (VV10), updates on ESD,
                                                   ML-optimized integration grids, MBIS, APM,
                                                   GOAT, DOCKER, SOLVATOR, interface openCOSMO-RS
   S Lehtola, MJT Oliveira, MAL Marques          : LibXC Library
   Liviu Ungur et al                             : ANISO software


 Your calculation uses the libint2 library for the computation of 2-el integrals
 For citations please refer to: http://libint.valeyev.net

 Your ORCA version has been built with support for libXC version: 6.2.2
 For citations please refer to: https://libxc.gitlab.io

 This ORCA versions uses:
   CBLAS   interface :  Fast vector & matrix operations
   LAPACKE interface :  Fast linear algebra routines
   SCALAPACK package :  Parallel linear algebra routines
   Shared memory     :  Shared parallel matrices
   BLAS/LAPACK       :  OpenBLAS 0.3.27  USE64BITINT DYNAMIC_ARCH NO_AFFINITY SkylakeX SINGLE_THREADED
        Core in use  :  SkylakeX
   Copyright (c) 2011-2014, The OpenBLAS Project




***************************************
The coordinates will be read from file: xtb_opt.xyz
***************************************


Your calculation utilizes the geometrical counterpoise correction gCP
Please cite in your paper:
H.Kruse, S. Grimme J.Chem.Phys., 136, (2012), 154101 
   

Your calculation utilizes the atom-pairwise dispersion correction
based on EEQ partial charges (D4)


Your calculation utilizes the SMD solvation module
Please cite in your paper:
A.V. Marenich, C.J. Cramer, D.G. Truhlar J. Phys. Chem. B, 113, (2009), 6378 

================================================================================

----- Orbital basis set information -----
Your calculation utilizes the basis: def2-mTZVPP
   Stefan Grimme, Andreas Hansen, Sebastian Ehlert, and Jan-Michael Mewes 
   J. Chem. Phys. 154, 064103 (2021). DOI: 10.1063/5.0040021

----- AuxJ basis set information -----
Your calculation utilizes the auxiliary basis: def2/J
   F. Weigend, Phys. Chem. Chem. Phys. 8, 1057 (2006).

================================================================================
                                        WARNINGS
                       Please study these warnings very carefully!
================================================================================

WARNING: Old DensityContainer found on disk!
         Will remove this file - 
         If you want to keep old densities, please start your calculation with a different basename. 

Using LibXC functional ID 497 : Re-regularized SCAN exchange by Furness et al
[ 1]  J. W. Furness, A. D. Kaplan, J. Ning, J. P. Perdew, and J. Sun.,  J. Phys. Chem. Lett. 11, 8208-8215 (2020)
[ 2]  J. W. Furness, A. D. Kaplan, J. Ning, J. P. Perdew, and J. Sun.,  J. Phys. Chem. Lett. 11, 9248-9248 (2020)
Using LibXC functional ID 498 : Re-regularized SCAN correlation by Furness et al
[ 1]  J. W. Furness, A. D. Kaplan, J. Ning, J. P. Perdew, and J. Sun.,  J. Phys. Chem. Lett. 11, 8208-8215 (2020)
[ 2]  J. W. Furness, A. D. Kaplan, J. Ning, J. P. Perdew, and J. Sun.,  J. Phys. Chem. Lett. 11, 9248-9248 (2020)
Using LibXC functional ID 497 : Re-regularized SCAN exchange by Furness et al
[ 1]  J. W. Furness, A. D. Kaplan, J. Ning, J. P. Perdew, and J. Sun.,  J. Phys. Chem. Lett. 11, 8208-8215 (2020)
[ 2]  J. W. Furness, A. D. Kaplan, J. Ning, J. P. Perdew, and J. Sun.,  J. Phys. Chem. Lett. 11, 9248-9248 (2020)
Using LibXC functional ID 498 : Re-regularized SCAN correlation by Furness et al
[ 1]  J. W. Furness, A. D. Kaplan, J. Ning, J. P. Perdew, and J. Sun.,  J. Phys. Chem. Lett. 11, 8208-8215 (2020)
[ 2]  J. W. Furness, A. D. Kaplan, J. Ning, J. P. Perdew, and J. Sun.,  J. Phys. Chem. Lett. 11, 9248-9248 (2020)

================================================================================
                                       INPUT FILE
================================================================================
NAME = xtb_opt.inp
|  1> ! r2scan-3c def2/J RI DEFGRID2 scfconv7 ENGRAD tightSCF miniprint
|  2> %cpcm
|  3>     smd true
|  4>     smdsolvent "water"
|  5> end
|  6> * xyzfile 0 1 xtb_opt.xyz
|  7> 
|  8>                          ****END OF INPUT****
================================================================================

                     *******************************
                     * Energy+Gradient Calculation *
                     *******************************

---------------------------------
CARTESIAN COORDINATES (ANGSTROEM)
---------------------------------
  C      0.864865   -1.829391    0.000449
  C      1.886220   -0.893996    0.003939
  C      1.593194    0.480798   -0.000128
  C      0.246652    0.881987    0.005853
  C     -0.748185   -0.081322    0.001377
  C     -0.473879   -1.442969   -0.003714
  Cl    -2.422393    0.446094    0.001622
  N      2.595470    1.414836   -0.051200
  H      1.108102   -2.885822   -0.000127
  H      2.922117   -1.215734    0.006326
  H     -0.006634    1.935966    0.010022
  H     -1.272428   -2.173200   -0.007615
  H      2.360247    2.363911    0.190360
  H      3.522977    1.111736    0.198128

----------------------------
CARTESIAN COORDINATES (A.U.)
----------------------------
  NO LB      ZA    FRAG     MASS         X           Y           Z
   0 C     6.0000    0    12.011    1.634358   -3.457048    0.000848
   1 C     6.0000    0    12.011    3.564439   -1.689408    0.007443
   2 C     6.0000    0    12.011    3.010700    0.908576   -0.000242
   3 C     6.0000    0    12.011    0.466104    1.666714    0.011061
   4 C     6.0000    0    12.011   -1.413865   -0.153677    0.002603
   5 C     6.0000    0    12.011   -0.895501   -2.726815   -0.007018
   6 Cl   17.0000    0    35.453   -4.577660    0.842995    0.003065
   7 N     7.0000    0    14.007    4.904728    2.673653   -0.096754
   8 H     1.0000    0     1.008    2.094009   -5.453412   -0.000240
   9 H     1.0000    0     1.008    5.522001   -2.297404    0.011954
  10 H     1.0000    0     1.008   -0.012537    3.658445    0.018938
  11 H     1.0000    0     1.008   -2.404540   -4.106753   -0.014390
  12 H     1.0000    0     1.008    4.460220    4.467144    0.359729
  13 H     1.0000    0     1.008    6.657462    2.100877    0.374408

------------------------------------------------------------------------------
                   ___                                                        
                  /   \      - P O W E R E D   B Y -                         
                 /     \                                                     
                 |  |  |   _    _      __       _____    __    __             
                 |  |  |  | |  | |    /  \     |  _  \  |  |  /  |          
                  \  \/   | |  | |   /    \    | | | |  |  | /  /          
                 / \  \   | |__| |  /  /\  \   | |_| |  |  |/  /          
                |  |  |   |  __  | /  /__\  \  |    /   |      \           
                |  |  |   | |  | | |   __   |  |    \   |  |\   \          
                \     /   | |  | | |  |  |  |  | |\  \  |  | \   \       
                 \___/    |_|  |_| |__|  |__|  |_| \__\ |__|  \__/        
                                                                              
                      - O R C A' S   B I G   F R I E N D -                    
                                      &                                       
                       - I N T E G R A L  F E E D E R -                       
                                                                              
 v1 FN, 2020, v2 2021, v3 2022-2024                                           
------------------------------------------------------------------------------


----------------------
SHARK INTEGRAL PACKAGE
----------------------

Number of atoms                             ...     14
Number of basis functions                   ...    195
Number of shells                            ...     93
Maximum angular momentum                    ...      2
Integral batch strategy                     ... SHARK/LIBINT Hybrid
RI-J (if used) integral strategy            ... SPLIT-RIJ (Revised 2003 algorithm where possible)
Printlevel                                  ...      1
Contraction scheme used                     ... SEGMENTED contraction
Prescreening option                         ... SCHWARTZ
   Thresh                                   ... 3.000e-11
   Tcut                                     ... 1.000e-12
   Tpresel                                  ... 1.000e-12 
Coulomb Range Separation                    ... NOT USED
Exchange Range Separation                   ... NOT USED
Multipole approximations                    ... NOT USED
Finite Nucleus Model                        ... NOT USED
CABS basis                                  ... NOT available
Auxiliary Coulomb fitting basis             ... AVAILABLE
   # of basis functions in Aux-J            ...    460
   # of shells in Aux-J                     ...    152
   Maximum angular momentum in Aux-J        ...      4
Auxiliary J/K fitting basis                 ... NOT available
Auxiliary Correlation fitting basis         ... NOT available
Auxiliary 'external' fitting basis          ... NOT available

Checking pre-screening integrals            ... done (  0.0 sec) Dimension = 93
Check shell pair data                       ... done (  0.0 sec)
Shell pair information
Shell pair cut-off parameter TPreSel        ...   1.0e-12
Total number of shell pairs                 ...      4371
Shell pairs after pre-screening             ...      3976
Total number of primitive shell pairs       ...     16865
Primitive shell pairs kept                  ...     10895
          la=0 lb=0:   1203 shell pairs
          la=1 lb=0:   1475 shell pairs
          la=1 lb=1:    466 shell pairs
          la=2 lb=0:    482 shell pairs
          la=2 lb=1:    296 shell pairs
          la=2 lb=2:     54 shell pairs

Calculating one electron integrals          ... done (  0.0 sec)
Calculating RI/J V-Matrix + Cholesky decomp.... done (  0.1 sec)
Calculating Nuclear repulsion               ... done (  0.0 sec) ENN=    396.895787829949 Eh

Diagonalization of the overlap matrix:
Smallest eigenvalue                        ... 3.270e-05
Time for diagonalization                   ...    0.004 sec
Threshold for overlap eigenvalues          ... 1.000e-07
Number of eigenvalues below threshold      ... 0
Time for construction of square roots      ...    0.017 sec
Total time needed                          ...    0.029 sec

-------------------
DFT GRID GENERATION
-------------------

General Integration Accuracy     IntAcc      ... 4.388
Radial Grid Type                 RadialGrid  ... OptM3 with GC (2021)
Angular Grid (max. ang.)         AngularGrid ... 4 (Lebedev-302)
Angular grid pruning method      GridPruning ... 4 (adaptive)
Weight generation scheme         WeightScheme... mBecke (2022)
Basis function cutoff            BFCut       ... 1.0000e-11
Integration weight cutoff        WCut        ... 1.0000e-14
Partially contracted basis set               ... off
Rotationally invariant grid construction     ... off
Angular grids for H and He will be reduced by one unit

Total number of grid points                  ...    68783
Total number of batches                      ...     1081
Average number of points per batch           ...       63
Average number of grid points per atom       ...     4913
Initializing property integral containers    ... done (  0.0 sec)

SHARK setup successfully completed in   1.0 seconds

Maximum memory used throughout the entire STARTUP-calculation: 32.2 MB
Occupation numbers will be reassigned to an Aufbau configuration
             **** ENERGY FILE WAS UPDATED (xtb_opt.en.tmp) ****
Finished Guess after   0.3 sec
Maximum memory used throughout the entire GUESS-calculation: 13.5 MB
--------------------
CPCM SOLVATION MODEL
--------------------
CPCM parameters:
  Epsilon                                         ...      78.3550
  Refrac                                          ...       1.3328
  Rsolv                                           ...       1.3000
  Surface type                                    ... GAUSSIAN VDW
  Discretization scheme                           ... Constant charge density
    Threshold for H atoms                         ...       5.0000 (charges/Ang^2)
    Threshold for non-H atoms                     ...       5.0000 (charges/Ang^2)
  Epsilon function type                           ...         CPCM
Solvent:                                          ... WATER
SMD-CDS solvent descriptors:
  Soln                                            ...       1.3328
  Soln25                                          ...       1.3323
  Sola                                            ...       0.0000
  Solb                                            ...       0.0000
  Solg                                            ...       0.0000
  Solc                                            ...       0.0000
  Solh                                            ...       0.0000
Radii:
  Scheme                                          ... Element-dependent radii
  Radius for C  used is    3.4960 Bohr (=   1.8500 Ang.)
  Radius for Cl used is    4.4975 Bohr (=   2.3800 Ang.)
  Radius for N  used is    3.5716 Bohr (=   1.8900 Ang.)
  Radius for H  used is    2.2677 Bohr (=   1.2000 Ang.)
Calculating surface                               ...        done! (  0.0s)
Cavity surface points                             ...         1227
Cavity Volume                                     ...     992.4897
Cavity Surface-area                               ...     582.0047
Calculating surface distance matrix               ...        done! (  0.0s)
Performing Cholesky decomposition & store         ...        done! (  0.1s)
Overall time for CPCM initialization              ...                 0.1s

----------------------------------------D-I-I-S--------------------------------------------
Iteration    Energy (Eh)           Delta-E    RMSDP     MaxDP     DIISErr   Damp  Time(sec)
-------------------------------------------------------------------------------------------
               ***  Starting incremental Fock matrix formation  ***
    1    -747.1270118940578868     0.00e+00  9.64e-05  2.13e-03  3.67e-03  0.700   2.6
                              *** Initializing SOSCF ***
---------------------------------------S-O-S-C-F--------------------------------------
Iteration    Energy (Eh)           Delta-E    RMSDP     MaxDP     MaxGrad    Time(sec)
--------------------------------------------------------------------------------------
    2    -747.1270729772543291    -6.11e-05  2.78e-04  5.98e-03  2.73e-03     2.2
               *** Restarting incremental Fock matrix formation ***
    3    -747.1272045402697586    -1.32e-04  8.15e-05  1.40e-03  4.36e-04     2.5
    4    -747.1271988835153479     5.66e-06  3.94e-05  9.23e-04  7.58e-04     2.1
    5    -747.1272118675985894    -1.30e-05  1.65e-05  3.05e-04  9.25e-05     2.1
    6    -747.1272112370243121     6.31e-07  1.04e-05  1.74e-04  1.55e-04     2.1
    7    -747.1272122297989426    -9.93e-07  3.69e-06  1.32e-04  1.34e-05     2.0
                  *** Gradient check signals convergence ***

               *****************************************************
               *                     SUCCESS                       *
               *           SCF CONVERGED AFTER   7 CYCLES          *
               *****************************************************


SMD CDS free energy correction energy :                 3.11119     Kcal/mol
Total Energy after SMD CDS correction =              -747.122254235 Eh
             **** ENERGY FILE WAS UPDATED (xtb_opt.en.tmp) ****

----------------
TOTAL SCF ENERGY
----------------

Total Energy       :       -747.12225423524796 Eh          -20330.23011 eV

Components:
Nuclear Repulsion  :        396.89578782994869 Eh           10800.08345 eV
Electronic Energy  :      -1144.00585754350641 Eh          -31129.98200 eV
One Electron Energy:      -1810.20087647130549 Eh          -49258.07008 eV
Two Electron Energy:        666.19501892779908 Eh           18128.08808 eV
CPCM Dielectric    :         -0.01714251624116 Eh              -0.46647 eV
SMD CDS (Gcds)     :          0.00495799455094 Eh               0.13491 eV

Virial components:
Potential Energy   :      -1491.92118758981383 Eh          -40597.23944 eV
Kinetic Energy     :        744.79893335456586 Eh           20267.00933 eV
Virial Ratio       :          2.00311939340490

DFT components:
N(Alpha)           :       33.000036030063 electrons
N(Beta)            :       33.000036030063 electrons
N(Total)           :       66.000072060126 electrons
E(X)               :      -67.586798348989 Eh       
E(C)               :       -2.251738144595 Eh       
E(XC)              :      -69.838536493584 Eh       

CPCM Solvation Model Properties:
Surface-charge          :         -0.02699247319718
Corrected charge        :          0.00000000000000
Outlying charge corr.   :          0.00005425641761 Eh               0.00148 eV
Free-energy (cav+disp)  :          0.00495799455094 Eh               0.13491 eV

---------------
SCF CONVERGENCE
---------------

  Last Energy change         ...    9.9277e-07  Tolerance :   1.0000e-07
  Last MAX-Density change    ...    1.3238e-04  Tolerance :   1.0000e-07
  Last RMS-Density change    ...    3.6861e-06  Tolerance :   5.0000e-09
  Last DIIS Error            ...    2.7311e-03  Tolerance :   1.0000e-07
  Last Orbital Gradient      ...    1.3399e-05  Tolerance :   1.0000e-04
  Last Orbital Rotation      ...    6.4496e-05  Tolerance :   1.0000e-04


----------------
ORBITAL ENERGIES
----------------

  NO   OCC          E(Eh)            E(eV) 
   0   2.0000    -101.219853     -2754.3322 
   1   2.0000     -14.164082      -385.4243 
   2   2.0000     -10.099449      -274.8200 
   3   2.0000     -10.084676      -274.4180 
   4   2.0000     -10.041290      -273.2374 
   5   2.0000     -10.037145      -273.1246 
   6   2.0000     -10.033108      -273.0147 
   7   2.0000     -10.030642      -272.9477 
   8   2.0000      -9.375717      -255.1262 
   9   2.0000      -7.121706      -193.7915 
  10   2.0000      -7.112113      -193.5304 
  11   2.0000      -7.111659      -193.5181 
  12   2.0000      -0.892087       -24.2749 
  13   2.0000      -0.848352       -23.0848 
  14   2.0000      -0.788921       -21.4676 
  15   2.0000      -0.710792       -19.3416 
  16   2.0000      -0.692169       -18.8349 
  17   2.0000      -0.583459       -15.8767 
  18   2.0000      -0.569899       -15.5077 
  19   2.0000      -0.493249       -13.4220 
  20   2.0000      -0.482371       -13.1260 
  21   2.0000      -0.451538       -12.2870 
  22   2.0000      -0.409876       -11.1533 
  23   2.0000      -0.409173       -11.1342 
  24   2.0000      -0.394153       -10.7254 
  25   2.0000      -0.378810       -10.3079 
  26   2.0000      -0.341139        -9.2829 
  27   2.0000      -0.329588        -8.9685 
  28   2.0000      -0.321777        -8.7560 
  29   2.0000      -0.287274        -7.8171 
  30   2.0000      -0.282892        -7.6979 
  31   2.0000      -0.231411        -6.2970 
  32   2.0000      -0.189931        -5.1683 
  33   0.0000      -0.038931        -1.0594 
  34   0.0000      -0.020680        -0.5627 
  35   0.0000       0.007955         0.2165 
  36   0.0000       0.085877         2.3368 
  37   0.0000       0.112248         3.0544 
  38   0.0000       0.114445         3.1142 
  39   0.0000       0.127594         3.4720 
  40   0.0000       0.138749         3.7756 
  41   0.0000       0.142496         3.8775 
  42   0.0000       0.154626         4.2076 
  43   0.0000       0.185196         5.0394 
*Only the first 10 virtual orbitals were printed.
Total SCF time: 0 days 0 hours 0 min 16 sec 
Finished LeanSCF after  16.2 sec

Maximum memory used throughout the entire LEANSCF-calculation: 23.2 MB


-------------------------------------------------------------------------------
                          DFT DISPERSION CORRECTION                            
                                                                               
                                DFTD4 V3.4.0                                   
-------------------------------------------------------------------------------
-------------------------   ----------------
Dispersion correction           -0.004857526
-------------------------   ----------------

------------------   -----------------
gCP correction             0.006723199
------------------   -----------------

-------------------------   --------------------
FINAL SINGLE POINT ENERGY      -747.120388562458
-------------------------   --------------------

------------------------------------------------------------------------------
                         ORCA SCF GRADIENT CALCULATION
------------------------------------------------------------------------------

Nuc. rep. gradient        (SHARK) ... done (  0.0 sec)
HCore & Overlap gradient  (SHARK) ... done (  0.2 sec)
Split-RIJ-J gradient      (SHARK) ... done (  1.3 sec)
XC gradient                       ... done (  4.7 sec)
CPCM gradient                     ... done (  0.7 sec)
SMD gradient                      ... done (  0.0 sec)
Dispersion correction             ... done (  0.0 sec)

-------------------
DISPERSION GRADIENT
-------------------

   1   C   :    0.000017691   -0.000088927   -0.000000396
   2   C   :    0.000062659   -0.000037495   -0.000000339
   3   C   :    0.000055769    0.000028583   -0.000000295
   4   C   :   -0.000013530    0.000046756   -0.000000303
   5   C   :   -0.000066719   -0.000000297   -0.000000439
   6   C   :   -0.000043636   -0.000060183   -0.000000334
   7   Cl  :   -0.000168346    0.000042502    0.000000011
   8   N   :    0.000093607    0.000078338    0.000004965
   9   H   :    0.000009799   -0.000043756   -0.000000099
  10   H   :    0.000036002   -0.000018382   -0.000000474
  11   H   :   -0.000010709    0.000037898   -0.000000479
  12   H   :   -0.000024763   -0.000030025   -0.000000157
  13   H   :    0.000026775    0.000024072   -0.000000804
  14   H   :    0.000025402    0.000020916   -0.000000857

Difference to translation invariance:
           :   -0.0000000000   -0.0000000000    0.0000000000

Difference to rotation invariance:
           :    0.0000000000   -0.0000000000   -0.0000000000

Norm of the Dispersion gradient    ...    0.0002898095
RMS gradient                       ...    0.0000447186
MAX gradient                       ...    0.0001683462
gCP correction                   ... done

------------------
CARTESIAN GRADIENT
------------------

   1   C   :    0.000273367   -0.000591330    0.000144309
[...]
Virial Ratio       :          2.00319440686256

DFT components:
N(Alpha)           :       33.000036693863 electrons
N(Beta)            :       33.000036693863 electrons
N(Total)           :       66.000073387726 electrons
E(X)               :      -67.572327204580 Eh       
E(C)               :       -2.250533189323 Eh       
E(XC)              :      -69.822860393903 Eh       

CPCM Solvation Model Properties:
Surface-charge          :         -0.02695207225413
Corrected charge        :         -0.00000000000000
Outlying charge corr.   :          0.00005403853007 Eh               0.00147 eV
Free-energy (cav+disp)  :          0.00492195233104 Eh               0.13393 eV

---------------
SCF CONVERGENCE
---------------

  Last Energy change         ...    6.6279e-10  Tolerance :   1.0000e-07
  Last MAX-Density change    ...    1.1263e-05  Tolerance :   1.0000e-07
  Last RMS-Density change    ...    6.0830e-07  Tolerance :   5.0000e-09
  Last DIIS Error            ...    1.0952e-05  Tolerance :   1.0000e-07
  Last Orbital Gradient      ...    3.2530e-06  Tolerance :   1.0000e-04
  Last Orbital Rotation      ...    2.0654e-05  Tolerance :   1.0000e-04


----------------
ORBITAL ENERGIES
----------------

  NO   OCC          E(Eh)            E(eV) 
   0   2.0000    -101.219539     -2754.3237 
   1   2.0000     -14.163893      -385.4191 
   2   2.0000     -10.101251      -274.8690 
   3   2.0000     -10.084934      -274.4250 
   4   2.0000     -10.042910      -273.2815 
   5   2.0000     -10.039145      -273.1790 
   6   2.0000     -10.035607      -273.0828 
   7   2.0000     -10.032519      -272.9987 
   8   2.0000      -9.375222      -255.1127 
   9   2.0000      -7.121233      -193.7786 
  10   2.0000      -7.111622      -193.5171 
  11   2.0000      -7.111184      -193.5051 
  12   2.0000      -0.890428       -24.2298 
  13   2.0000      -0.846564       -23.0362 
  14   2.0000      -0.788620       -21.4594 
  15   2.0000      -0.711592       -19.3634 
  16   2.0000      -0.692995       -18.8574 
  17   2.0000      -0.583242       -15.8708 
  18   2.0000      -0.568849       -15.4792 
  19   2.0000      -0.491726       -13.3805 
  20   2.0000      -0.478527       -13.0214 
  21   2.0000      -0.450324       -12.2539 
  22   2.0000      -0.409253       -11.1363 
  23   2.0000      -0.407276       -11.0825 
  24   2.0000      -0.394547       -10.7362 
  25   2.0000      -0.378166       -10.2904 
  26   2.0000      -0.342295        -9.3143 
  27   2.0000      -0.327867        -8.9217 
  28   2.0000      -0.322256        -8.7690 
  29   2.0000      -0.287434        -7.8215 
  30   2.0000      -0.283367        -7.7108 
  31   2.0000      -0.232515        -6.3270 
  32   2.0000      -0.193947        -5.2776 
  33   0.0000      -0.040148        -1.0925 
  34   0.0000      -0.023638        -0.6432 
  35   0.0000       0.003713         0.1010 
  36   0.0000       0.084785         2.3071 
  37   0.0000       0.110970         3.0196 
  38   0.0000       0.112699         3.0667 
  39   0.0000       0.128487         3.4963 
  40   0.0000       0.138147         3.7592 
  41   0.0000       0.142042         3.8652 
  42   0.0000       0.154662         4.2086 
  43   0.0000       0.183273         4.9871 
*Only the first 10 virtual orbitals were printed.
Total SCF time: 0 days 0 hours 0 min 5 sec 
Finished LeanSCF after   5.8 sec

Maximum memory used throughout the entire LEANSCF-calculation: 23.2 MB


-------------------------------------------------------------------------------
                          DFT DISPERSION CORRECTION                            
                                                                               
                                DFTD4 V3.4.0                                   
-------------------------------------------------------------------------------
-------------------------   ----------------
Dispersion correction           -0.004853494
-------------------------   ----------------

------------------   -----------------
gCP correction             0.006730594
------------------   -----------------

-------------------------   --------------------
FINAL SINGLE POINT ENERGY      -747.120761789352
-------------------------   --------------------

------------------------------------------------------------------------------
                         ORCA SCF GRADIENT CALCULATION
------------------------------------------------------------------------------

Nuc. rep. gradient        (SHARK) ... done (  0.0 sec)
HCore & Overlap gradient  (SHARK) ... done (  0.2 sec)
Split-RIJ-J gradient      (SHARK) ... done (  1.3 sec)
XC gradient                       ... done (  4.4 sec)
CPCM gradient                     ... done (  0.7 sec)
SMD gradient                      ... done (  0.0 sec)
Dispersion correction             ... done (  0.0 sec)

-------------------
DISPERSION GRADIENT
-------------------

   1   C   :    0.000017647   -0.000089112   -0.000000154
   2   C   :    0.000062663   -0.000037390   -0.000000813
   3   C   :    0.000055858    0.000028645   -0.000001020
   4   C   :   -0.000013488    0.000046986   -0.000000896
   5   C   :   -0.000066702   -0.000000449   -0.000000320
   6   C   :   -0.000043757   -0.000060341    0.000000282
   7   Cl  :   -0.000168217    0.000042585    0.000000947
   8   N   :    0.000093099    0.000078002    0.000006426
   9   H   :    0.000009759   -0.000043685    0.000000129
  10   H   :    0.000036006   -0.000018402   -0.000000856
  11   H   :   -0.000010656    0.000038021   -0.000001004
  12   H   :   -0.000024739   -0.000030154    0.000000261
  13   H   :    0.000027009    0.000024124   -0.000001450
  14   H   :    0.000025518    0.000021171   -0.000001531

Difference to translation invariance:
           :    0.0000000000   -0.0000000000    0.0000000000

Difference to rotation invariance:
           :   -0.0000000000    0.0000000000   -0.0000000000

Norm of the Dispersion gradient    ...    0.0002897510
RMS gradient                       ...    0.0000447095
MAX gradient                       ...    0.0001682174
gCP correction                   ... done

------------------
CARTESIAN GRADIENT
------------------

   1   C   :    0.000090115   -0.000069392   -0.000012553
   2   C   :   -0.000159304    0.000133924    0.000023885
   3   C   :    0.000052525   -0.000024121   -0.000024839
   4   C   :    0.000090494   -0.000080880    0.000020473
   5   C   :    0.000048330   -0.000045660    0.000006691
   6   C   :    0.000114415    0.000153591    0.000003552
   7   Cl  :   -0.000011810   -0.000000937   -0.000006224
   8   N   :   -0.000066918   -0.000096507   -0.000039026
   9   H   :   -0.000038857    0.000078273    0.000007311
  10   H   :   -0.000072241    0.000011972    0.000010198
  11   H   :   -0.000012279   -0.000069478    0.000005935
  12   H   :    0.000016197    0.000046514   -0.000005138
  13   H   :   -0.000004654   -0.000042711    0.000006536
  14   H   :   -0.000046015    0.000005411    0.000003199

Difference to translation invariance:
           :    0.0000000000    0.0000000000   -0.0000000000

Difference to rotation invariance:
           :   -0.0000963033    0.0000328430   -0.0001210220

Norm of the Cartesian gradient     ...    0.0003967427
RMS gradient                       ...    0.0000612187
MAX gradient                       ...    0.0001593036

-------
TIMINGS
-------

Total SCF gradient time     ....        7.239 sec

Densities                   ....       0.000 sec  (  0.0%)
One electron gradient       ....       0.191 sec  (  2.6%)
RI-J Coulomb gradient       ....       1.286 sec  ( 17.8%)
XC gradient                 ....       4.414 sec  ( 61.0%)
CPCM gradient               ....       0.705 sec  (  9.7%)
   A-Matrix (El+Nuc)        ....       0.052 sec  (  0.7%)
   Potential                ....       0.653 sec  (  9.0%)
SMD gradient                ....       0.015 sec  (  0.2%)

Maximum memory used throughout the entire SCFGRAD-calculation: 33.6 MB

------------------------------------------------------------------------------
                              ORCA PROPERTY CALCULATIONS
------------------------------------------------------------------------------

GBWName                                 ... xtb_opt.gbw
Number of atoms                         ...     14
Number of basis functions               ...    195
Max core memory                         ...   1024 MB

Electric properties:
Dipole moment                           ... YES
Quadrupole moment                       ...  NO
Static polarizability (Dipole/Dipole)   ...  NO
Static polarizability (Dipole/Quad.)    ...  NO
Static polarizability (Quad./Quad.)     ...  NO
Static polarizability (Velocity)        ...  NO

Atomic electric properties:
Dipole moment                           ...  NO
Quadrupole moment                       ...  NO
Static polarizability                   ...  NO

Choice of electric origin               ... Center of mass
Position of electric origin             ...    -0.005698     0.006502    -0.013780

General magnetic properties:
Magnetizability                         ...  NO

EPR properties:
g-Tensor (aka g-matrix)                 ...  NO
Zero-Field splitting spin-orbit         ...  NO
Zero-field splitting spin-spin          ...  NO
Hyperfine couplings                     ...  NO (   0 nuclei)
Quadrupole couplings                    ...  NO (   0 nuclei)
Contact density                         ...  NO (   0 nuclei)

NMR properties:
Chemical shifts                         ...  NO (   0 nuclei)
Spin-rotation constants                 ...  NO (   0 nuclei)
Spin-spin couplings                     ...  NO (   0 nuclei,    0 pairs)

Choice of magnetic origin               ... GIAO
Position of magnetic origin             ...     0.000000     0.000000     0.000000

Properties with geometric perturbations:
SCF Hessian                             ...  NO
IR spectrum                             ...  NO
VCD spectrum                            ...  NO
X-ray spectroscopy properties:
SCF XES/XAS/RIXS spectra                ...  NO


-------------
DIPOLE MOMENT
-------------

Method             : SCF
Type of density    : Electron Density
Multiplicity       :   1
Irrep              :   0
Energy             :  -747.1226388893586545 Eh
Relativity type    : 
Basis              : AO
                                X                 Y                 Z
Electronic contribution:     -9.740272006       1.741309163       0.014565118
Nuclear contribution   :     11.378237523      -1.438765214       0.465161210
                        -----------------------------------------
Total Dipole Moment    :      1.637965517       0.302543949       0.479726328
                        -----------------------------------------
Magnitude (a.u.)       :      1.733378558
Magnitude (Debye)      :      4.405898152



--------------------
Rotational spectrum 
--------------------
 
Rotational constants in cm-1:             0.113799             0.039531             0.029361 
Rotational constants in MHz :          3411.595194          1185.116677           880.214406 

Dipole components along the rotational axes: 
x,y,z [a.u.] :     1.633793    -0.298028     0.496489 
x,y,z [Debye]:     4.152772    -0.757527     1.261974 

 

Dipole moment calculation done in   0.0 sec 

Maximum memory used throughout the entire PROP-calculation: 12.0 MB

--------------------------------
SUGGESTED CITATIONS FOR THIS RUN
--------------------------------

Below you find a list of papers that are relevant to this ORCA run
We neither can nor want to force you to cite these papers, but we appreciate if you do
You receive ORCA, which is the product of decades of hard work by many enthusiastic individuals, for free
The only thing we kindly ask in return is that you cite our papers,
We deeply appreciate it, if you show your appreciation for ORCA by not just citing the generic ORCA reference.

Please note that relegating all ORCA citations to the supporting information does *not* help us.
SI sections are not indexed - citations you put there will not count into any citation statistics
But we need these citations in order to attract the funding resources that allow us to do what we are doing

Therefore, if you are a happy ORCA user, please consider citing a few of the papers listed below in the main body of your paper

In addition to the list printed below, the program has created the file xtb_opt.bibtex that contains the list in bibtex format
You can import this file easily into all common literature databanks and citation aid programs


List of essential papers. We consider these as the minimum necessary citations

  1. Neese,F.
     Software update: the ORCA program system, version 5.0
     WIRES Comput. Molec. Sci., 2022 12(1)e1606
     doi.org/10.1002/wcms.1606
  2. Grimme,S.; Hansen,A.; Ehlert,S.; Mewes,J.
     r2SCAN-3c: A 'Swiss army knife' composite electronic-structure method
     J. Chem. Phys., 2021 154 064103
     doi.org/10.1063/5.0040021

List of papers to cite with high priority. The work reported in these papers was absolutely
necessary for this run to complete.
Our perspective: the developers of density functionals and basis sets usually get cited in chemistry papers
Good! But without the algorithms to do something with them, the functionals or basis sets would not do anything.
Hence, in our opinion, the algorithm design and method developments papers are equally worthy of getting cited

  1. Neese,F.
     An improvement of the resolution of the identity approximation for the formation of the Coulomb matrix
     J. Comp. Chem., 2003 24(14)1740-1747
     doi.org/10.1002/jcc.10318
  2. Garcia-Rates,M.; Neese,F.
     Effect of the Solute Cavity on the Solvation Energy and its Derivatives within the Framework of the Gaussian Charge Scheme
     J. Comput. Chem., 2020 41 922-939
     doi.org/10.1002/jcc.26139
  3. Neese,F.
     The SHARK Integral Generation and Digestion System
     J. Comp. Chem., 2022  1-16
     doi.org/10.1002/jcc.26942
  4. Lehtola,S.; Steigemann,C.; Oliveira,M.; Marques,M.
     Recent developments in Libxc - A comprehensive library of functionals for density functional theory
     Software X, 2018 7 
     doi.org/10.1016/j.softx.2017.11.002
  5. Caldeweyher,E.; Bannwarth,C.; Grimme,S.
     Extension of the D3 dispersion coefficient model
     J. Chem. Phys., 2017 147 034112-XXXX
     doi.org/10.1063/1.4993215
  6. Caldeweyher,E.; Ehlert,S.; Hansen,A.; Neugebauer,H.; Spicher,S.; Bannwarth,C.; Grimme,S.
     A generally applicable atomic-charge dependent London dispersion correction
     J. Chem. Phys., 2019 150 154122-XXXX
     doi.org/10.1063/1.5090222
  7. Caldeweyher,E.; Mewes,J.; Ehlert,S.; Grimme,S.
     Extension and evaluation of the D4 London-dispersion model for periodic systems
     Phys. Chem. Chem. Phys., 2020 22(16)8499-8512
     doi.org/10.1039/D0CP00502A

List of suggested additional citations. These are papers that are important in the 'surrounding' of 
of this run, or papers that preceded the highly important papers. If you like your results we are grateful for a citation.

  1. Neese,F.
     The ORCA program system
     WIRES Comput. Molec. Sci., 2012 2(1)73-78
     doi.org/10.1002/wcms.81
  2. Neese,F.
     Software update: the ORCA program system, version 4.0
     WIRES Comput. Molec. Sci., 2018 8(1)1-6
     doi.org/10.1002/wcms.1327
  3. Neese,F.; Wennmohs,F.; Becker,U.; Riplinger,C.
     The ORCA quantum chemistry program package
     J. Chem. Phys., 2020 152 Art. No. L224108
     doi.org/10.1063/5.0004608

List of optional additional citations

  1. Neese,F.
     Approximate second-order SCF convergence for spin unrestricted wavefunctions
     Chem. Phys. Lett., 2000 325(1-3)93-98
     doi.org/10.1016/s0009-2614(00)00662-x

Timings for individual modules:

Sum of individual times          ...       14.500 sec (=   0.242 min)
Startup calculation              ...        0.983 sec (=   0.016 min)   6.8 %
SCF iterations                   ...        6.071 sec (=   0.101 min)  41.9 %
Property calculations            ...        0.109 sec (=   0.002 min)   0.8 %
SCF Gradient evaluation          ...        7.337 sec (=   0.122 min)  50.6 %
                             ****ORCA TERMINATED NORMALLY****
TOTAL RUN TIME: 0 days 0 hours 0 minutes 15 seconds 249 msec
  ------------------------------------------------------------------------
          * successful ORCA run, taking over control again...

         :::::::::::::::::::::::::::::::::::::::::::::::::::::
         ::                  ORCA SUMMARY                   ::
         :::::::::::::::::::::::::::::::::::::::::::::::::::::
         :: total energy            -747.120761789352 Eh    ::
         :: gradient norm              0.000396742717 Eh/a0 ::
         :: HOMO-LUMO gap              0.000000000000 eV    ::
         :::::::::::::::::::::::::::::::::::::::::::::::::::::

           -------------------------------------------------
          |                Property Printout                |
           -------------------------------------------------
           -------------------------------------------------
          |                Geometry Summary                 |
           -------------------------------------------------

      molecular mass/u    :      127.5717007
   center of mass at/Å    :       -0.0030314       0.0034434      -0.0072920
  moments of inertia/u·Å² :        0.1481318E+03   0.4264325E+03   0.5741449E+03
rotational constants/cm⁻¹ :        0.1138016E+00   0.3953177E-01   0.2936129E-01

 * 13 selected distances

     #   Z          #   Z                                           value/Å
     1   6 C        2   6 C                                       1.3871184
     2   6 C        3   6 C                                       1.4050942 (max)
     3   6 C        4   6 C                                       1.4050593
     4   6 C        5   6 C                                       1.3854662
     1   6 C        6   6 C                                       1.3951219
     5   6 C        6   6 C                                       1.3892046
     3   6 C        8   7 N                                       1.3838436
     1   6 C        9   1 H                                       1.0855370
     2   6 C       10   1 H                                       1.0858408
     4   6 C       11   1 H                                       1.0849074
     6   6 C       12   1 H                                       1.0829616
     8   7 N       13   1 H                                       1.0101907
     8   7 N       14   1 H                                       1.0101367 (min)

 * 4 distinct bonds (by element types)

   Z      Z             #   av. dist./Å        max./Å        min./Å
   1 H    6 C           4     1.0848117     1.0858408     1.0829616
   6 C    6 C           6     1.3945108     1.4050942     1.3854662
   1 H    7 N           2     1.0101637     1.0101907     1.0101367
   6 C    7 N           1     1.3838436     1.3838436     1.3838436


optimized geometry written to: xtbopt.coord


           -------------------------------------------------
          | TOTAL ENERGY             -747.120761789352 Eh   |
          | GRADIENT NORM               0.000396742717 Eh/α |
           -------------------------------------------------

------------------------------------------------------------------------
 * finished run on 2025/04/03 at 21:15:04.089     
------------------------------------------------------------------------
 total:
 * wall-time:     0 d,  0 h,  3 min, 13.659 sec
 *  cpu-time:     0 d,  0 h,  0 min,  0.016 sec
 * ratio c/w:     0.000 speedup
 SCF:
 * wall-time:     0 d,  0 h,  0 min, 15.130 sec
 *  cpu-time:     0 d,  0 h,  0 min,  0.001 sec
 * ratio c/w:     0.000 speedup
 ANC optimizer:
 * wall-time:     0 d,  0 h,  2 min, 58.507 sec
 *  cpu-time:     0 d,  0 h,  0 min,  0.013 sec
 * ratio c/w:     0.000 speedup

