      -----------------------------------------------------------      
     |                   =====================                   |     
     |                           x T B                           |     
     |                   =====================                   |     
     |                         S. Grimme                         |     
     |          Mulliken Center for Theoretical Chemistry        |     
     |                    University of Bonn                     |     
      -----------------------------------------------------------      

   * xtb version 6.7.1 (edcfbbe) compiled by 'albert@albert-system' on 2024-07-22

   xtb is free software: you can redistribute it and/or modify it under
   the terms of the GNU Lesser General Public License as published by
   the Free Software Foundation, either version 3 of the License, or
   (at your option) any later version.
   
   xtb is distributed in the hope that it will be useful,
   but WITHOUT ANY WARRANTY; without even the implied warranty of
   MERCHANTABILITY or FITNESS FOR A PARTICULAR PURPOSE.  See the
   GNU Lesser General Public License for more details.
   
   Cite this work as:
   * C. Bannwarth, E. Caldeweyher, S. Ehlert, A. Hansen, P. Pracht,
     J. Seibert, S. Spicher, S. Grimme, WIREs Comput. Mol. Sci., 2020, 11,
     e01493. DOI: 10.1002/wcms.1493
   
   for GFN2-xTB:
   * C. Bannwarth, S. Ehlert and S. Grimme., J. Chem. Theory Comput., 2019,
     15, 1652-1671. DOI: 10.1021/acs.jctc.8b01176
   for GFN1-xTB:
   * S. Grimme, C. Bannwarth, P. Shushkov, J. Chem. Theory Comput., 2017,
     13, 1989-2009. DOI: 10.1021/acs.jctc.7b00118
   for GFN0-xTB:
   * P. Pracht, E. Caldeweyher, S. Ehlert, S. Grimme, ChemRxiv, 2019, preprint.
     DOI: 10.26434/chemrxiv.8326202.v1
   for GFN-FF:
   * S. Spicher and S. Grimme, Angew. Chem. Int. Ed., 2020, 59, 15665-15673.
     DOI: 10.1002/anie.202004239
   
   for ALPB and GBSA implicit solvation:
   * S. Ehlert, M. Stahn, S. Spicher, S. Grimme, J. Chem. Theory Comput.,
     2021, 17, 4250-4261. DOI: 10.1021/acs.jctc.1c00471
   
   for ddCOSMO and CPCM-X implicit solvation:
   * M. Stahn, S. Ehlert, S. Grimme, J. Phys. Chem. A,
     2023, XX, XXXX-XXXX. DOI: 10.1021/acs.jpca.3c04382
   
   for DFT-D4:
   * E. Caldeweyher, C. Bannwarth and S. Grimme, J. Chem. Phys., 2017,
     147, 034112. DOI: 10.1063/1.4993215
   * E. Caldeweyher, S. Ehlert, A. Hansen, H. Neugebauer, S. Spicher,
     C. Bannwarth and S. Grimme, J. Chem. Phys., 2019, 150, 154122.
     DOI: 10.1063/1.5090222
   * E. Caldeweyher, J.-M. Mewes, S. Ehlert and S. Grimme, Phys. Chem. Chem. Phys.
     2020, 22, 8499-8512. DOI: 10.1039/D0CP00502A
   
   for sTDA-xTB:
   * S. Grimme and C. Bannwarth, J. Chem. Phys., 2016, 145, 054103.
     DOI: 10.1063/1.4959605
   
   in the mass-spec context:
   * V. Asgeirsson, C. Bauer and S. Grimme, Chem. Sci., 2017, 8, 4879.
     DOI: 10.1039/c7sc00601b
   * J. Koopman and S. Grimme, ACS Omega 2019, 4, 12, 15120-15133.
     DOI: 10.1021/acsomega.9b02011
   
   for metadynamics refer to:
   * S. Grimme, J. Chem. Theory Comput., 2019, 155, 2847-2862
     DOI: 10.1021/acs.jctc.9b00143
   
   for SPH calculations refer to:
   * S. Spicher and S. Grimme, J. Chem. Theory Comput., 2021, 17, 1701-1714
     DOI: 10.1021/acs.jctc.0c01306
   
   for ONIOM refer to:
   * C. Plett, A. Katbashev, S. Ehlert, S. Grimme, M. Bursch,
     Phys. Chem. Chem. Phys., 2023, 25, 17860-17868. DOI: 10.1039/D3CP02178E
   
   for DIPRO refer to:
   * J. Kohn, N. Gildemeister, S. Grimme, D. Fazzi, A. Hansen,
     J. Chem. Phys., 2023, just accepted.
   
   for PTB refer to:
   * S. Grimme, M. Mueller, A. Hansen, J. Chem. Phys., 2023, 158, 124111.
     DOI: 10.1063/5.0137838
   
   with help from (in alphabetical order)
   P. Atkinson, C. Bannwarth, F. Bohle, G. Brandenburg, E. Caldeweyher
   M. Checinski, S. Dohm, S. Ehlert, S. Ehrlich, I. Gerasimov, C. Hölzer
   A. Katbashev, J. Kohn, J. Koopman, C. Lavigne, S. Lehtola, F. März, M. Müller,
   F. Musil, H. Neugebauer, J. Pisarek, C. Plett, P. Pracht, F. Pultar,
   J. Seibert, P. Shushkov, S. Spicher, M. Stahn, M. Steiner, T. Strunk,
   J. Stückrath, T. Rose, and J. Unsleber
   
 * started run on 2025/04/03 at 21:49:08.871     
   ID    Z sym.   atoms
    1    6 C      1-3, 5, 6
    2    7 N      4, 7
    3    1 H      8-13

           -------------------------------------------------
          |                Calculation Setup                |
           -------------------------------------------------

          program call               : /srv/scratch/z5358697/.xtb/bin/xtb xtb_opt.coord --opt normal --orca -I xtb_opt-xcontrol-inp
          hostname                   : k158
          coordinate file            : xtb_opt.coord
          omp threads                :                     1

           -------------------------------------------------
          |                   Orca driver                   |
           -------------------------------------------------
orca executable           : /apps/z_install_tree/linux-rocky8-ivybridge/gcc-12.2.0/orca-6.0.0-srtngmq3qlimg2qxbl6avaaiffipurdx/bin/orca
orca input file           : xtb_opt.inp
orca input line           : 
orca parallel             : false
orca number of threads    : 1
                         * ORCA takes the control...
  ------------------------------------------------------------------------

                                 *****************
                                 * O   R   C   A *
                                 *****************

                                            #,                                       
                                            ###                                      
                                            ####                                     
                                            #####                                    
                                            ######                                   
                                           ########,                                 
                                     ,,################,,,,,                         
                               ,,#################################,,                 
                          ,,##########################################,,             
                       ,#########################################, ''#####,          
                    ,#############################################,,   '####,        
                  ,##################################################,,,,####,       
                ,###########''''           ''''###############################       
              ,#####''   ,,,,##########,,,,          '''####'''          '####       
            ,##' ,,,,###########################,,,                        '##       
           ' ,,###''''                  '''############,,,                           
         ,,##''                                '''############,,,,        ,,,,,,###''
      ,#''                                            '''#######################'''  
     '                                                          ''''####''''         
             ,#######,   #######,   ,#######,      ##                                
            ,#'     '#,  ##    ##  ,#'     '#,    #''#        ,####,   ,####,        
            ##       ##  ##   ,#'  ##            #'  '#       #'       #'  '#        
            ##       ##  #######   ##           ,######,      #####,   #    #        
            '#,     ,#'  ##    ##  '#,     ,#' ,#      #,     #,   #   #,  ,#        
             '#######'   ##     ##  '#######'  #'      '#     '####' # '####'        



                #########################################################
                #                        -***-                          #
                #          Department of theory and spectroscopy        #
                #                                                       #
                #                      Frank Neese                      #
                #                                                       #
                #     Directorship, Architecture, Infrastructure        #
                #                    SHARK, DRIVERS                     #
                #        Core code/Algorithms in most modules           #
                #                                                       #
                #        Max Planck Institute fuer Kohlenforschung      #
                #                Kaiser Wilhelm Platz 1                 #
                #                 D-45470 Muelheim/Ruhr                 #
                #                      Germany                          #
                #                                                       #
                #                  All rights reserved                  #
                #                        -***-                          #
                #########################################################


                         Program Version 6.0.0  -   RELEASE  -


 With contributions from (in alphabetic order):
   Daniel Aravena         : Magnetic Suceptibility
   Michael Atanasov       : Ab Initio Ligand Field Theory (pilot matlab implementation)
   Alexander A. Auer      : GIAO ZORA, VPT2 properties, NMR spectrum
   Ute Becker             : All parallelization in ORCA, NUMFREQ, NUMCALC
   Giovanni Bistoni       : ED, misc. LED, open-shell LED, HFLD
   Martin Brehm           : Molecular dynamics
   Dmytro Bykov           : pre 5.0 version of the SCF Hessian
   Marcos Casanova-Páez   : Triplet and SCS-CIS(D). UHF-(DLPNO)-IP/EA/STEOM-CCSD. UHF-CVS-IP/STEOM-CCSD
   Vijay G. Chilkuri      : MRCI spin determinant printing, contributions to CSF-ICE
   Pauline Colinet        : FMM embedding
   Dipayan Datta          : RHF DLPNO-CCSD density
   Achintya Kumar Dutta   : EOM-CC, STEOM-CC
   Nicolas Foglia         : Exact transition moments, OPA infrastructure, MCD improvements
   Dmitry Ganyushin       : Spin-Orbit,Spin-Spin,Magnetic field MRCI
   Miquel Garcia          : C-PCM and meta-GGA Hessian, CCSD/C-PCM, Gaussian charge scheme
   Tiago L. C. Gouveia    : GS-ROHF, GS-ROCIS
   Yang Guo               : DLPNO-NEVPT2, F12-NEVPT2, CIM, IAO-localization
   Andreas Hansen         : Spin unrestricted coupled pair/coupled cluster methods
   Ingolf Harden          : AUTO-CI MPn and infrastructure 
   Benjamin Helmich-Paris : MC-RPA, TRAH-(SCF,CASSCF), AVAS, COSX integrals, SCF dyn. polar.
   Lee Huntington         : MR-EOM, pCC
   Robert Izsak           : Overlap fitted RIJCOSX, COSX-SCS-MP3, EOM
   Riya Kayal             : Wick's Theorem for AUTO-CI, AUTO-CI UHF-CCSDT
   Emily Kempfer          : AUTO-CI, RHF CISDT and CCSDT
   Christian Kollmar      : KDIIS, OOCD, Brueckner-CCSD(T), CCSD density, CASPT2, CASPT2-K, improved NEVPT2
   Axel Koslowski         : Symmetry handling
   Simone Kossmann        : Meta GGA functionals, TD-DFT gradient, OOMP2, (MP2 Hessian; deprecated post 5.0)
   Lucas Lang             : DCDCAS
   Marvin Lechner         : AUTO-CI (C++ implementation), FIC-MRCC
   Spencer Leger          : CASSCF response
   Dagmar Lenk            : GEPOL surface, SMD, ORCA-2-JSON
   Dimitrios Liakos       : Extrapolation schemes; Compound Job, initial MDCI parallelization
   Dimitrios Manganas     : Further ROCIS development; embedding schemes. LFT, Crystal Embedding
   Dimitrios Pantazis     : SARC Basis sets
   Anastasios Papadopoulos: AUTO-CI, single reference methods and gradients
   Taras Petrenko         : pre 6.0 DFT Hessian and TD-DFT gradient, (ASA, deprecated), ECA, 1-Electron XAS/XES, NRVS
   Peter Pinski           : DLPNO-MP2, DLPNO-MP2 Gradient
   Christoph Reimann      : Effective Core Potentials
   Marius Retegan         : Local ZFS, SOC
   Christoph Riplinger    : Optimizer, TS searches, QM/MM, DLPNO-CCSD(T), (RO)-DLPNO pert. Triples
   Michael Roemelt        : Original ROCIS implementation
   Masaaki Saitow         : Open-shell DLPNO-CCSD energy and density
   Barbara Sandhoefer     : DKH picture change effects
   Kantharuban Sivalingam : CASSCF convergence/infrastructure, NEVPT2 and variants, FIC-MRCI
   Bernardo de Souza      : ESD, SOC TD-DFT
   Georgi Stoychev        : AutoAux, RI-MP2 NMR, DLPNO-MP2 response, X2C
   Van Anh Tran           : RI-MP2 g-tensors
   Willem Van den Heuvel  : Paramagnetic NMR
   Zikuan Wang            : NOTCH, Electric field optimization 
   Frank Wennmohs         : Technical directorship and infrastructure
   Hang Xu                : AUTO-CI-Response properties 


 We gratefully acknowledge several colleagues who have allowed us to
 interface, adapt or use parts of their codes:
   Stefan Grimme, W. Hujo, H. Kruse, P. Pracht,  : VdW corrections, initial TS optimization,
                  C. Bannwarth, S. Ehlert,         DFT functionals, gCP, sTDA/sTD-DF
                  L. Wittmann, M. Mueller
   Ed Valeev, F. Pavosevic, A. Kumar             : LibInt (2-el integral package), F12 methods
   Garnet Chan, S. Sharma, J. Yang, R. Olivares  : DMRG
   Ulf Ekstrom                                   : XCFun DFT Library
   Mihaly Kallay                                 : mrcc  (arbitrary order and MRCC methods)
   Frank Weinhold                                : gennbo (NPA and NBO analysis)
   Simon Mueller                                 : openCOSMO-RS
   Christopher J. Cramer and Donald G. Truhlar   : smd solvation model
   Lars Goerigk                                  : TD-DFT with DH, B97 family of functionals
   V. Asgeirsson, H. Jonsson                     : NEB implementation
   FAccTs GmbH                                   : IRC, NEB, NEB-TS, DLPNO-Multilevel, CI-OPT
                                                   MM, QMMM, 2- and 3-layer-ONIOM, Crystal-QMMM,
                                                   LR-CPCM, SF, NACMEs, symmetry and pop. for TD-DFT,
                                                   nearIR, NL-DFT gradient (VV10), updates on ESD,
                                                   ML-optimized integration grids, MBIS, APM,
                                                   GOAT, DOCKER, SOLVATOR, interface openCOSMO-RS
   S Lehtola, MJT Oliveira, MAL Marques          : LibXC Library
   Liviu Ungur et al                             : ANISO software


 Your calculation uses the libint2 library for the computation of 2-el integrals
 For citations please refer to: http://libint.valeyev.net

 Your ORCA version has been built with support for libXC version: 6.2.2
 For citations please refer to: https://libxc.gitlab.io

 This ORCA versions uses:
   CBLAS   interface :  Fast vector & matrix operations
   LAPACKE interface :  Fast linear algebra routines
   SCALAPACK package :  Parallel linear algebra routines
   Shared memory     :  Shared parallel matrices
   BLAS/LAPACK       :  OpenBLAS 0.3.27  USE64BITINT DYNAMIC_ARCH NO_AFFINITY SkylakeX SINGLE_THREADED
        Core in use  :  SkylakeX
   Copyright (c) 2011-2014, The OpenBLAS Project




***************************************
The coordinates will be read from file: xtb_opt.xyz
***************************************


Your calculation utilizes the geometrical counterpoise correction gCP
Please cite in your paper:
H.Kruse, S. Grimme J.Chem.Phys., 136, (2012), 154101 
   

Your calculation utilizes the atom-pairwise dispersion correction
based on EEQ partial charges (D4)


Your calculation utilizes the SMD solvation module
Please cite in your paper:
A.V. Marenich, C.J. Cramer, D.G. Truhlar J. Phys. Chem. B, 113, (2009), 6378 

================================================================================

----- Orbital basis set information -----
Your calculation utilizes the basis: def2-mTZVPP
   Stefan Grimme, Andreas Hansen, Sebastian Ehlert, and Jan-Michael Mewes 
   J. Chem. Phys. 154, 064103 (2021). DOI: 10.1063/5.0040021

----- AuxJ basis set information -----
Your calculation utilizes the auxiliary basis: def2/J
   F. Weigend, Phys. Chem. Chem. Phys. 8, 1057 (2006).

================================================================================
                                        WARNINGS
                       Please study these warnings very carefully!
================================================================================

Using LibXC functional ID 497 : Re-regularized SCAN exchange by Furness et al
[ 1]  J. W. Furness, A. D. Kaplan, J. Ning, J. P. Perdew, and J. Sun.,  J. Phys. Chem. Lett. 11, 8208-8215 (2020)
[ 2]  J. W. Furness, A. D. Kaplan, J. Ning, J. P. Perdew, and J. Sun.,  J. Phys. Chem. Lett. 11, 9248-9248 (2020)
Using LibXC functional ID 498 : Re-regularized SCAN correlation by Furness et al
[ 1]  J. W. Furness, A. D. Kaplan, J. Ning, J. P. Perdew, and J. Sun.,  J. Phys. Chem. Lett. 11, 8208-8215 (2020)
[ 2]  J. W. Furness, A. D. Kaplan, J. Ning, J. P. Perdew, and J. Sun.,  J. Phys. Chem. Lett. 11, 9248-9248 (2020)
Using LibXC functional ID 497 : Re-regularized SCAN exchange by Furness et al
[ 1]  J. W. Furness, A. D. Kaplan, J. Ning, J. P. Perdew, and J. Sun.,  J. Phys. Chem. Lett. 11, 8208-8215 (2020)
[ 2]  J. W. Furness, A. D. Kaplan, J. Ning, J. P. Perdew, and J. Sun.,  J. Phys. Chem. Lett. 11, 9248-9248 (2020)
Using LibXC functional ID 498 : Re-regularized SCAN correlation by Furness et al
[ 1]  J. W. Furness, A. D. Kaplan, J. Ning, J. P. Perdew, and J. Sun.,  J. Phys. Chem. Lett. 11, 8208-8215 (2020)
[ 2]  J. W. Furness, A. D. Kaplan, J. Ning, J. P. Perdew, and J. Sun.,  J. Phys. Chem. Lett. 11, 9248-9248 (2020)

================================================================================
                                       INPUT FILE
================================================================================
NAME = xtb_opt.inp
|  1> ! r2scan-3c def2/J RI DEFGRID2 scfconv7 ENGRAD tightSCF miniprint
|  2> %cpcm
|  3>     smd true
|  4>     smdsolvent "water"
|  5> end
|  6> * xyzfile 0 1 xtb_opt.xyz
|  7> 
|  8>                          ****END OF INPUT****
================================================================================

                     *******************************
                     * Energy+Gradient Calculation *
                     *******************************

---------------------------------
CARTESIAN COORDINATES (ANGSTROEM)
---------------------------------
  C      2.393684    0.055161   -0.000202
  C      0.903336    0.014653    0.000796
  C      0.132444    1.181564    0.000142
  N     -1.189102    1.156590   -0.000218
  C     -1.769441   -0.038734   -0.000073
  C     -1.016579   -1.202580   -0.000205
  N      0.309310   -1.175554    0.000251
  H      2.752067    0.616660    0.859679
  H      2.786953   -0.955578    0.034494
  H      2.750900    0.552467   -0.899568
  H      0.591346    2.160460    0.000192
  H     -2.849250   -0.048462    0.000215
  H     -1.473454   -2.181926   -0.000930

----------------------------
CARTESIAN COORDINATES (A.U.)
----------------------------
  NO LB      ZA    FRAG     MASS         X           Y           Z
   0 C     6.0000    0    12.011    4.523407    0.104239   -0.000382
   1 C     6.0000    0    12.011    1.707058    0.027690    0.001505
   2 C     6.0000    0    12.011    0.250282    2.232832    0.000268
   3 N     7.0000    0    14.007   -2.247078    2.185638   -0.000412
   4 C     6.0000    0    12.011   -3.343759   -0.073197   -0.000137
   5 C     6.0000    0    12.011   -1.921055   -2.272548   -0.000388
   6 N     7.0000    0    14.007    0.584511   -2.221475    0.000474
   7 H     1.0000    0     1.008    5.200653    1.165319    1.624558
   8 H     1.0000    0     1.008    5.266578   -1.805781    0.065184
   9 H     1.0000    0     1.008    5.198447    1.044012   -1.699938
  10 H     1.0000    0     1.008    1.117482    4.082678    0.000363
  11 H     1.0000    0     1.008   -5.384301   -0.091580    0.000406
  12 H     1.0000    0     1.008   -2.784425   -4.123243   -0.001757

------------------------------------------------------------------------------
                   ___                                                        
                  /   \      - P O W E R E D   B Y -                         
                 /     \                                                     
                 |  |  |   _    _      __       _____    __    __             
                 |  |  |  | |  | |    /  \     |  _  \  |  |  /  |          
                  \  \/   | |  | |   /    \    | | | |  |  | /  /          
                 / \  \   | |__| |  /  /\  \   | |_| |  |  |/  /          
                |  |  |   |  __  | /  /__\  \  |    /   |      \           
                |  |  |   | |  | | |   __   |  |    \   |  |\   \          
                \     /   | |  | | |  |  |  |  | |\  \  |  | \   \       
                 \___/    |_|  |_| |__|  |__|  |_| \__\ |__|  \__/        
                                                                              
                      - O R C A' S   B I G   F R I E N D -                    
                                      &                                       
                       - I N T E G R A L  F E E D E R -                       
                                                                              
 v1 FN, 2020, v2 2021, v3 2022-2024                                           
------------------------------------------------------------------------------


----------------------
SHARK INTEGRAL PACKAGE
----------------------

Number of atoms                             ...     13
Number of basis functions                   ...    173
Number of shells                            ...     83
Maximum angular momentum                    ...      2
Integral batch strategy                     ... SHARK/LIBINT Hybrid
RI-J (if used) integral strategy            ... SPLIT-RIJ (Revised 2003 algorithm where possible)
Printlevel                                  ...      1
Contraction scheme used                     ... SEGMENTED contraction
Prescreening option                         ... SCHWARTZ
   Thresh                                   ... 3.000e-11
   Tcut                                     ... 1.000e-12
   Tpresel                                  ... 1.000e-12 
Coulomb Range Separation                    ... NOT USED
Exchange Range Separation                   ... NOT USED
Multipole approximations                    ... NOT USED
Finite Nucleus Model                        ... NOT USED
CABS basis                                  ... NOT available
Auxiliary Coulomb fitting basis             ... AVAILABLE
   # of basis functions in Aux-J            ...    409
   # of shells in Aux-J                     ...    135
   Maximum angular momentum in Aux-J        ...      4
Auxiliary J/K fitting basis                 ... NOT available
Auxiliary Correlation fitting basis         ... NOT available
Auxiliary 'external' fitting basis          ... NOT available

Checking pre-screening integrals            ... done (  0.0 sec) Dimension = 83
Check shell pair data                       ... done (  0.0 sec)
Shell pair information
Shell pair cut-off parameter TPreSel        ...   1.0e-12
Total number of shell pairs                 ...      3486
Shell pairs after pre-screening             ...      3285
Total number of primitive shell pairs       ...     12733
Primitive shell pairs kept                  ...      8883
          la=0 lb=0:   1029 shell pairs
          la=1 lb=0:   1198 shell pairs
          la=1 lb=1:    363 shell pairs
          la=2 lb=0:    412 shell pairs
          la=2 lb=1:    238 shell pairs
          la=2 lb=2:     45 shell pairs

Calculating one electron integrals          ... done (  0.0 sec)
Calculating RI/J V-Matrix + Cholesky decomp.... done (  0.1 sec)
Calculating Nuclear repulsion               ... done (  0.0 sec) ENN=    277.283568422090 Eh

Diagonalization of the overlap matrix:
Smallest eigenvalue                        ... 1.452e-04
Time for diagonalization                   ...    0.003 sec
Threshold for overlap eigenvalues          ... 1.000e-07
Number of eigenvalues below threshold      ... 0
Time for construction of square roots      ...    0.046 sec
Total time needed                          ...    0.057 sec

-------------------
DFT GRID GENERATION
-------------------

General Integration Accuracy     IntAcc      ... 4.388
Radial Grid Type                 RadialGrid  ... OptM3 with GC (2021)
Angular Grid (max. ang.)         AngularGrid ... 4 (Lebedev-302)
Angular grid pruning method      GridPruning ... 4 (adaptive)
Weight generation scheme         WeightScheme... mBecke (2022)
Basis function cutoff            BFCut       ... 1.0000e-11
Integration weight cutoff        WCut        ... 1.0000e-14
Partially contracted basis set               ... off
Rotationally invariant grid construction     ... off
Angular grids for H and He will be reduced by one unit

Total number of grid points                  ...    61608
Total number of batches                      ...      968
Average number of points per batch           ...       63
Average number of grid points per atom       ...     4739
Initializing property integral containers    ... done (  0.0 sec)

SHARK setup successfully completed in   0.8 seconds

Maximum memory used throughout the entire STARTUP-calculation: 28.0 MB
Occupation numbers will be reassigned to an Aufbau configuration
             **** ENERGY FILE WAS UPDATED (xtb_opt.en.tmp) ****
Finished Guess after   0.2 sec
Maximum memory used throughout the entire GUESS-calculation: 12.0 MB
--------------------
CPCM SOLVATION MODEL
--------------------
CPCM parameters:
  Epsilon                                         ...      78.3550
  Refrac                                          ...       1.3328
  Rsolv                                           ...       1.3000
  Surface type                                    ... GAUSSIAN VDW
  Discretization scheme                           ... Constant charge density
    Threshold for H atoms                         ...       5.0000 (charges/Ang^2)
    Threshold for non-H atoms                     ...       5.0000 (charges/Ang^2)
  Epsilon function type                           ...         CPCM
Solvent:                                          ... WATER
SMD-CDS solvent descriptors:
  Soln                                            ...       1.3328
  Soln25                                          ...       1.3323
  Sola                                            ...       0.0000
  Solb                                            ...       0.0000
  Solg                                            ...       0.0000
  Solc                                            ...       0.0000
  Solh                                            ...       0.0000
Radii:
  Scheme                                          ... Element-dependent radii
  Radius for C  used is    3.4960 Bohr (=   1.8500 Ang.)
  Radius for N  used is    3.5716 Bohr (=   1.8900 Ang.)
  Radius for H  used is    2.2677 Bohr (=   1.2000 Ang.)
Calculating surface                               ...        done! (  0.0s)
Cavity surface points                             ...         1055
Cavity Volume                                     ...     721.4778
Cavity Surface-area                               ...     451.7662
Calculating surface distance matrix               ...        done! (  0.0s)
Performing Cholesky decomposition & store         ...        done! (  0.0s)
Overall time for CPCM initialization              ...                 0.1s

----------------------------------------D-I-I-S--------------------------------------------
Iteration    Energy (Eh)           Delta-E    RMSDP     MaxDP     DIISErr   Damp  Time(sec)
-------------------------------------------------------------------------------------------
               ***  Starting incremental Fock matrix formation  ***
                              *** Initializing SOSCF ***
---------------------------------------S-O-S-C-F--------------------------------------
Iteration    Energy (Eh)           Delta-E    RMSDP     MaxDP     MaxGrad    Time(sec)
--------------------------------------------------------------------------------------
    1    -303.5674410625248925     0.00e+00  2.77e-06  4.25e-05  1.98e-05     2.0
               *** Restarting incremental Fock matrix formation ***
    2    -303.5674410643318311    -1.81e-09  4.21e-06  6.86e-05  2.65e-05     2.0
    3    -303.5674409999665500     6.44e-08  3.00e-06  4.88e-05  7.02e-05     1.7
                 **** Energy Check signals convergence ****

               *****************************************************
               *                     SUCCESS                       *
               *           SCF CONVERGED AFTER   3 CYCLES          *
               *****************************************************


SMD CDS free energy correction energy :                 0.29142     Kcal/mol
Total Energy after SMD CDS correction =              -303.566976593 Eh
             **** ENERGY FILE WAS UPDATED (xtb_opt.en.tmp) ****

----------------
TOTAL SCF ENERGY
----------------

Total Energy       :       -303.56697659317689 Eh           -8260.47739 eV

Components:
Nuclear Repulsion  :        277.28356842209013 Eh            7545.26949 eV
Electronic Energy  :       -580.83895288930830 Eh          -15805.43144 eV
One Electron Energy:       -958.44513290727218 Eh          -26080.61798 eV
Two Electron Energy:        377.60618001796388 Eh           10275.18654 eV
CPCM Dielectric    :         -0.01205653274835 Eh              -0.32807 eV
SMD CDS (Gcds)     :          0.00046440678969 Eh               0.01264 eV

Virial components:
Potential Energy   :       -605.97259503026760 Eh          -16489.35261 eV
Kinetic Energy     :        302.40561843709071 Eh            8228.87523 eV
Virial Ratio       :          2.00384039874024

DFT components:
N(Alpha)           :       25.000017611409 electrons
N(Beta)            :       25.000017611409 electrons
N(Total)           :       50.000035222817 electrons
E(X)               :      -41.469073360451 Eh       
E(C)               :       -1.618348407130 Eh       
E(XC)              :      -43.087421767581 Eh       

CPCM Solvation Model Properties:
Surface-charge          :         -0.03254645624891
Corrected charge        :         -0.00000000000000
Outlying charge corr.   :          0.00008910553126 Eh               0.00242 eV
Free-energy (cav+disp)  :          0.00046440678969 Eh               0.01264 eV

---------------
SCF CONVERGENCE
---------------

  Last Energy change         ...   -6.4365e-08  Tolerance :   1.0000e-07
  Last MAX-Density change    ...    4.8810e-05  Tolerance :   1.0000e-07
  Last RMS-Density change    ...    2.9953e-06  Tolerance :   5.0000e-09
  Last DIIS Error            ...    8.8016e-05  Tolerance :   1.0000e-07
  Last Orbital Gradient      ...    7.0165e-05  Tolerance :   1.0000e-04
  Last Orbital Rotation      ...    1.1022e-04  Tolerance :   1.0000e-04


----------------
ORBITAL ENERGIES
----------------

  NO   OCC          E(Eh)            E(eV) 
   0   2.0000     -14.174689      -385.7129 
   1   2.0000     -14.171277      -385.6200 
   2   2.0000     -10.083843      -274.3953 
   3   2.0000     -10.071827      -274.0684 
   4   2.0000     -10.070680      -274.0371 
   5   2.0000     -10.069185      -273.9965 
   6   2.0000     -10.022589      -272.7285 
   7   2.0000      -0.953353       -25.9420 
   8   2.0000      -0.879822       -23.9412 
   9   2.0000      -0.762251       -20.7419 
  10   2.0000      -0.682125       -18.5616 
  11   2.0000      -0.626248       -17.0411 
  12   2.0000      -0.592992       -16.1361 
  13   2.0000      -0.492062       -13.3897 
  14   2.0000      -0.482914       -13.1408 
  15   2.0000      -0.436431       -11.8759 
  16   2.0000      -0.417151       -11.3512 
  17   2.0000      -0.388839       -10.5809 
  18   2.0000      -0.369605       -10.0575 
  19   2.0000      -0.361951        -9.8492 
  20   2.0000      -0.344331        -9.3697 
  21   2.0000      -0.310661        -8.4535 
  22   2.0000      -0.280852        -7.6424 
  23   2.0000      -0.245920        -6.6918 
  24   2.0000      -0.218288        -5.9399 
  25   0.0000      -0.076150        -2.0722 
  26   0.0000      -0.047127        -1.2824 
  27   0.0000       0.079859         2.1731 
  28   0.0000       0.093492         2.5441 
  29   0.0000       0.121589         3.3086 
  30   0.0000       0.125511         3.4153 
  31   0.0000       0.140087         3.8120 
  32   0.0000       0.151533         4.1234 
  33   0.0000       0.166302         4.5253 
  34   0.0000       0.180382         4.9084 
  35   0.0000       0.187480         5.1016 
*Only the first 10 virtual orbitals were printed.
Total SCF time: 0 days 0 hours 0 min 6 sec 
Finished LeanSCF after   6.2 sec

Maximum memory used throughout the entire LEANSCF-calculation: 18.7 MB


-------------------------------------------------------------------------------
                          DFT DISPERSION CORRECTION                            
                                                                               
                                DFTD4 V3.4.0                                   
-------------------------------------------------------------------------------
-------------------------   ----------------
Dispersion correction           -0.003729406
-------------------------   ----------------

------------------   -----------------
gCP correction             0.008533979
------------------   -----------------

-------------------------   --------------------
FINAL SINGLE POINT ENERGY      -303.562172019935
-------------------------   --------------------

------------------------------------------------------------------------------
                         ORCA SCF GRADIENT CALCULATION
------------------------------------------------------------------------------

Nuc. rep. gradient        (SHARK) ... done (  0.0 sec)
HCore & Overlap gradient  (SHARK) ... done (  0.1 sec)
Split-RIJ-J gradient      (SHARK) ... done (  0.9 sec)
XC gradient                       ... done (  3.5 sec)
CPCM gradient                     ... done (  0.5 sec)
SMD gradient                      ... done (  0.0 sec)
Dispersion correction             ... done (  0.0 sec)

-------------------
DISPERSION GRADIENT
-------------------

   1   C   :    0.000087502    0.000003913   -0.000000053
   2   C   :    0.000030204    0.000005343    0.000000022
   3   C   :    0.000003383    0.000041220    0.000000034
   4   N   :   -0.000056186    0.000045537    0.000000007
   5   C   :   -0.000067494   -0.000010154    0.000000007
   6   C   :   -0.000058069   -0.000042408    0.000000010
   7   N   :    0.000002439   -0.000046898    0.000000035
   8   H   :    0.000036707    0.000004034    0.000008309
   9   H   :    0.000035434   -0.000009792    0.000000306
  10   H   :    0.000036812    0.000003389   -0.000008695
  11   H   :    0.000002162    0.000037004    0.000000031
  12   H   :   -0.000033683    0.000001342    0.000000001
  13   H   :   -0.000019213   -0.000032530   -0.000000013

Difference to translation invariance:
           :    0.0000000000    0.0000000000   -0.0000000000

Difference to rotation invariance:
           :   -0.0000000000   -0.0000000000   -0.0000000000

Norm of the Dispersion gradient    ...    0.0001890826
RMS gradient                       ...    0.0000302775
MAX gradient                       ...    0.0000875022
gCP correction                   ... done

------------------
CARTESIAN GRADIENT
------------------

   1   C   :    0.005050116   -0.000979211   -0.000048172
   2   C   :   -0.003968327   -0.005508701   -0.000011221
   3   C   :   -0.007079281    0.001449364   -0.000038502
   4   N   :    0.007319591   -0.010685760   -0.000004637
   5   C   :    0.002170254    0.007554048    0.000019074
   6   C   :    0.009119842   -0.002545867    0.000052003
   7   N   :   -0.008168446    0.009680527   -0.000005135
   8   H   :   -0.003133570   -0.002531061   -0.002980278
   9   H   :   -0.002964297    0.002712656   -0.000151658
  10   H   :   -0.003086222   -0.002334601    0.003193475
  11   H   :   -0.005048218   -0.003144284   -0.000004310
  12   H   :    0.004786706    0.003436781    0.000005361
  13   H   :    0.005001852    0.002896109   -0.000026000

Difference to translation invariance:
           :    0.0000000000   -0.0000000000   -0.0000000000

Difference to rotation invariance:
           :   -0.0000157974   -0.0000054606    0.0000599674

Norm of the Cartesian gradient     ...    0.0278272487
RMS gradient                       ...    0.0044559260
MAX gradient                       ...    0.0106857598

-------
TIMINGS
-------

Total SCF gradient time     ....        5.497 sec

Densities                   ....       0.000 sec  (  0.0%)
One electron gradient       ....       0.139 sec  (  2.5%)
RI-J Coulomb gradient       ....       0.921 sec  ( 16.8%)
XC gradient                 ....       3.544 sec  ( 64.5%)
CPCM gradient               ....       0.463 sec  (  8.4%)
   A-Matrix (El+Nuc)        ....       0.038 sec  (  0.7%)
   Potential                ....       0.425 sec  (  7.7%)
SMD gradient                ....       0.012 sec  (  0.2%)

Maximum memory used throughout the entire SCFGRAD-calculation: 32.1 MB

------------------------------------------------------------------------------
                              ORCA PROPERTY CALCULATIONS
------------------------------------------------------------------------------

GBWName                                 ... xtb_opt.gbw
Number of atoms                         ...     13
Number of basis functions               ...    173
Max core memory                         ...   1024 MB

Electric properties:
Dipole moment                           ... YES
Quadrupole moment                       ...  NO
Static polarizability (Dipole/Dipole)   ...  NO
Static polarizability (Dipole/Quad.)    ...  NO
Static polarizability (Quad./Quad.)     ...  NO
Static polarizability (Velocity)        ...  NO

Atomic electric properties:
Dipole moment                           ...  NO
Quadrupole moment                       ...  NO
Static polarizability                   ...  NO

Choice of electric origin               ... Center of mass
Position of electric origin             ...     0.000004     0.000000    -0.000000

General magnetic properties:
Magnetizability                         ...  NO

EPR properties:
g-Tensor (aka g-matrix)                 ...  NO
Zero-Field splitting spin-orbit         ...  NO
Zero-field splitting spin-spin          ...  NO
Hyperfine couplings                     ...  NO (   0 nuclei)
Quadrupole couplings                    ...  NO (   0 nuclei)
Contact density                         ...  NO (   0 nuclei)

NMR properties:
Chemical shifts                         ...  NO (   0 nuclei)
Spin-rotation constants                 ...  NO (   0 nuclei)
Spin-spin couplings                     ...  NO (   0 nuclei,    0 pairs)

Choice of magnetic origin               ... GIAO
Position of magnetic origin             ...     0.000000     0.000000     0.000000

Properties with geometric perturbations:
SCF Hessian                             ...  NO
IR spectrum                             ...  NO
VCD spectrum                            ...  NO
X-ray spectroscopy properties:
SCF XES/XAS/RIXS spectra                ...  NO


-------------
DIPOLE MOMENT
-------------

Method             : SCF
Type of density    : Electron Density
Multiplicity       :   1
Irrep              :   0
Energy             :  -303.5669765931768893 Eh
Relativity type    : 
Basis              : AO
                                X                 Y                 Z
Electronic contribution:     -3.905960698      -0.096480522       0.002691781
Nuclear contribution   :      4.271880059       0.134636965      -0.005551677
                        -----------------------------------------
Total Dipole Moment    :      0.365919361       0.038156443      -0.002859896
                        -----------------------------------------
Magnitude (a.u.)       :      0.367914490
Magnitude (Debye)      :      0.935164316



--------------------
Rotational spectrum 
--------------------
 
Rotational constants in cm-1:             0.198397             0.090939             0.063086 
Rotational constants in MHz :          5947.795519          2726.287851          1891.261279 

Dipole components along the rotational axes: 
x,y,z [a.u.] :    -0.365919     0.038156    -0.002860 
x,y,z [Debye]:    -0.930093     0.096984    -0.007269 

 

Dipole moment calculation done in   0.0 sec 

Maximum memory used throughout the entire PROP-calculation: 10.4 MB

--------------------------------
SUGGESTED CITATIONS FOR THIS RUN
--------------------------------

Below you find a list of papers that are relevant to this ORCA run
We neither can nor want to force you to cite these papers, but we appreciate if you do
You receive ORCA, which is the product of decades of hard work by many enthusiastic individuals, for free
The only thing we kindly ask in return is that you cite our papers,
We deeply appreciate it, if you show your appreciation for ORCA by not just citing the generic ORCA reference.

Please note that relegating all ORCA citations to the supporting information does *not* help us.
SI sections are not indexed - citations you put there will not count into any citation statistics
But we need these citations in order to attract the funding resources that allow us to do what we are doing

Therefore, if you are a happy ORCA user, please consider citing a few of the papers listed below in the main body of your paper

In addition to the list printed below, the program has created the file xtb_opt.bibtex that contains the list in bibtex format
You can import this file easily into all common literature databanks and citation aid programs


List of essential papers. We consider these as the minimum necessary citations

  1. Neese,F.
     Software update: the ORCA program system, version 5.0
     WIRES Comput. Molec. Sci., 2022 12(1)e1606
     doi.org/10.1002/wcms.1606
  2. Grimme,S.; Hansen,A.; Ehlert,S.; Mewes,J.
     r2SCAN-3c: A 'Swiss army knife' composite electronic-structure method
     J. Chem. Phys., 2021 154 064103
     doi.org/10.1063/5.0040021

List of papers to cite with high priority. The work reported in these papers was absolutely
necessary for this run to complete.
Our perspective: the developers of density functionals and basis sets usually get cited in chemistry papers
Good! But without the algorithms to do something with them, the functionals or basis sets would not do anything.
Hence, in our opinion, the algorithm design and method developments papers are equally worthy of getting cited

  1. Neese,F.
     An improvement of the resolution of the identity approximation for the formation of the Coulomb matrix
     J. Comp. Chem., 2003 24(14)1740-1747
     doi.org/10.1002/jcc.10318
  2. Garcia-Rates,M.; Neese,F.
     Effect of the Solute Cavity on the Solvation Energy and its Derivatives within the Framework of the Gaussian Charge Scheme
     J. Comput. Chem., 2020 41 922-939
     doi.org/10.1002/jcc.26139
  3. Neese,F.
     The SHARK Integral Generation and Digestion System
     J. Comp. Chem., 2022  1-16
     doi.org/10.1002/jcc.26942
  4. Lehtola,S.; Steigemann,C.; Oliveira,M.; Marques,M.
     Recent developments in Libxc - A comprehensive library of functionals for density functional theory
     Software X, 2018 7 
     doi.org/10.1016/j.softx.2017.11.002
  5. Caldeweyher,E.; Bannwarth,C.; Grimme,S.
     Extension of the D3 dispersion coefficient model
     J. Chem. Phys., 2017 147 034112-XXXX
     doi.org/10.1063/1.4993215
  6. Caldeweyher,E.; Ehlert,S.; Hansen,A.; Neugebauer,H.; Spicher,S.; Bannwarth,C.; Grimme,S.
     A generally applicable atomic-charge dependent London dispersion correction
     J. Chem. Phys., 2019 150 154122-XXXX
     doi.org/10.1063/1.5090222
  7. Caldeweyher,E.; Mewes,J.; Ehlert,S.; Grimme,S.
     Extension and evaluation of the D4 London-dispersion model for periodic systems
     Phys. Chem. Chem. Phys., 2020 22(16)8499-8512
     doi.org/10.1039/D0CP00502A

List of suggested additional citations. These are papers that are important in the 'surrounding' of 
of this run, or papers that preceded the highly important papers. If you like your results we are grateful for a citation.

  1. Neese,F.
     The ORCA program system
     WIRES Comput. Molec. Sci., 2012 2(1)73-78
     doi.org/10.1002/wcms.81
  2. Neese,F.
     Software update: the ORCA program system, version 4.0
     WIRES Comput. Molec. Sci., 2018 8(1)1-6
     doi.org/10.1002/wcms.1327
  3. Neese,F.; Wennmohs,F.; Becker,U.; Riplinger,C.
     The ORCA quantum chemistry program package
     J. Chem. Phys., 2020 152 Art. No. L224108
     doi.org/10.1063/5.0004608

List of optional additional citations

  1. Neese,F.
     Approximate second-order SCF convergence for spin unrestricted wavefunctions
     Chem. Phys. Lett., 2000 325(1-3)93-98
     doi.org/10.1016/s0009-2614(00)00662-x

Timings for individual modules:

Sum of individual times          ...       13.039 sec (=   0.217 min)
Startup calculation              ...        0.880 sec (=   0.015 min)   6.8 %
SCF iterations                   ...        6.480 sec (=   0.108 min)  49.7 %
Property calculations            ...        0.093 sec (=   0.002 min)   0.7 %
SCF Gradient evaluation          ...        5.586 sec (=   0.093 min)  42.8 %
                             ****ORCA TERMINATED NORMALLY****
TOTAL RUN TIME: 0 days 0 hours 0 minutes 13 seconds 697 msec
  ------------------------------------------------------------------------
          * successful ORCA run, taking over control again...

         :::::::::::::::::::::::::::::::::::::::::::::::::::::
         ::                  ORCA SUMMARY                   ::
         :::::::::::::::::::::::::::::::::::::::::::::::::::::
         :: total energy            -303.562172019935 Eh    ::
         :: gradient norm              0.027827248705 Eh/a0 ::
         :: HOMO-LUMO gap              0.000000000000 eV    ::
         :::::::::::::::::::::::::::::::::::::::::::::::::::::

      ----------------------------------------------------------- 
     |                       L-ANC optimizer                     |
      ----------------------------------------------------------- 
          low memory version by Sebastian Ehlert

          ...................................................
          :                      SETUP                      :
          :.................................................:
          :   energy convergence        0.5000000E-05 Eh    :
          :   grad. convergence         0.1000000E-02 Eh/a0 :
          :   optimization log               true           :
          :   writing optlog all                1     steps :
          :   Hessian reset                    20     steps :
          :   maximium step len.        1.0000000     a0    :
          :   LBFGS images                     20           :
          ...................................................
 * calculating model hessian...
Using Lindh-Hessian (1995)
 Shifting diagonal of input Hessian by   1.000000000000000E-002
 Lowest  eigenvalues of input Hessian
    0.000000    0.000000    0.000000    0.000000    0.000000    0.000000
    0.017990    0.020771    0.030759    0.032020    0.050103    0.060989
    0.068096    0.086587    0.093949    0.118183    0.134812    0.137959
 Highest eigenvalues
    1.320351    1.545847    1.652259    2.046145    2.084273    2.140166
 

........................................................................
.............................. CYCLE    1 ..............................
........................................................................
                         * ORCA takes the control...
  ------------------------------------------------------------------------

                                 *****************
                                 * O   R   C   A *
                                 *****************

                                            #,                                       
                                            ###                                      
                                            ####                                     
                                            #####                                    
                                            ######                                   
                                           ########,                                 
                                     ,,################,,,,,                         
                               ,,#################################,,                 
                          ,,##########################################,,             
                       ,#########################################, ''#####,          
                    ,#############################################,,   '####,        
                  ,##################################################,,,,####,       
                ,###########''''           ''''###############################       
              ,#####''   ,,,,##########,,,,          '''####'''          '####       
            ,##' ,,,,###########################,,,                        '##       
           ' ,,###''''                  '''############,,,                           
         ,,##''                                '''############,,,,        ,,,,,,###''
      ,#''                                            '''#######################'''  
     '                                                          ''''####''''         
             ,#######,   #######,   ,#######,      ##                                
            ,#'     '#,  ##    ##  ,#'     '#,    #''#        ,####,   ,####,        
            ##       ##  ##   ,#'  ##            #'  '#       #'       #'  '#        
            ##       ##  #######   ##           ,######,      #####,   #    #        
            '#,     ,#'  ##    ##  '#,     ,#' ,#      #,     #,   #   #,  ,#        
             '#######'   ##     ##  '#######'  #'      '#     '####' # '####'        



                #########################################################
                #                        -***-                          #
                #          Department of theory and spectroscopy        #
                #                                                       #
                #                      Frank Neese                      #
                #                                                       #
                #     Directorship, Architecture, Infrastructure        #
                #                    SHARK, DRIVERS                     #
                #        Core code/Algorithms in most modules           #
                #                                                       #
                #        Max Planck Institute fuer Kohlenforschung      #
                #                Kaiser Wilhelm Platz 1                 #
                #                 D-45470 Muelheim/Ruhr                 #
                #                      Germany                          #
                #                                                       #
                #                  All rights reserved                  #
                #                        -***-                          #
                #########################################################


                         Program Version 6.0.0  -   RELEASE  -


 With contributions from (in alphabetic order):
   Daniel Aravena         : Magnetic Suceptibility
   Michael Atanasov       : Ab Initio Ligand Field Theory (pilot matlab implementation)
   Alexander A. Auer      : GIAO ZORA, VPT2 properties, NMR spectrum
   Ute Becker             : All parallelization in ORCA, NUMFREQ, NUMCALC
   Giovanni Bistoni       : ED, misc. LED, open-shell LED, HFLD
   Martin Brehm           : Molecular dynamics
   Dmytro Bykov           : pre 5.0 version of the SCF Hessian
   Marcos Casanova-Páez   : Triplet and SCS-CIS(D). UHF-(DLPNO)-IP/EA/STEOM-CCSD. UHF-CVS-IP/STEOM-CCSD
   Vijay G. Chilkuri      : MRCI spin determinant printing, contributions to CSF-ICE
   Pauline Colinet        : FMM embedding
   Dipayan Datta          : RHF DLPNO-CCSD density
   Achintya Kumar Dutta   : EOM-CC, STEOM-CC
   Nicolas Foglia         : Exact transition moments, OPA infrastructure, MCD improvements
   Dmitry Ganyushin       : Spin-Orbit,Spin-Spin,Magnetic field MRCI
   Miquel Garcia          : C-PCM and meta-GGA Hessian, CCSD/C-PCM, Gaussian charge scheme
   Tiago L. C. Gouveia    : GS-ROHF, GS-ROCIS
   Yang Guo               : DLPNO-NEVPT2, F12-NEVPT2, CIM, IAO-localization
   Andreas Hansen         : Spin unrestricted coupled pair/coupled cluster methods
   Ingolf Harden          : AUTO-CI MPn and infrastructure 
   Benjamin Helmich-Paris : MC-RPA, TRAH-(SCF,CASSCF), AVAS, COSX integrals, SCF dyn. polar.
   Lee Huntington         : MR-EOM, pCC
   Robert Izsak           : Overlap fitted RIJCOSX, COSX-SCS-MP3, EOM
   Riya Kayal             : Wick's Theorem for AUTO-CI, AUTO-CI UHF-CCSDT
   Emily Kempfer          : AUTO-CI, RHF CISDT and CCSDT
   Christian Kollmar      : KDIIS, OOCD, Brueckner-CCSD(T), CCSD density, CASPT2, CASPT2-K, improved NEVPT2
   Axel Koslowski         : Symmetry handling
   Simone Kossmann        : Meta GGA functionals, TD-DFT gradient, OOMP2, (MP2 Hessian; deprecated post 5.0)
   Lucas Lang             : DCDCAS
   Marvin Lechner         : AUTO-CI (C++ implementation), FIC-MRCC
   Spencer Leger          : CASSCF response
   Dagmar Lenk            : GEPOL surface, SMD, ORCA-2-JSON
   Dimitrios Liakos       : Extrapolation schemes; Compound Job, initial MDCI parallelization
   Dimitrios Manganas     : Further ROCIS development; embedding schemes. LFT, Crystal Embedding
   Dimitrios Pantazis     : SARC Basis sets
   Anastasios Papadopoulos: AUTO-CI, single reference methods and gradients
   Taras Petrenko         : pre 6.0 DFT Hessian and TD-DFT gradient, (ASA, deprecated), ECA, 1-Electron XAS/XES, NRVS
   Peter Pinski           : DLPNO-MP2, DLPNO-MP2 Gradient
   Christoph Reimann      : Effective Core Potentials
   Marius Retegan         : Local ZFS, SOC
   Christoph Riplinger    : Optimizer, TS searches, QM/MM, DLPNO-CCSD(T), (RO)-DLPNO pert. Triples
   Michael Roemelt        : Original ROCIS implementation
   Masaaki Saitow         : Open-shell DLPNO-CCSD energy and density
   Barbara Sandhoefer     : DKH picture change effects
   Kantharuban Sivalingam : CASSCF convergence/infrastructure, NEVPT2 and variants, FIC-MRCI
   Bernardo de Souza      : ESD, SOC TD-DFT
   Georgi Stoychev        : AutoAux, RI-MP2 NMR, DLPNO-MP2 response, X2C
   Van Anh Tran           : RI-MP2 g-tensors
   Willem Van den Heuvel  : Paramagnetic NMR
   Zikuan Wang            : NOTCH, Electric field optimization 
   Frank Wennmohs         : Technical directorship and infrastructure
   Hang Xu                : AUTO-CI-Response properties 


 We gratefully acknowledge several colleagues who have allowed us to
 interface, adapt or use parts of their codes:
   Stefan Grimme, W. Hujo, H. Kruse, P. Pracht,  : VdW corrections, initial TS optimization,
                  C. Bannwarth, S. Ehlert,         DFT functionals, gCP, sTDA/sTD-DF
                  L. Wittmann, M. Mueller
   Ed Valeev, F. Pavosevic, A. Kumar             : LibInt (2-el integral package), F12 methods
   Garnet Chan, S. Sharma, J. Yang, R. Olivares  : DMRG
   Ulf Ekstrom                                   : XCFun DFT Library
   Mihaly Kallay                                 : mrcc  (arbitrary order and MRCC methods)
   Frank Weinhold                                : gennbo (NPA and NBO analysis)
   Simon Mueller                                 : openCOSMO-RS
   Christopher J. Cramer and Donald G. Truhlar   : smd solvation model
   Lars Goerigk                                  : TD-DFT with DH, B97 family of functionals
   V. Asgeirsson, H. Jonsson                     : NEB implementation
   FAccTs GmbH                                   : IRC, NEB, NEB-TS, DLPNO-Multilevel, CI-OPT
                                                   MM, QMMM, 2- and 3-layer-ONIOM, Crystal-QMMM,
                                                   LR-CPCM, SF, NACMEs, symmetry and pop. for TD-DFT,
                                                   nearIR, NL-DFT gradient (VV10), updates on ESD,
                                                   ML-optimized integration grids, MBIS, APM,
                                                   GOAT, DOCKER, SOLVATOR, interface openCOSMO-RS
   S Lehtola, MJT Oliveira, MAL Marques          : LibXC Library
   Liviu Ungur et al                             : ANISO software


 Your calculation uses the libint2 library for the computation of 2-el integrals
 For citations please refer to: http://libint.valeyev.net

 Your ORCA version has been built with support for libXC version: 6.2.2
 For citations please refer to: https://libxc.gitlab.io

 This ORCA versions uses:
   CBLAS   interface :  Fast vector & matrix operations
   LAPACKE interface :  Fast linear algebra routines
   SCALAPACK package :  Parallel linear algebra routines
   Shared memory     :  Shared parallel matrices
   BLAS/LAPACK       :  OpenBLAS 0.3.27  USE64BITINT DYNAMIC_ARCH NO_AFFINITY SkylakeX SINGLE_THREADED
        Core in use  :  SkylakeX
   Copyright (c) 2011-2014, The OpenBLAS Project




***************************************
The coordinates will be read from file: xtb_opt.xyz
***************************************


Your calculation utilizes the geometrical counterpoise correction gCP
Please cite in your paper:
H.Kruse, S. Grimme J.Chem.Phys., 136, (2012), 154101 
   

Your calculation utilizes the atom-pairwise dispersion correction
based on EEQ partial charges (D4)


Your calculation utilizes the SMD solvation module
Please cite in your paper:
A.V. Marenich, C.J. Cramer, D.G. Truhlar J. Phys. Chem. B, 113, (2009), 6378 

================================================================================

----- Orbital basis set information -----
Your calculation utilizes the basis: def2-mTZVPP
   Stefan Grimme, Andreas Hansen, Sebastian Ehlert, and Jan-Michael Mewes 
   J. Chem. Phys. 154, 064103 (2021). DOI: 10.1063/5.0040021

----- AuxJ basis set information -----
Your calculation utilizes the auxiliary basis: def2/J
   F. Weigend, Phys. Chem. Chem. Phys. 8, 1057 (2006).

================================================================================
                                        WARNINGS
                       Please study these warnings very carefully!
================================================================================

WARNING: Old DensityContainer found on disk!
         Will remove this file - 
         If you want to keep old densities, please start your calculation with a different basename. 

Using LibXC functional ID 497 : Re-regularized SCAN exchange by Furness et al
[ 1]  J. W. Furness, A. D. Kaplan, J. Ning, J. P. Perdew, and J. Sun.,  J. Phys. Chem. Lett. 11, 8208-8215 (2020)
[ 2]  J. W. Furness, A. D. Kaplan, J. Ning, J. P. Perdew, and J. Sun.,  J. Phys. Chem. Lett. 11, 9248-9248 (2020)
Using LibXC functional ID 498 : Re-regularized SCAN correlation by Furness et al
[ 1]  J. W. Furness, A. D. Kaplan, J. Ning, J. P. Perdew, and J. Sun.,  J. Phys. Chem. Lett. 11, 8208-8215 (2020)
[ 2]  J. W. Furness, A. D. Kaplan, J. Ning, J. P. Perdew, and J. Sun.,  J. Phys. Chem. Lett. 11, 9248-9248 (2020)
Using LibXC functional ID 497 : Re-regularized SCAN exchange by Furness et al
[ 1]  J. W. Furness, A. D. Kaplan, J. Ning, J. P. Perdew, and J. Sun.,  J. Phys. Chem. Lett. 11, 8208-8215 (2020)
[ 2]  J. W. Furness, A. D. Kaplan, J. Ning, J. P. Perdew, and J. Sun.,  J. Phys. Chem. Lett. 11, 9248-9248 (2020)
Using LibXC functional ID 498 : Re-regularized SCAN correlation by Furness et al
[ 1]  J. W. Furness, A. D. Kaplan, J. Ning, J. P. Perdew, and J. Sun.,  J. Phys. Chem. Lett. 11, 8208-8215 (2020)
[ 2]  J. W. Furness, A. D. Kaplan, J. Ning, J. P. Perdew, and J. Sun.,  J. Phys. Chem. Lett. 11, 9248-9248 (2020)

================================================================================
                                       INPUT FILE
================================================================================
NAME = xtb_opt.inp
|  1> ! r2scan-3c def2/J RI DEFGRID2 scfconv7 ENGRAD tightSCF miniprint
|  2> %cpcm
|  3>     smd true
|  4>     smdsolvent "water"
|  5> end
|  6> * xyzfile 0 1 xtb_opt.xyz
|  7> 
|  8>                          ****END OF INPUT****
================================================================================

                     *******************************
                     * Energy+Gradient Calculation *
                     *******************************

---------------------------------
CARTESIAN COORDINATES (ANGSTROEM)
---------------------------------
  C      2.398454    0.061635   -0.000243
  C      0.905406    0.008834    0.001033
  C      0.136831    1.179227    0.000514
  N     -1.193974    1.161991   -0.000113
  C     -1.779878   -0.040328   -0.000354
  C     -1.029997   -1.205997   -0.000484
  N      0.305724   -1.187085    0.000326
  H      2.763955    0.628319    0.860160
  H      2.808599   -0.947220    0.034907
  H      2.762603    0.563621   -0.900896
  H      0.613193    2.156147    0.000541
  H     -2.864705   -0.061451   -0.000113
  H     -1.503997   -2.182975   -0.000704

----------------------------
CARTESIAN COORDINATES (A.U.)
----------------------------
  NO LB      ZA    FRAG     MASS         X           Y           Z
   0 C     6.0000    0    12.011    4.532421    0.116473   -0.000460
   1 C     6.0000    0    12.011    1.710970    0.016694    0.001952
   2 C     6.0000    0    12.011    0.258573    2.228415    0.000971
   3 N     7.0000    0    14.007   -2.256284    2.195846   -0.000213
   4 C     6.0000    0    12.011   -3.363482   -0.076208   -0.000669
   5 C     6.0000    0    12.011   -1.946412   -2.279003   -0.000915
   6 N     7.0000    0    14.007    0.577735   -2.243265    0.000617
   7 H     1.0000    0     1.008    5.223118    1.187351    1.625466
   8 H     1.0000    0     1.008    5.307483   -1.789986    0.065964
   9 H     1.0000    0     1.008    5.220562    1.065090   -1.702447
  10 H     1.0000    0     1.008    1.158767    4.074528    0.001022
  11 H     1.0000    0     1.008   -5.413508   -0.116126   -0.000214
  12 H     1.0000    0     1.008   -2.842143   -4.125225   -0.001330

------------------------------------------------------------------------------
                   ___                                                        
                  /   \      - P O W E R E D   B Y -                         
                 /     \                                                     
                 |  |  |   _    _      __       _____    __    __             
                 |  |  |  | |  | |    /  \     |  _  \  |  |  /  |          
                  \  \/   | |  | |   /    \    | | | |  |  | /  /          
                 / \  \   | |__| |  /  /\  \   | |_| |  |  |/  /          
                |  |  |   |  __  | /  /__\  \  |    /   |      \           
                |  |  |   | |  | | |   __   |  |    \   |  |\   \          
                \     /   | |  | | |  |  |  |  | |\  \  |  | \   \       
                 \___/    |_|  |_| |__|  |__|  |_| \__\ |__|  \__/        
                                                                              
                      - O R C A' S   B I G   F R I E N D -                    
                                      &                                       
                       - I N T E G R A L  F E E D E R -                       
                                                                              
 v1 FN, 2020, v2 2021, v3 2022-2024                                           
------------------------------------------------------------------------------


----------------------
SHARK INTEGRAL PACKAGE
----------------------

Number of atoms                             ...     13
Number of basis functions                   ...    173
Number of shells                            ...     83
Maximum angular momentum                    ...      2
Integral batch strategy                     ... SHARK/LIBINT Hybrid
RI-J (if used) integral strategy            ... SPLIT-RIJ (Revised 2003 algorithm where possible)
Printlevel                                  ...      1
Contraction scheme used                     ... SEGMENTED contraction
Prescreening option                         ... SCHWARTZ
   Thresh                                   ... 3.000e-11
   Tcut                                     ... 1.000e-12
   Tpresel                                  ... 1.000e-12 
Coulomb Range Separation                    ... NOT USED
Exchange Range Separation                   ... NOT USED
Multipole approximations                    ... NOT USED
Finite Nucleus Model                        ... NOT USED
CABS basis                                  ... NOT available
Auxiliary Coulomb fitting basis             ... AVAILABLE
   # of basis functions in Aux-J            ...    409
   # of shells in Aux-J                     ...    135
   Maximum angular momentum in Aux-J        ...      4
Auxiliary J/K fitting basis                 ... NOT available
Auxiliary Correlation fitting basis         ... NOT available
Auxiliary 'external' fitting basis          ... NOT available

Checking pre-screening integrals            ... done (  0.0 sec) Dimension = 83
Check shell pair data                       ... done (  0.0 sec)
Shell pair information
Shell pair cut-off parameter TPreSel        ...   1.0e-12
Total number of shell pairs                 ...      3486
Shell pairs after pre-screening             ...      3283
Total number of primitive shell pairs       ...     12733
Primitive shell pairs kept                  ...      8863
          la=0 lb=0:   1027 shell pairs
          la=1 lb=0:   1198 shell pairs
          la=1 lb=1:    363 shell pairs
          la=2 lb=0:    412 shell pairs
          la=2 lb=1:    238 shell pairs
          la=2 lb=2:     45 shell pairs

Calculating one electron integrals          ... done (  0.0 sec)
Calculating RI/J V-Matrix + Cholesky decomp.... done (  0.1 sec)
Calculating Nuclear repulsion               ... done (  0.0 sec) ENN=    276.062180715128 Eh

Diagonalization of the overlap matrix:
Smallest eigenvalue                        ... 1.502e-04
Time for diagonalization                   ...    0.003 sec
Threshold for overlap eigenvalues          ... 1.000e-07
Number of eigenvalues below threshold      ... 0
Time for construction of square roots      ...    0.013 sec
Total time needed                          ...    0.024 sec

-------------------
DFT GRID GENERATION
-------------------

General Integration Accuracy     IntAcc      ... 4.388
Radial Grid Type                 RadialGrid  ... OptM3 with GC (2021)
Angular Grid (max. ang.)         AngularGrid ... 4 (Lebedev-302)
Angular grid pruning method      GridPruning ... 4 (adaptive)
Weight generation scheme         WeightScheme... mBecke (2022)
Basis function cutoff            BFCut       ... 1.0000e-11
Integration weight cutoff        WCut        ... 1.0000e-14
Partially contracted basis set               ... off
Rotationally invariant grid construction     ... off
Angular grids for H and He will be reduced by one unit

Total number of grid points                  ...    61621
Total number of batches                      ...      969
Average number of points per batch           ...       63
Average number of grid points per atom       ...     4740
Initializing property integral containers    ... done (  0.0 sec)

SHARK setup successfully completed in   0.8 seconds

Maximum memory used throughout the entire STARTUP-calculation: 28.0 MB
Occupation numbers will be reassigned to an Aufbau configuration
             **** ENERGY FILE WAS UPDATED (xtb_opt.en.tmp) ****
Finished Guess after   0.2 sec
Maximum memory used throughout the entire GUESS-calculation: 12.0 MB
--------------------
CPCM SOLVATION MODEL
--------------------
CPCM parameters:
  Epsilon                                         ...      78.3550
  Refrac                                          ...       1.3328
  Rsolv                                           ...       1.3000
  Surface type                                    ... GAUSSIAN VDW
  Discretization scheme                           ... Constant charge density
    Threshold for H atoms                         ...       5.0000 (charges/Ang^2)
    Threshold for non-H atoms                     ...       5.0000 (charges/Ang^2)
  Epsilon function type                           ...         CPCM
Solvent:                                          ... WATER
SMD-CDS solvent descriptors:
  Soln                                            ...       1.3328
  Soln25                                          ...       1.3323
  Sola                                            ...       0.0000
  Solb                                            ...       0.0000
  Solg                                            ...       0.0000
  Solc                                            ...       0.0000
  Solh                                            ...       0.0000
Radii:
  Scheme                                          ... Element-dependent radii
  Radius for C  used is    3.4960 Bohr (=   1.8500 Ang.)
  Radius for N  used is    3.5716 Bohr (=   1.8900 Ang.)
  Radius for H  used is    2.2677 Bohr (=   1.2000 Ang.)
Calculating surface                               ...        done! (  0.0s)
Cavity surface points                             ...         1062
Cavity Volume                                     ...     724.7611
Cavity Surface-area                               ...     453.8430
Calculating surface distance matrix               ...        done! (  0.0s)
Performing Cholesky decomposition & store         ...        done! (  0.1s)
Overall time for CPCM initialization              ...                 0.1s

----------------------------------------D-I-I-S--------------------------------------------
Iteration    Energy (Eh)           Delta-E    RMSDP     MaxDP     DIISErr   Damp  Time(sec)
-------------------------------------------------------------------------------------------
               ***  Starting incremental Fock matrix formation  ***
    1    -303.5680975400839543     0.00e+00  1.02e-04  2.75e-03  3.98e-03  0.700   2.0
                              *** Initializing SOSCF ***
---------------------------------------S-O-S-C-F--------------------------------------
Iteration    Energy (Eh)           Delta-E    RMSDP     MaxDP     MaxGrad    Time(sec)
--------------------------------------------------------------------------------------
    2    -303.5681696202182138    -7.21e-05  3.05e-04  8.25e-03  2.91e-03     1.8
               *** Restarting incremental Fock matrix formation ***
    3    -303.5683240405803645    -1.54e-04  9.98e-05  1.80e-03  4.33e-04     2.2
    4    -303.5683205127700148     3.53e-06  4.05e-05  6.88e-04  7.48e-04     1.7
    5    -303.5683311810487339    -1.07e-05  1.94e-05  2.86e-04  1.62e-04     1.6
    6    -303.5683307685792442     4.12e-07  1.17e-05  1.80e-04  1.43e-04     1.6
    7    -303.5683317599028896    -9.91e-07  1.97e-06  3.36e-05  1.74e-05     1.7
                  *** Gradient check signals convergence ***

               *****************************************************
               *                     SUCCESS                       *
               *           SCF CONVERGED AFTER   7 CYCLES          *
               *****************************************************


SMD CDS free energy correction energy :                 0.28279     Kcal/mol
Total Energy after SMD CDS correction =              -303.567881099 Eh
             **** ENERGY FILE WAS UPDATED (xtb_opt.en.tmp) ****

----------------
TOTAL SCF ENERGY
----------------

Total Energy       :       -303.56788109875833 Eh           -8260.50200 eV

Components:
Nuclear Repulsion  :        276.06218071512819 Eh            7512.03384 eV
Electronic Energy  :       -579.61806868788869 Eh          -15772.20949 eV
One Electron Energy:       -956.04715800413089 Eh          -26015.36576 eV
Two Electron Energy:        376.42908931624220 Eh           10243.15627 eV
CPCM Dielectric    :         -0.01244378714242 Eh              -0.33861 eV
SMD CDS (Gcds)     :          0.00045066114456 Eh               0.01226 eV

Virial components:
Potential Energy   :       -605.81888488244203 Eh          -16485.16995 eV
Kinetic Energy     :        302.25100378368370 Eh            8224.66795 eV
Virial Ratio       :          2.00435689972437

DFT components:
N(Alpha)           :       25.000016080046 electrons
N(Beta)            :       25.000016080046 electrons
N(Total)           :       50.000032160093 electrons
E(X)               :      -41.432858616553 Eh       
E(C)               :       -1.616588702797 Eh       
E(XC)              :      -43.049447319350 Eh       

CPCM Solvation Model Properties:
Surface-charge          :         -0.03269119193489
Corrected charge        :         -0.00000000000000
Outlying charge corr.   :          0.00008971931845 Eh               0.00244 eV
Free-energy (cav+disp)  :          0.00045066114456 Eh               0.01226 eV

---------------
SCF CONVERGENCE
---------------

  Last Energy change         ...    9.9132e-07  Tolerance :   1.0000e-07
  Last MAX-Density change    ...    3.3612e-05  Tolerance :   1.0000e-07
  Last RMS-Density change    ...    1.9676e-06  Tolerance :   5.0000e-09
  Last DIIS Error            ...    2.9071e-03  Tolerance :   1.0000e-07
  Last Orbital Gradient      ...    1.7380e-05  Tolerance :   1.0000e-04
  Last Orbital Rotation      ...    7.4030e-05  Tolerance :   1.0000e-04


----------------
ORBITAL ENERGIES
----------------

  NO   OCC          E(Eh)            E(eV) 
   0   2.0000     -14.177260      -385.7829 
   1   2.0000     -14.173470      -385.6797 
   2   2.0000     -10.085845      -274.4498 
   3   2.0000     -10.073952      -274.1262 
   4   2.0000     -10.072892      -274.0973 
   5   2.0000     -10.071459      -274.0583 
   6   2.0000     -10.024963      -272.7931 
   7   2.0000      -0.949065       -25.8254 
   8   2.0000      -0.876166       -23.8417 
   9   2.0000      -0.761229       -20.7141 
  10   2.0000      -0.681018       -18.5314 
  11   2.0000      -0.625601       -17.0235 
  12   2.0000      -0.591723       -16.1016 
  13   2.0000      -0.490345       -13.3430 
  14   2.0000      -0.480740       -13.0816 
  15   2.0000      -0.435921       -11.8620 
  16   2.0000      -0.414797       -11.2872 
  17   2.0000      -0.389063       -10.5869 
  18   2.0000      -0.367719       -10.0061 
  19   2.0000      -0.360710        -9.8154 
  20   2.0000      -0.344888        -9.3849 
  21   2.0000      -0.308759        -8.4018 
  22   2.0000      -0.281416        -7.6577 
  23   2.0000      -0.246398        -6.7048 
  24   2.0000      -0.219788        -5.9807 
  25   0.0000      -0.078954        -2.1484 
  26   0.0000      -0.047781        -1.3002 
  27   0.0000       0.079461         2.1622 
  28   0.0000       0.089896         2.4462 
  29   0.0000       0.119650         3.2559 
  30   0.0000       0.123971         3.3734 
  31   0.0000       0.139547         3.7973 
  32   0.0000       0.151517         4.1230 
  33   0.0000       0.165456         4.5023 
  34   0.0000       0.179713         4.8902 
  35   0.0000       0.185581         5.0499 
*Only the first 10 virtual orbitals were printed.
Total SCF time: 0 days 0 hours 0 min 13 sec 
Finished LeanSCF after  13.1 sec

Maximum memory used throughout the entire LEANSCF-calculation: 18.8 MB


-------------------------------------------------------------------------------
                          DFT DISPERSION CORRECTION                            
                                                                               
                                DFTD4 V3.4.0                                   
-------------------------------------------------------------------------------
-------------------------   ----------------
Dispersion correction           -0.003718503
-------------------------   ----------------

------------------   -----------------
gCP correction             0.008367337
------------------   -----------------

-------------------------   --------------------
FINAL SINGLE POINT ENERGY      -303.563232265027
-------------------------   --------------------

------------------------------------------------------------------------------
                         ORCA SCF GRADIENT CALCULATION
------------------------------------------------------------------------------

Nuc. rep. gradient        (SHARK) ... done (  0.0 sec)
HCore & Overlap gradient  (SHARK) ... done (  0.1 sec)
Split-RIJ-J gradient      (SHARK) ... done (  0.9 sec)
XC gradient                       ... done (  3.6 sec)
CPCM gradient                     ... done (  0.5 sec)
SMD gradient                      ... done (  0.0 sec)
Dispersion correction             ... done (  0.0 sec)

-------------------
DISPERSION GRADIENT
-------------------

   1   C   :    0.000087778    0.000004400   -0.000000061
   2   C   :    0.000030757    0.000005271    0.000000028
   3   C   :    0.000003625    0.000041441    0.000000046
   4   N   :   -0.000056147    0.000045845    0.000000011
   5   C   :   -0.000067571   -0.000010132   -0.000000002
   6   C   :   -0.000058289   -0.000042635    0.000000001
   7   N   :    0.000002044   -0.000047838    0.000000040
   8   H   :    0.000036404    0.000004037    0.000008108
   9   H   :    0.000035236   -0.000009529    0.000000302
  10   H   :    0.000036516    0.000003403   -0.000008493
  11   H   :    0.000002646    0.000036894    0.000000038
  12   H   :   -0.000033725    0.000001195   -0.000000005
  13   H   :   -0.000019273   -0.000032353   -0.000000012

Difference to translation invariance:
           :    0.0000000000   -0.0000000000    0.0000000000

Difference to rotation invariance:
           :   -0.0000000000    0.0000000000    0.0000000000

Norm of the Dispersion gradient    ...    0.0001895827
RMS gradient                       ...    0.0000303575
MAX gradient                       ...    0.0000877784
gCP correction                   ... done

------------------
CARTESIAN GRADIENT
------------------

   1   C   :    0.001798669    0.000183683   -0.000011951
   2   C   :   -0.000311665   -0.001894060    0.000011270
   3   C   :   -0.000736533    0.001102300   -0.000005240
   4   N   :    0.002127994   -0.004535910   -0.000001196
   5   C   :   -0.000383124    0.002223152    0.000001311
   6   C   :    0.002451161   -0.001585101   -0.000019821
   7   N   :   -0.003567455    0.003972200    0.000003595
   8   H   :   -0.000656235   -0.000707392   -0.000675714
   9   H   :   -0.001250187    0.000399218   -0.000043721
  10   H   :   -0.000666797   -0.000649064    0.000741564
  11   H   :   -0.001617051   -0.000163132   -0.000023629
  12   H   :    0.001037125    0.001427585    0.000016855
  13   H   :    0.001774097    0.000226521    0.000006676

Difference to translation invariance:
           :    0.0000000000    0.0000000000    0.0000000000

Difference to rotation invariance:
           :   -0.0000198757   -0.0000000973    0.0000860601

Norm of the Cartesian gradient     ...    0.0094557972
RMS gradient                       ...    0.0015141394
MAX gradient                       ...    0.0045359102

-------
TIMINGS
-------

Total SCF gradient time     ....        5.512 sec

[...]

Components:
Nuclear Repulsion  :        275.69484350428218 Eh            7502.03809 eV
Electronic Energy  :       -579.25056259586472 Eh          -15762.20914 eV
One Electron Energy:       -955.31068039741967 Eh          -25995.32519 eV
Two Electron Energy:        376.06011780155495 Eh           10233.11605 eV
CPCM Dielectric    :         -0.01262255067779 Eh              -0.34348 eV
SMD CDS (Gcds)     :          0.00034761619985 Eh               0.00946 eV

Virial components:
Potential Energy   :       -605.77296812992722 Eh          -16483.92049 eV
Kinetic Energy     :        302.20497410386679 Eh            8223.41542 eV
Virial Ratio       :          2.00451024979399

DFT components:
N(Alpha)           :       25.000014526903 electrons
N(Beta)            :       25.000014526903 electrons
N(Total)           :       50.000029053806 electrons
E(X)               :      -41.421372768982 Eh       
E(C)               :       -1.616028146318 Eh       
E(XC)              :      -43.037400915300 Eh       

CPCM Solvation Model Properties:
Surface-charge          :         -0.03268024036472
Corrected charge        :          0.00000000000000
Outlying charge corr.   :          0.00008961512167 Eh               0.00244 eV
Free-energy (cav+disp)  :          0.00034761619985 Eh               0.00946 eV

---------------
SCF CONVERGENCE
---------------

  Last Energy change         ...    2.7867e-09  Tolerance :   1.0000e-07
  Last MAX-Density change    ...    3.4220e-05  Tolerance :   1.0000e-07
  Last RMS-Density change    ...    1.8317e-06  Tolerance :   5.0000e-09
  Last DIIS Error            ...    4.6812e-05  Tolerance :   1.0000e-07
  Last Orbital Gradient      ...    1.2933e-05  Tolerance :   1.0000e-04
  Last Orbital Rotation      ...    5.6788e-05  Tolerance :   1.0000e-04


----------------
ORBITAL ENERGIES
----------------

  NO   OCC          E(Eh)            E(eV) 
   0   2.0000     -14.178855      -385.8262 
   1   2.0000     -14.175320      -385.7301 
   2   2.0000     -10.086568      -274.4695 
   3   2.0000     -10.074308      -274.1359 
   4   2.0000     -10.073525      -274.1146 
   5   2.0000     -10.071744      -274.0661 
   6   2.0000     -10.025840      -272.8170 
   7   2.0000      -0.947756       -25.7898 
   8   2.0000      -0.875827       -23.8325 
   9   2.0000      -0.760752       -20.7011 
  10   2.0000      -0.680718       -18.5233 
  11   2.0000      -0.625928       -17.0324 
  12   2.0000      -0.591044       -16.0831 
  13   2.0000      -0.489975       -13.3329 
  14   2.0000      -0.479943       -13.0599 
  15   2.0000      -0.435285       -11.8447 
  16   2.0000      -0.414189       -11.2707 
  17   2.0000      -0.388044       -10.5592 
  18   2.0000      -0.367022        -9.9872 
  19   2.0000      -0.360453        -9.8084 
  20   2.0000      -0.344455        -9.3731 
  21   2.0000      -0.308519        -8.3952 
  22   2.0000      -0.283827        -7.7233 
  23   2.0000      -0.246173        -6.6987 
  24   2.0000      -0.221596        -6.0299 
  25   0.0000      -0.080768        -2.1978 
  26   0.0000      -0.047568        -1.2944 
  27   0.0000       0.078800         2.1442 
  28   0.0000       0.088420         2.4060 
  29   0.0000       0.119010         3.2384 
  30   0.0000       0.123212         3.3528 
  31   0.0000       0.139674         3.8007 
  32   0.0000       0.152254         4.1430 
  33   0.0000       0.165516         4.5039 
  34   0.0000       0.179638         4.8882 
  35   0.0000       0.185360         5.0439 
*Only the first 10 virtual orbitals were printed.
Total SCF time: 0 days 0 hours 0 min 5 sec 
Finished LeanSCF after   5.2 sec

Maximum memory used throughout the entire LEANSCF-calculation: 18.8 MB


-------------------------------------------------------------------------------
                          DFT DISPERSION CORRECTION                            
                                                                               
                                DFTD4 V3.4.0                                   
-------------------------------------------------------------------------------
-------------------------   ----------------
Dispersion correction           -0.003717499
-------------------------   ----------------

------------------   -----------------
gCP correction             0.008276102
------------------   -----------------

-------------------------   --------------------
FINAL SINGLE POINT ENERGY      -303.563435423230
-------------------------   --------------------

------------------------------------------------------------------------------
                         ORCA SCF GRADIENT CALCULATION
------------------------------------------------------------------------------

Nuc. rep. gradient        (SHARK) ... done (  0.0 sec)
HCore & Overlap gradient  (SHARK) ... done (  0.2 sec)
Split-RIJ-J gradient      (SHARK) ... done (  1.0 sec)
XC gradient                       ... done (  4.0 sec)
CPCM gradient                     ... done (  0.5 sec)
SMD gradient                      ... done (  0.0 sec)
Dispersion correction             ... done (  0.0 sec)

-------------------
DISPERSION GRADIENT
-------------------

   1   C   :    0.000087677    0.000005025   -0.000000082
   2   C   :    0.000030809    0.000004989    0.000000036
   3   C   :    0.000004026    0.000041146    0.000000079
   4   N   :   -0.000056234    0.000046336    0.000000024
   5   C   :   -0.000067694   -0.000010057   -0.000000019
   6   C   :   -0.000058371   -0.000042554   -0.000000002
   7   N   :    0.000001936   -0.000048779    0.000000046
   8   H   :    0.000036271    0.000004204    0.000008023
   9   H   :    0.000035149   -0.000009402    0.000000307
  10   H   :    0.000036391    0.000003540   -0.000008446
  11   H   :    0.000003140    0.000036512    0.000000070
  12   H   :   -0.000033706    0.000001143   -0.000000023
  13   H   :   -0.000019393   -0.000032102   -0.000000015

Difference to translation invariance:
           :   -0.0000000000   -0.0000000000   -0.0000000000

Difference to rotation invariance:
           :   -0.0000000000    0.0000000000    0.0000000000

Norm of the Dispersion gradient    ...    0.0001897542
RMS gradient                       ...    0.0000303850
MAX gradient                       ...    0.0000876770
gCP correction                   ... done

------------------
CARTESIAN GRADIENT
------------------

   1   C   :   -0.000023733   -0.000016014   -0.000008926
   2   C   :   -0.000040474    0.000249235   -0.000011459
   3   C   :    0.000088918   -0.000129407   -0.000025114
   4   N   :   -0.000118685    0.000228759   -0.000002602
   5   C   :    0.000085814   -0.000042937    0.000011310
   6   C   :   -0.000106469    0.000077005    0.000018492
   7   N   :    0.000146700   -0.000337169    0.000007554
   8   H   :   -0.000022900   -0.000023958   -0.000007644
   9   H   :   -0.000027666    0.000055344   -0.000009726
  10   H   :   -0.000027979   -0.000001687    0.000038897
  11   H   :   -0.000036766   -0.000104551   -0.000001362
  12   H   :    0.000095679   -0.000071613   -0.000003470
  13   H   :   -0.000012438    0.000116994   -0.000005950

Difference to translation invariance:
           :    0.0000000000    0.0000000000    0.0000000000

Difference to rotation invariance:
           :   -0.0000203321   -0.0000060470   -0.0000268041

Norm of the Cartesian gradient     ...    0.0006054198
RMS gradient                       ...    0.0000969448
MAX gradient                       ...    0.0003371690

-------
TIMINGS
-------

Total SCF gradient time     ....        6.141 sec

Densities                   ....       0.000 sec  (  0.0%)
One electron gradient       ....       0.153 sec  (  2.5%)
RI-J Coulomb gradient       ....       0.990 sec  ( 16.1%)
XC gradient                 ....       4.012 sec  ( 65.3%)
CPCM gradient               ....       0.517 sec  (  8.4%)
   A-Matrix (El+Nuc)        ....       0.042 sec  (  0.7%)
   Potential                ....       0.475 sec  (  7.7%)
SMD gradient                ....       0.010 sec  (  0.2%)

Maximum memory used throughout the entire SCFGRAD-calculation: 32.0 MB

------------------------------------------------------------------------------
                              ORCA PROPERTY CALCULATIONS
------------------------------------------------------------------------------

GBWName                                 ... xtb_opt.gbw
Number of atoms                         ...     13
Number of basis functions               ...    173
Max core memory                         ...   1024 MB

Electric properties:
Dipole moment                           ... YES
Quadrupole moment                       ...  NO
Static polarizability (Dipole/Dipole)   ...  NO
Static polarizability (Dipole/Quad.)    ...  NO
Static polarizability (Quad./Quad.)     ...  NO
Static polarizability (Velocity)        ...  NO

Atomic electric properties:
Dipole moment                           ...  NO
Quadrupole moment                       ...  NO
Static polarizability                   ...  NO

Choice of electric origin               ... Center of mass
Position of electric origin             ...    -0.005943    -0.008038     0.000311

General magnetic properties:
Magnetizability                         ...  NO

EPR properties:
g-Tensor (aka g-matrix)                 ...  NO
Zero-Field splitting spin-orbit         ...  NO
Zero-field splitting spin-spin          ...  NO
Hyperfine couplings                     ...  NO (   0 nuclei)
Quadrupole couplings                    ...  NO (   0 nuclei)
Contact density                         ...  NO (   0 nuclei)

NMR properties:
Chemical shifts                         ...  NO (   0 nuclei)
Spin-rotation constants                 ...  NO (   0 nuclei)
Spin-spin couplings                     ...  NO (   0 nuclei,    0 pairs)

Choice of magnetic origin               ... GIAO
Position of magnetic origin             ...     0.000000     0.000000     0.000000

Properties with geometric perturbations:
SCF Hessian                             ...  NO
IR spectrum                             ...  NO
VCD spectrum                            ...  NO
X-ray spectroscopy properties:
SCF XES/XAS/RIXS spectra                ...  NO


-------------
DIPOLE MOMENT
-------------

Method             : SCF
Type of density    : Electron Density
Multiplicity       :   1
Irrep              :   0
Energy             :  -303.5679940260604326 Eh
Relativity type    : 
Basis              : AO
                                X                 Y                 Z
Electronic contribution:     -3.936840743      -0.141214925       0.004404705
Nuclear contribution   :      4.313493541       0.190249172      -0.007680939
                        -----------------------------------------
Total Dipole Moment    :      0.376652798       0.049034247      -0.003276235
                        -----------------------------------------
Magnitude (a.u.)       :      0.379845260
Magnitude (Debye)      :      0.965489921



--------------------
Rotational spectrum 
--------------------
 
Rotational constants in cm-1:             0.195987             0.090069             0.062424 
Rotational constants in MHz :          5875.544942          2700.193776          1871.416280 

Dipole components along the rotational axes: 
x,y,z [a.u.] :     0.376890     0.047174    -0.003312 
x,y,z [Debye]:     0.957978     0.119908    -0.008418 

 

Dipole moment calculation done in   0.0 sec 

Maximum memory used throughout the entire PROP-calculation: 10.4 MB

--------------------------------
SUGGESTED CITATIONS FOR THIS RUN
--------------------------------

Below you find a list of papers that are relevant to this ORCA run
We neither can nor want to force you to cite these papers, but we appreciate if you do
You receive ORCA, which is the product of decades of hard work by many enthusiastic individuals, for free
The only thing we kindly ask in return is that you cite our papers,
We deeply appreciate it, if you show your appreciation for ORCA by not just citing the generic ORCA reference.

Please note that relegating all ORCA citations to the supporting information does *not* help us.
SI sections are not indexed - citations you put there will not count into any citation statistics
But we need these citations in order to attract the funding resources that allow us to do what we are doing

Therefore, if you are a happy ORCA user, please consider citing a few of the papers listed below in the main body of your paper

In addition to the list printed below, the program has created the file xtb_opt.bibtex that contains the list in bibtex format
You can import this file easily into all common literature databanks and citation aid programs


List of essential papers. We consider these as the minimum necessary citations

  1. Neese,F.
     Software update: the ORCA program system, version 5.0
     WIRES Comput. Molec. Sci., 2022 12(1)e1606
     doi.org/10.1002/wcms.1606
  2. Grimme,S.; Hansen,A.; Ehlert,S.; Mewes,J.
     r2SCAN-3c: A 'Swiss army knife' composite electronic-structure method
     J. Chem. Phys., 2021 154 064103
     doi.org/10.1063/5.0040021

List of papers to cite with high priority. The work reported in these papers was absolutely
necessary for this run to complete.
Our perspective: the developers of density functionals and basis sets usually get cited in chemistry papers
Good! But without the algorithms to do something with them, the functionals or basis sets would not do anything.
Hence, in our opinion, the algorithm design and method developments papers are equally worthy of getting cited

  1. Neese,F.
     An improvement of the resolution of the identity approximation for the formation of the Coulomb matrix
     J. Comp. Chem., 2003 24(14)1740-1747
     doi.org/10.1002/jcc.10318
  2. Garcia-Rates,M.; Neese,F.
     Effect of the Solute Cavity on the Solvation Energy and its Derivatives within the Framework of the Gaussian Charge Scheme
     J. Comput. Chem., 2020 41 922-939
     doi.org/10.1002/jcc.26139
  3. Neese,F.
     The SHARK Integral Generation and Digestion System
     J. Comp. Chem., 2022  1-16
     doi.org/10.1002/jcc.26942
  4. Lehtola,S.; Steigemann,C.; Oliveira,M.; Marques,M.
     Recent developments in Libxc - A comprehensive library of functionals for density functional theory
     Software X, 2018 7 
     doi.org/10.1016/j.softx.2017.11.002
  5. Caldeweyher,E.; Bannwarth,C.; Grimme,S.
     Extension of the D3 dispersion coefficient model
     J. Chem. Phys., 2017 147 034112-XXXX
     doi.org/10.1063/1.4993215
  6. Caldeweyher,E.; Ehlert,S.; Hansen,A.; Neugebauer,H.; Spicher,S.; Bannwarth,C.; Grimme,S.
     A generally applicable atomic-charge dependent London dispersion correction
     J. Chem. Phys., 2019 150 154122-XXXX
     doi.org/10.1063/1.5090222
  7. Caldeweyher,E.; Mewes,J.; Ehlert,S.; Grimme,S.
     Extension and evaluation of the D4 London-dispersion model for periodic systems
     Phys. Chem. Chem. Phys., 2020 22(16)8499-8512
     doi.org/10.1039/D0CP00502A

List of suggested additional citations. These are papers that are important in the 'surrounding' of 
of this run, or papers that preceded the highly important papers. If you like your results we are grateful for a citation.

  1. Neese,F.
     The ORCA program system
     WIRES Comput. Molec. Sci., 2012 2(1)73-78
     doi.org/10.1002/wcms.81
  2. Neese,F.
     Software update: the ORCA program system, version 4.0
     WIRES Comput. Molec. Sci., 2018 8(1)1-6
     doi.org/10.1002/wcms.1327
  3. Neese,F.; Wennmohs,F.; Becker,U.; Riplinger,C.
     The ORCA quantum chemistry program package
     J. Chem. Phys., 2020 152 Art. No. L224108
     doi.org/10.1063/5.0004608

List of optional additional citations

  1. Neese,F.
     Approximate second-order SCF convergence for spin unrestricted wavefunctions
     Chem. Phys. Lett., 2000 325(1-3)93-98
     doi.org/10.1016/s0009-2614(00)00662-x

Timings for individual modules:

Sum of individual times          ...       12.764 sec (=   0.213 min)
Startup calculation              ...        0.908 sec (=   0.015 min)   7.1 %
SCF iterations                   ...        5.524 sec (=   0.092 min)  43.3 %
Property calculations            ...        0.100 sec (=   0.002 min)   0.8 %
SCF Gradient evaluation          ...        6.232 sec (=   0.104 min)  48.8 %
                             ****ORCA TERMINATED NORMALLY****
TOTAL RUN TIME: 0 days 0 hours 0 minutes 13 seconds 472 msec
  ------------------------------------------------------------------------
          * successful ORCA run, taking over control again...

         :::::::::::::::::::::::::::::::::::::::::::::::::::::
         ::                  ORCA SUMMARY                   ::
         :::::::::::::::::::::::::::::::::::::::::::::::::::::
         :: total energy            -303.563435423230 Eh    ::
         :: gradient norm              0.000605419800 Eh/a0 ::
         :: HOMO-LUMO gap              0.000000000000 eV    ::
         :::::::::::::::::::::::::::::::::::::::::::::::::::::

           -------------------------------------------------
          |                Property Printout                |
           -------------------------------------------------
           -------------------------------------------------
          |                Geometry Summary                 |
           -------------------------------------------------

      molecular mass/u    :       94.1147304
   center of mass at/Å    :       -0.0031470      -0.0042535       0.0001647
  moments of inertia/u·Å² :        0.8601176E+02   0.1871588E+03   0.2700444E+03
rotational constants/cm⁻¹ :        0.1959922E+00   0.9007130E-01   0.6242542E-01

 * 12 selected distances

     #   Z          #   Z                                           value/Å
     2   6 C        3   6 C                                       1.4009141 (max)
     3   6 C        4   7 N                                       1.3331633
     4   7 N        5   6 C                                       1.3417598
     5   6 C        6   6 C                                       1.3846455
     2   6 C        7   7 N                                       1.3408712
     6   6 C        7   7 N                                       1.3411378
     1   6 C        8   1 H                                       1.0949872
     1   6 C        9   1 H                                       1.0908458
     1   6 C       10   1 H                                       1.0953470
     3   6 C       11   1 H                                       1.0880704
     5   6 C       12   1 H                                       1.0864273 (min)
     6   6 C       13   1 H                                       1.0871595

 * 3 distinct bonds (by element types)

   Z      Z             #   av. dist./Å        max./Å        min./Å
   1 H    6 C           6     1.0904728     1.0953470     1.0864273
   6 C    6 C           2     1.3927798     1.4009141     1.3846455
   6 C    7 N           4     1.3392330     1.3417598     1.3331633


optimized geometry written to: xtbopt.coord


           -------------------------------------------------
          | TOTAL ENERGY             -303.563435423230 Eh   |
          | GRADIENT NORM               0.000605419800 Eh/α |
           -------------------------------------------------

------------------------------------------------------------------------
 * finished run on 2025/04/03 at 21:50:50.176     
------------------------------------------------------------------------
 total:
 * wall-time:     0 d,  0 h,  1 min, 41.305 sec
 *  cpu-time:     0 d,  0 h,  0 min,  0.012 sec
 * ratio c/w:     0.000 speedup
 SCF:
 * wall-time:     0 d,  0 h,  0 min, 13.738 sec
 *  cpu-time:     0 d,  0 h,  0 min,  0.001 sec
 * ratio c/w:     0.000 speedup
 ANC optimizer:
 * wall-time:     0 d,  0 h,  1 min, 27.553 sec
 *  cpu-time:     0 d,  0 h,  0 min,  0.009 sec
 * ratio c/w:     0.000 speedup

