27
 energy: -33.609495183340 gnorm: 0.038616697642 xtb: 6.7.1 (edcfbbe)
C           -3.43597246127305        0.57443703888542        0.05651249211636
C           -1.93941897175625        0.47900116463059        0.06899340991363
C           -1.14228192631693        1.50536752869935       -0.25050020623988
C            0.35491715641138        1.44650574715626       -0.28898963758656
C            0.87704164284011        0.00093331172620       -0.29371892927108
H            0.62360366289203       -0.43589801717516       -1.26828689826029
C            0.12968003520254       -0.78540282979451        0.78839821380008
C           -1.36455250897259       -0.84961872639623        0.49071669503743
H           -1.89521047302667       -1.17942553732130        1.39713356980723
O           -1.65619155475915       -1.80031612450432       -0.57105552403253
C            2.37943906716417       -0.05459886599459       -0.13988651711189
C            3.16354810835544       -0.34421942854366       -1.18378009965896
C            2.95063500904253        0.23064491535787        1.21943712096858
H           -3.87250813488017       -0.17104276681979       -0.61850654534593
H           -3.77064863325791        1.56462421264282       -0.26419242296804
H           -3.84708814971413        0.37353024740746        1.05388702299322
H           -1.59803077631547        2.46182592232361       -0.50632258173153
H            0.71877158141847        1.97367483708135       -1.17972991083947
H            0.76305560355041        1.99588233360223        0.57233126910099
H            0.52112480341903       -1.80639774128125        0.87645269560657
H            0.26641270874694       -0.29810749178211        1.76248496436184
H           -1.43214601654165       -2.67646030700178       -0.23008609338543
H            4.24659031362758       -0.36513592153784       -1.09071703985852
H            2.74142721651050       -0.56351105156901       -2.16162901579484
H            2.57044447440208        1.17406349172064        1.62786672378050
H            2.66738848767277       -0.55364959317435        1.93149229122640
H            4.04171468168732        0.28212372979570        1.18526686251747
27
 energy: -33.611167200419 gnorm: 0.016008825826 xtb: 6.7.1 (edcfbbe)
C           -3.42442655642133        0.57625127098436        0.06082272912175
C           -1.93067971242865        0.48397494675002        0.07498797839584
C           -1.13877571714748        1.49933262022236       -0.25083691112411
C            0.35489499631888        1.44483515186104       -0.28590374348078
C            0.86840477906414       -0.00111384614340       -0.29169059519768
H            0.60430400962667       -0.44452815193474       -1.25914116395814
C            0.12820016512853       -0.77957078698328        0.79694480319221
C           -1.36654852800985       -0.85272915204819        0.48843522309164
H           -1.90223628881089       -1.18969406056635        1.38993705319610
O           -1.65017835496810       -1.79005383879172       -0.56896088797389
C            2.37013615891551       -0.05375956107680       -0.13820124819519
C            3.14938378307447       -0.33942254066341       -1.17303048736172
C            2.94393059277192        0.23062797173179        1.21632838418446
H           -3.83835646403523       -0.17371525622610       -0.61591158791566
H           -3.75311664335079        1.56113679610634       -0.26459096695840
H           -3.83059168049510        0.37965185523625        1.05540799270320
H           -1.58531930770996        2.45044821051225       -0.51701101509152
H            0.71558803244251        1.96588085108816       -1.17816252182615
H            0.75329555142022        1.98780743210240        0.57957217739004
H            0.53047826624340       -1.79400817391728        0.87439966728676
H            0.25807099755662       -0.28554747495249        1.76344039001062
H           -1.42207888560428       -2.67250415185559       -0.24842637530297
H            4.22418863934428       -0.36812774269901       -1.08404434958865
H            2.73925101584220       -0.55643017404864       -2.14692227066353
H            2.56535539865634        1.17249455229836        1.61442444443642
H            2.66899452822012       -0.55711064097956        1.91952777489844
H            4.02957617048516        0.28470397212684        1.17217741587625
27
 energy: -33.611547167896 gnorm: 0.005095654668 xtb: 6.7.1 (edcfbbe)
C           -3.41904342198076        0.57579543625985        0.06370164719603
C           -1.92512078478826        0.48705790258245        0.07959752819995
C           -1.13632293477823        1.49710302873664       -0.25499451028454
C            0.35681677139134        1.44443951253660       -0.28580130058309
C            0.86257436742986       -0.00267762580653       -0.28580513763290
H            0.58942852286578       -0.45115853795103       -1.24755335235441
C            0.12727646942764       -0.77579073233524        0.80945630455576
C           -1.36756507935347       -0.85618522926742        0.48828695008281
H           -1.90856011393378       -1.19634806656431        1.38694804895484
O           -1.63994950018336       -1.77499130394812       -0.57162552189965
C            2.36363957324967       -0.05885226209518       -0.13776379060931
C            3.13953118295384       -0.34275758171889       -1.17141251611386
C            2.93814264396772        0.22944951645977        1.21535781993038
H           -3.81798643759550       -0.18069716032934       -0.61067100299074
H           -3.74573455121477        1.55652418798630       -0.26813394857647
H           -3.82151783795663        0.38436476656201        1.05741648197486
H           -1.57673586809675        2.44728489757800       -0.52438471756149
H            0.72040847551641        1.96282382046864       -1.17613201799041
H            0.74786301951693        1.98117349699155        0.58389290466615
H            0.53591063957918       -1.78579365341986        0.88795409376993
H            0.24703453547934       -0.27337854992130        1.76948571652186
H           -1.40445981457434       -2.66473154360676       -0.27593616196015
H            4.21199698182991       -0.36611247258374       -1.08920926864711
H            2.73510264420851       -0.55592153037464       -2.14522316434081
H            2.55777419561719        1.16957385313278        1.60778670269445
H            2.66999411050363       -0.55927278842317        1.91549210325169
H            4.02124715704818        0.28790869718452        1.16284201889158
27
 energy: -33.611646930619 gnorm: 0.002952110678 xtb: 6.7.1 (edcfbbe)
C           -3.41909666055868        0.57484496926791        0.06518287572501
C           -1.92421166114068        0.48852559276319        0.08257652686712
C           -1.13604773507410        1.49729596102807       -0.25718928160859
C            0.35784448409658        1.44337191310739       -0.28398076175952
C            0.86067291667140       -0.00441137913522       -0.28132625067695
H            0.58197815247968       -0.45591229446751       -1.24007362624347
C            0.12602324018543       -0.77190853080398        0.81895528456333
C           -1.36787641083858       -0.85776928974526        0.48789622029729
H           -1.91275684352002       -1.20049715165163        1.38433193658210
O           -1.63075600211809       -1.76443841236305       -0.57754809352805
C            2.36168503626684       -0.05990976507052       -0.13895370930534
C            3.13520660494119       -0.34142203347786       -1.17532781723286
C            2.93783137579452        0.22790031281438        1.21439007905235
H           -3.81309359866345       -0.18673552441065       -0.60558705434171
H           -3.74676892475066        1.55308328447950       -0.27250261194274
H           -3.82075239171961        0.38783032056983        1.05959448222351
H           -1.57440755452370        2.44724268215214       -0.53088713903263
H            0.72569153841796        1.96039298031044       -1.17274728261614
H            0.74542508663983        1.97895096997597        0.58751472559100
H            0.53739916879088       -1.77974739767652        0.90530884304107
H            0.23832040306098       -0.26219324899746        1.77544917229757
H           -1.38590472001320       -2.65760920607852       -0.29894782967122
H            4.20814545838164       -0.37112210778656       -1.09484707107316
H            2.72955214417809       -0.56095142370832       -2.14763373464224
H            2.55357326730517        1.16582169946315        1.60735823995178
H            2.67346391359111       -0.56264187648872        1.91342110734070
H            4.02060465824876        0.29083903406338        1.15914467928711
27
 energy: -33.611717237356 gnorm: 0.004082115761 xtb: 6.7.1 (edcfbbe)
C           -3.42071377508920        0.57381575179477        0.06628108520782
C           -1.92477995266944        0.49002329940987        0.08426857181632
C           -1.13652869037382        1.49790649451515       -0.26046751711525
C            0.35856326110123        1.44158081895902       -0.28189272655860
C            0.85919996081491       -0.00710719967096       -0.27468868766489
H            0.57408647631066       -0.46247534747766       -1.22985995782290
C            0.12355766327211       -0.76601191487889        0.83152745175718
C           -1.36786480378148       -0.85834471454298        0.48676286215378
H           -1.91863197579906       -1.20695686269146        1.37846932267521
O           -1.61658426030336       -1.75198917362468       -0.58778637249445
C            2.36002924439961       -0.06660487302524       -0.13891127460094
C            3.12937315458296       -0.34956892535353       -1.17898394865348
C            2.94022146741455        0.22465103932063        1.21281461287671
H           -3.81291810564650       -0.19463611633744       -0.59775144766498
H           -3.75090044242428        1.54874013588220       -0.27972414183307
H           -3.82169809902625        0.39414085570468        1.06270117018118
H           -1.57349391380869        2.44801621034612       -0.53772865817999
H            0.73252031870649        1.95768882877638       -1.16861544243062
H            0.74257923847097        1.97708800032505        0.59152942296000
H            0.53705623942353       -1.77173967019401        0.93335665005236
H            0.22604371149112       -0.24503040368070        1.78331837291262
H           -1.35580784629859       -2.64686105098949       -0.32863304307652
H            4.20407485326130       -0.37135674963377       -1.10493519657337
H            2.71964400632790       -0.56257084371148       -2.15224231224409
H            2.55092480296385        1.16035647346390        1.60735328367161
H            2.68084934034314       -0.56735311428211        1.91252586310060
H            4.02294307246564        0.29342912973015        1.15488396669304
27
 energy: -33.611755125914 gnorm: 0.003354731426 xtb: 6.7.1 (edcfbbe)
C           -3.42225771895002        0.57327237799520        0.06640520876442
C           -1.92627360541793        0.49016700320196        0.08374793582715
C           -1.13752223044178        1.49805040864121       -0.26165736956961
C            0.35799277819174        1.44113489025187       -0.28059351536880
C            0.85867123528119       -0.00769499667526       -0.27046504111225
H            0.57124074647713       -0.46478849483588       -1.22415539870968
C            0.12143651423667       -0.76153673620276        0.83825942643463
C           -1.36746245055044       -0.85790803701667        0.48542262547941
H           -1.92264867382079       -1.21290849177559        1.37208972201593
O           -1.60611962168373       -1.74679140940607       -0.59570856305851
C            2.35969104518770       -0.06657062702339       -0.13921305150354
C            3.12581078052181       -0.34925913585701       -1.18231889512935
C            2.94330218942340        0.22197632243920        1.21159196761773
H           -3.81662899861285       -0.19939158700673       -0.59202225975832
H           -3.75421094749569        1.54602991003286       -0.28516728118776
H           -3.82283433861673        0.39967998396206        1.06469884402319
H           -1.57457962414290        2.44825874624366       -0.53947011694434
H            0.73469252031907        1.95722261603344       -1.16653618798307
H            0.74067920240300        1.97761003687065        0.59340711087696
H            0.53573498633086       -1.76608930835039        0.95206680782489
H            0.21800586554617       -0.23305315411613        1.78705880512102
H           -1.33241443278522       -2.63963993823687       -0.34456824660667
H            4.20093174840359       -0.37752645078816       -1.10981164065996
H            2.71129526773397       -0.56867886305797       -2.15267136557204
H            2.55177244464514        1.15554570586395        1.61018796039322
H            2.68748356005681       -0.57236773484546        1.91087063985860
H            4.02595670388911        0.29408704179173        1.15212378807206
27
 energy: -33.611785447116 gnorm: 0.001742214887 xtb: 6.7.1 (edcfbbe)
C           -3.42328033973393        0.57316197743622        0.06627128183435
C           -1.92786450700002        0.48993380082099        0.08277697690244
C           -1.13845458651272        1.49805621954797       -0.26113861741761
C            0.35695703693476        1.44140313076367       -0.27962636185648
C            0.85794099906244       -0.00751057790456       -0.26741223894607
H            0.56953931126824       -0.46580970567349       -1.22022973856328
C            0.11912055951420       -0.75697128697621        0.84278868351367
C           -1.36696340922934       -0.85709977472644        0.48378354009101
H           -1.92607647273343       -1.21914043743887        1.36472650591623
O           -1.59694385892789       -1.74501417780283       -0.60256500099693
C            2.35902669944046       -0.06816490262742       -0.13836550241907
C            3.12214463219702       -0.35316209042817       -1.18312469355487
C            2.94595118623204        0.21937465627860        1.21070962077028
H           -3.82054932255200       -0.20321627447564       -0.58658552909968
H           -3.75609972219825        1.54383541131057       -0.29068791265994
H           -3.82329395697977        0.40607794064709        1.06630899046267
H           -1.57605284562439        2.44809318724208       -0.53886237961350
H            0.73406823847130        1.95703256457484       -1.16592073410507
H            0.73954706291479        1.97941586892341        0.59390504987120
H            0.53412413664902       -1.76028395733484        0.96597871676912
H            0.21140947522478       -0.22262835810075        1.78899918086158
H           -1.30918125449041       -2.63367449360264       -0.35460891161298
H            4.19727525732500       -0.38194533000994       -1.11329980815896
H            2.70364997168118       -0.57098427134314       -2.15208549045360
H            2.55416776083911        1.15157586384206        1.61289303540224
H            2.69320612510690       -0.57662642105074        1.90970293011543
H            4.02837676925019        0.29310151624164        1.14924031609312
27
 energy: -33.611803267800 gnorm: 0.001524026396 xtb: 6.7.1 (edcfbbe)
C           -3.42413985724361        0.57348970457942        0.06677596118390
C           -1.92968488633145        0.48938669307271        0.08137024948865
C           -1.13984494155854        1.49796713963901       -0.25983407265797
C            0.35511376207862        1.44290839006129       -0.27914892262375
C            0.85584893634352       -0.00610196874090       -0.26321800752290
H            0.56633779859973       -0.46626251262432       -1.21475443946285
C            0.11564434356150       -0.75059558488352        0.84875994795850
C           -1.36650190694337       -0.85645532060186        0.48108605648711
H           -1.93123647725937       -1.22845871550476        1.35341864304469
O           -1.58407161585681       -1.74363274325434       -0.61189079701171
C            2.35695727916985       -0.07005096743951       -0.13625081074209
C            3.11577415615813       -0.35882252735669       -1.18272913576163
C            2.94853730340956        0.21541251608221        1.21043984883763
H           -3.82407760621217       -0.20909878643842       -0.57714040054006
H           -3.75683478442725        1.54064725015089       -0.29935845132411
H           -3.82228660907685        0.41749817013451        1.06934152756934
H           -1.57813200159131        2.44787260039477       -0.53599762914609
H            0.73042139219677        1.95630378725656       -1.16747755762297
H            0.73849635647680        1.98342505040383        0.59248884796843
H            0.53307986381497       -1.75139372017204        0.98202181060429
H            0.20144184859228       -0.20867724377325        1.79118081802247
H           -1.27073386409804       -2.62531501935966       -0.36859376286859
H            4.19037669331707       -0.38987802716522       -1.11699209393062
H            2.69271639625003       -0.57463436249220       -2.14952410150961
H            2.55756359440510        1.14572783868759        1.61720276594449
H            2.70058308827046       -0.58316356278197        1.90810795781222
H            4.03039668408366        0.29073200025929        1.14428765694852
27
 energy: -33.611807110620 gnorm: 0.000483316263 xtb: 6.7.1 (edcfbbe)
C           -3.42401761239027        0.57363694810898        0.06740377408698
C           -1.92922803072629        0.48932406426215        0.08156684798117
C           -1.13984186206751        1.49820912517550       -0.25946468528319
C            0.35518458249173        1.44323130801000       -0.27992229331404
C            0.85569018342746       -0.00572250265251       -0.26366630675365
H            0.56635801659453       -0.46592679154293       -1.21523372915268
C            0.11581130702954       -0.75133953056335        0.84807851215148
C           -1.36675616513141       -0.85707284735388        0.48080505835084
H           -1.93122328098326       -1.22758980585629        1.35382903863776
O           -1.58494432858707       -1.74420037124023       -0.61114471975881
C            2.35671063140141       -0.06987099471436       -0.13596690639436
C            3.11594215601830       -0.35863873494426       -1.18206760408638
C            2.94768396680900        0.21559802187448        1.21126077723902
H           -3.82319762936533       -0.20945793163343       -0.57579720483173
H           -3.75621185503799        1.54048786701339       -0.29943912437140
H           -3.82145339738798        0.41856470257381        1.07003015837466
H           -1.57814312243932        2.44827689700066       -0.53511287555366
H            0.72931474159848        1.95537878766296       -1.16930261874372
H            0.73926881708210        1.98444488619020        0.59066657958882
H            0.53389831531194       -1.75193046051762        0.97866502345797
H            0.20157529478055       -0.21080173014411        1.79096839853855
H           -1.27080823186099       -2.62517325250576       -0.36786139106980
H            4.19057210862975       -0.39024757822540       -1.11618906368159
H            2.69382591636839       -0.57404835512581       -2.14937318648479
H            2.55663858866417        1.14589650983111        1.61748483725127
H            2.69957101595495       -0.58299321737558        1.90849179415850
H            4.02952481994443        0.29079506482567        1.14486281880804
27
 energy: -33.611809515104 gnorm: 0.000540803986 xtb: 6.7.1 (edcfbbe)
C           -3.42424759826037        0.57389806269029        0.06862228722036
C           -1.92909526976838        0.48936230674806        0.08188640671992
C           -1.14011782431620        1.49866402732273       -0.25879502093285
C            0.35503915067475        1.44354691442925       -0.28130125686265
C            0.85546265308840       -0.00533754993138       -0.26411918722569
H            0.56637878844262       -0.46586560629332       -1.21561119144106
C            0.11573816891781       -0.75168586912888        0.84759274819021
C           -1.36704509296086       -0.85756643123540        0.48031588030627
H           -1.93142384796974       -1.22751309588404        1.35373611494754
O           -1.58542040497439       -1.74406260558709       -0.61141380459828
C            2.35638436310500       -0.06983352880921       -0.13567442983446
C            3.11605998742380       -0.35906045862069       -1.18131733495895
C            2.94668782444521        0.21536134944172        1.21215479458454
H           -3.82346754591248       -0.21151445171452       -0.57153303109256
H           -3.75625587588118        1.53958349633818       -0.30140509280310
H           -3.82055657527878        0.42253531420502        1.07217669275760
H           -1.57851930359413        2.44917546225561       -0.53285095080042
H            0.72750878204790        1.95397560800792       -1.17233627065535
H            0.74056312326776        1.98635202233660        0.58751617992629
H            0.53448932294341       -1.75215293722429        0.97679055998304
H            0.20127793495340       -0.21183582295170        1.79077160515775
H           -1.26519540357047       -2.62376418634582       -0.37061038068293
H            4.19076161439642       -0.39151728363670       -1.11515977313111
H            2.69459519675290       -0.57461373519827       -2.14899610812980
H            2.55491436602884        1.14528090242873        1.61838236249702
H            2.69871328930080       -0.58366028388186        1.90880458455450
H            4.02851512282728        0.29107845837244        1.14594552544949
27
 energy: -33.611810906934 gnorm: 0.000420581671 xtb: 6.7.1 (edcfbbe)
C           -3.42441454770022        0.57429958990121        0.07014351161678
C           -1.92919081201726        0.48935349966107        0.08192072026501
C           -1.14029151875882        1.49891752079315       -0.25814080759570
C            0.35486674778421        1.44350065730358       -0.28268480570308
C            0.85551018442536       -0.00528680377463       -0.26495987208240
H            0.56711703234618       -0.46584757262223       -1.21663819896964
C            0.11569569648057       -0.75215446504679        0.84640118890705
C           -1.36717387095495       -0.85776219216818        0.47961229976575
H           -1.93123685622184       -1.22747903803324        1.35347236494969
O           -1.58628394876694       -1.74436888295715       -0.61174002103938
C            2.35637169292127       -0.06974687144214       -0.13551599543336
C            3.11684248040701       -0.35938216391545       -1.18047868648107
C            2.94565621792018        0.21537552532872        1.21281349884843
H           -3.82459416424479       -0.21334376781815       -0.56659492081272
H           -3.75663208706094        1.53868038869648       -0.30302088452184
H           -3.81969522323612        0.42678973891509        1.07468909719347
H           -1.57877100063278        2.44977723180636       -0.53097838425206
H            0.72570426701844        1.95273938775538       -1.17515075118361
H            0.74198052634071        1.98775899385207        0.58455105450268
H            0.53439893312294       -1.75278243872832        0.97475845796343
H            0.20166774189542       -0.21307084430186        1.78999096501771
H           -1.26157953635813       -2.62251411704264       -0.37254894327755
H            4.19149818908998       -0.39223035619217       -1.11346505962736
H            2.69609341756048       -0.57490810152566       -2.14851761650664
H            2.55298333952221        1.14485340197448        1.61924932613768
H            2.69773112405406       -0.58411731540079        1.90899376443092
H            4.02749092119304        0.29177907311523        1.14741060703310
27
 energy: -33.611811895023 gnorm: 0.000276830293 xtb: 6.7.1 (edcfbbe)
C           -3.42452129965406        0.57478520522225        0.07189674288928
C           -1.92942047119485        0.48952197388015        0.08228483782958
C           -1.14035809310392        1.49890675207697       -0.25792509010732
C            0.35474124672900        1.44305646502936       -0.28406785806893
C            0.85555898431505       -0.00569638998046       -0.26590877411528
H            0.56775134814577       -0.46639801525534       -1.21771059414221
C            0.11561804754034       -0.75248154131801        0.84532081156487
C           -1.36735863663285       -0.85778807470431        0.47920086065156
H           -1.93094860306272       -1.22784101815236        1.35342141720204
O           -1.58741619924988       -1.74390166833773       -0.61230267958158
C            2.35638396152184       -0.06987351075038       -0.13551986919427
C            3.11778536603121       -0.35972353772560       -1.17973600689998
C            2.94450279518789        0.21547598174951        1.21320697137233
H           -3.82578443175042       -0.21545855294704       -0.56103454298112
H           -3.75712852378192        1.53768097145873       -0.30482458609478
H           -3.81864827435113        0.43157767432100        1.07759832952533
H           -1.57865807294130        2.45009081448559       -0.52986785945383
H            0.72463322395855        1.95169397031287       -1.17732572530739
H            0.74297601920183        1.98805946529187        0.58225634265503
H            0.53405589872977       -1.75331642742649        0.97371604671270
H            0.20210008105120       -0.21354436686989        1.78905018610099
H           -1.25811183015271       -2.62124513840782       -0.37600063971721
H            4.19235731833827       -0.39214669334949       -1.11167992484874
H            2.69787208111763       -0.57551591207900       -2.14804750782839
H            2.55055853444021        1.14438895345871        1.61977645429903
H            2.69689199742713       -0.58451450279816        1.90901864960375
H            4.02631247826936        0.29303720094848        1.14877591707984
27
 energy: -33.611812425405 gnorm: 0.000170592839 xtb: 6.7.1 (edcfbbe)
C           -3.42455388763443        0.57524547567267        0.07333714823876
C           -1.92960111469018        0.48957138790307        0.08234091407078
C           -1.14031204358320        1.49861184546308       -0.25840339932792
C            0.35471643787684        1.44253557330424       -0.28493110882280
C            0.85568558235085       -0.00622593723346       -0.26662760083430
H            0.56846367291863       -0.46697013137460       -1.21857998802922
C            0.11561517018230       -0.75288955167862        0.84446577609630
C           -1.36741114617171       -0.85776885275100        0.47885662725153
H           -1.93068834582571       -1.22823426493026        1.35314200350809
O           -1.58827108073404       -1.74362925750110       -0.61291430131382
C            2.35650451601972       -0.06988795631765       -0.13553362788487
C            3.11864547506742       -0.35956032739236       -1.17928909273241
C            2.94378060106101        0.21575354405049        1.21343174376509
H           -3.82691226164984       -0.21652059489214       -0.55701331839998
H           -3.75743810289079        1.53720771681699       -0.30551409824793
H           -3.81773212623641        0.43483249745928        1.07985120581511
H           -1.57848566049845        2.44988043448550       -0.53026333642751
H            0.72448747826809        1.95120751181521       -1.17823250600169
H            0.74319271055110        1.98755833382835        0.58132086244920
H            0.53368906634773       -1.75389240697290        0.97311998598179
H            0.20246325313113       -0.21390448221623        1.78819630434431
H           -1.25763087768744       -2.62064273257181       -0.37789561210680
H            4.19316041165814       -0.39160781914317       -1.11031571845592
H            2.69936380778530       -0.57575732249873       -2.14775680461727
H            2.54883777419729        1.14421359498511        1.62014016517180
H            2.69661742427356       -0.58461748739215        1.90903175758582
H            4.02555821204240        0.29432128721563        1.14960792806917
27
 energy: -33.611812713054 gnorm: 0.000165501999 xtb: 6.7.1 (edcfbbe)
C           -3.42457714842215        0.57566296139628        0.07447591798253
C           -1.92967838962669        0.48962513642103        0.08251842371649
C           -1.14028181342657        1.49831489985644       -0.25898449219217
C            0.35471332303628        1.44206306185452       -0.28558145601366
C            0.85580516290402       -0.00667544794986       -0.26712115472743
H            0.56894312765223       -0.46751792628009       -1.21912763702741
C            0.11555114364522       -0.75319680067788        0.84391746419706
C           -1.36753988192540       -0.85784031289454        0.47864989936015
H           -1.93065451675371       -1.22869791662166        1.35283276078088
O           -1.58881059200210       -1.74331066333393       -0.61349952047177
C            2.35661657390137       -0.06994586383419       -0.13550508941287
C            3.11928079376170       -0.35939630240229       -1.17893007411761
C            2.94330836825925        0.21597930239851        1.21364724428163
H           -3.82777983855262       -0.21723661980994       -0.55389847514815
H           -3.75752966939122        1.53698236172064       -0.30594290508006
H           -3.81683728842216        0.43743183457037        1.08165090215558
H           -1.57837465560725        2.44952528793558       -0.53120571866793
H            0.72472563795702        1.95079045424821       -1.17873678986407
H            0.74301715634129        1.98695745529743        0.58082712427251
H            0.53344703484097       -1.75425214694277        0.97259368362838