23
 energy: -23.157207894922 gnorm: 0.022363092025 xtb: 6.7.1 (edcfbbe)
C           -2.31537754338433        0.27479563417613        0.96389079354731
C           -1.75714806417015        0.50849889078942       -0.43918820165203
C           -0.54834528510087       -0.34114710996490       -0.85180464763577
C            0.79958916109570       -0.15068260287554       -0.11206071540575
C            1.89616446221780       -0.77085339179082       -0.99133630351444
C            1.10817083313932        1.33614146588779        0.09078484490989
C            0.82079584639053       -0.87316160642858        1.24239871569009
H           -3.28508865398878        0.77193042713026        1.07656461723586
H           -2.46404088647845       -0.79355747257193        1.15905148190045
H           -1.65759927153436        0.67019530711566        1.74235507067859
H           -2.55324914524918        0.29721850525485       -1.16465321269141
H           -1.51791982331278        1.57196849976652       -0.56300300812646
H           -0.36399342905192       -0.13196895491817       -1.91463271477074
H           -0.82095848378176       -1.40465320653125       -0.79319541938863
H            1.67777317808300       -1.82476070589126       -1.20133333804544
H            1.97574414323184       -0.24504040808954       -1.94962770138484
H            2.87137054994951       -0.72091649105623       -0.49344998403855
H            1.06077339234860        1.88019485864255       -0.85990360964319
H            2.11584752269852        1.46442201501247        0.50287192118409
H            0.40238534580075        1.80429350141282        0.78537580604636
H            1.81331957088427       -0.78782169672056        1.70089467272573
H            0.09590561267791       -0.45883139798975        1.94667599626648
H            0.60058015218024       -1.93984228483540        1.11745391131084
23
 energy: -23.157993311958 gnorm: 0.007066524642 xtb: 6.7.1 (edcfbbe)
C           -2.31072832143406        0.27151387677602        0.95844465831917
C           -1.75359644147862        0.51231790472670       -0.43869001260107
C           -0.55004273383904       -0.34470973126036       -0.84323731506813
C            0.79588678650052       -0.14847179301025       -0.10936749703138
C            1.89073546367370       -0.76641971368396       -0.98924423757821
C            1.10917883279560        1.33458602158643        0.09220264446774
C            0.82163170647736       -0.87216926731049        1.23968894060841
H           -3.27676956278096        0.76622634153243        1.06122331679169
H           -2.45336315599244       -0.79320028247341        1.14321625126743
H           -1.65445562759179        0.67142810022894        1.72871263510339
H           -2.54871142194421        0.29276321775731       -1.15919082240869
H           -1.50910983608546        1.57167309729061       -0.55334987379809
H           -0.37041460324938       -0.13608390336629       -1.90341351102089
H           -0.82850646175271       -1.40149678511910       -0.77142336149799
H            1.67244948605271       -1.81430164869912       -1.19537966544563
H            1.96916445530285       -0.24169324274975       -1.94109034751240
H            2.85924824757885       -0.71377350950040       -0.49277861935756
H            1.05955736529644        1.87074792687850       -0.85550362254050
H            2.11298429516292        1.45647935596679        0.49903187420651
H            0.40809827508694        1.79495532994655        0.78609026736798
H            1.81096303821188       -0.78664317649950        1.69016779558432
H            0.10090529840988       -0.45587088769453        1.93714483441084
H            0.59959410024441       -1.93143545579856        1.11087464293148
23
 energy: -23.158074656819 gnorm: 0.001418483570 xtb: 6.7.1 (edcfbbe)
C           -2.31021909246753        0.27126174699746        0.95674305776140
C           -1.75118516075061        0.51538264189709       -0.43962534340761
C           -0.54972183659687       -0.34655510151177       -0.84115931522235
C            0.79485068632798       -0.14855494278840       -0.10870663753784
C            1.88936382093279       -0.76482621809926       -0.99062298638948
C            1.10750706879003        1.33446631806560        0.09346128399677
C            0.82232783125990       -0.87199206612377        1.23997185029566
H           -3.27623552611357        0.76209976938022        1.05746976393015
H           -2.44752433618840       -0.79255623480764        1.13549059086546
H           -1.65572983342111        0.67195442065109        1.72541039954167
H           -2.54369218222708        0.29676005925773       -1.16130340489563
H           -1.50177939879907        1.57174736993764       -0.55031220648420
H           -0.37176036049850       -0.14692032982501       -1.90188687048155
H           -0.83239517456663       -1.39914381707823       -0.75611124541985
H            1.67063261711297       -1.81054993028157       -1.19509874844931
H            1.96463315473384       -0.23878311715718       -1.93964952054212
H            2.85522103793537       -0.70941750510486       -0.49381811067397
H            1.05605556402978        1.86788098437206       -0.85304588579961
H            2.11089933294372        1.45180249030108        0.49667039899027
H            0.40974549669833        1.79185558665117        0.78913197498394
H            1.81114814622235       -0.78711649772735        1.68623265478871
H            0.10381768435946       -0.45404622441786        1.93568069255924
H            0.59873964492827       -1.92832762706369        1.10920658278867
23
 energy: -23.158096871068 gnorm: 0.001511432337 xtb: 6.7.1 (edcfbbe)
C           -2.31141881088307        0.27144206213937        0.95437007141919
C           -1.74942564166566        0.51930808629122       -0.44132830728856
C           -0.55109988143872       -0.35050774651765       -0.83819481248642
C            0.79413023659556       -0.14885577885123       -0.10865666465179
C            1.88960013190355       -0.76310605547965       -0.99213233453469
C            1.10673236689150        1.33487951664371        0.09451546143340
C            0.82387003446262       -0.87280246618063        1.24037497119500
H           -3.27891997261037        0.75880797553699        1.05354705279837
H           -2.44450672873873       -0.79302959807435        1.12975599904651
H           -1.65904331926336        0.67314013024433        1.72391436227161
H           -2.54050868718579        0.30562413651614       -1.16529523598842
H           -1.49411428065560        1.57394439465267       -0.54831859529344
H           -0.37448056207446       -0.16137098272357       -1.90056442526438
H           -0.83784429154075       -1.40061079054096       -0.74211119753857
H            1.67129658359293       -1.80855260859079       -1.19639869670645
H            1.96140845364253       -0.23563322036853       -1.94031362858823
H            2.85555644815790       -0.70577344643028       -0.49620253705401
H            1.05117856819732        1.86885417573557       -0.85104440754740
H            2.11153213323355        1.45092079328767        0.49406817062757
H            0.41147619483170        1.78988098908574        0.79376732620167
H            1.81366372197342       -0.78878506672702        1.68384412063261
H            0.10730976603145       -0.45286922231785        1.93674451958045
H            0.59830672118786       -1.92848350180633        1.10978776293442
23
 energy: -23.158110576843 gnorm: 0.000984379302 xtb: 6.7.1 (edcfbbe)
C           -2.31481635201361        0.27286127227989        0.95114607343521
C           -1.74696088974192        0.52237156694586       -0.44239685179681
C           -0.55214733557118       -0.35424761658766       -0.83536324753561
C            0.79440522782731       -0.15000109506816       -0.10847876991892
C            1.88987424166607       -0.76143061430986       -0.99452012727680
C            1.10497364937270        1.33445592175412        0.09562815977236
C            0.82712281126743       -0.87372279542428        1.24122282320298
H           -3.28444170964944        0.75714586541717        1.04814969526685
H           -2.44526085823329       -0.79254417604559        1.12500278474818
H           -1.66566881822901        0.67508371970567        1.72368681995188
H           -2.53696836109928        0.31691752277639       -1.17007233347307
H           -1.48420152763987        1.57570667672348       -0.54495492157544
H           -0.37715304939154       -0.17775972007797       -1.90044612611654
H           -0.84271527926072       -1.40237428267593       -0.72762220001464
H            1.67384603192210       -1.80764341810872       -1.19952704708726
H            1.95883893422662       -0.23273624224619       -1.94272001519510
H            2.85699083815154       -0.70233131325680       -0.50034150587884
H            1.04347190868476        1.87095530304770       -0.84864809061424
H            2.11222039780565        1.45133315629459        0.48986295534002
H            0.41304016080688        1.78743871435193        0.80026794705078
H            1.81831091343317       -0.79108557814108        1.68285819748830
H            0.11229623367360       -0.45237375550001        1.93941635736934
H            0.59964201663743       -1.92959733632999        1.11197839805579
23
 energy: -23.158113334379 gnorm: 0.000368822619 xtb: 6.7.1 (edcfbbe)
C           -2.31641453764581        0.27340879222517        0.94964810644781
C           -1.74576334114926        0.52315988764210       -0.44226555084873
C           -0.55289635093668       -0.35619186153505       -0.83326992971437
C            0.79484120166618       -0.15036500681119       -0.10842040956290
C            1.88985613597497       -0.76062393113301       -0.99508762263673
C            1.10464932377938        1.33389336315152        0.09590518683201
C            0.82862862018367       -0.87402042093799        1.24092233951615
H           -3.28600966134712        0.75821153603105        1.04453226599542
H           -2.44840867043698       -0.79188699680314        1.12388427224115
H           -1.66910808872642        0.67497744249336        1.72425034103626
H           -2.53497324914642        0.32100495416487       -1.17190863577135
H           -1.48027217517487        1.57611652953580       -0.54326582235418
H           -0.37824862426809       -0.18279993693391       -1.89877779659605
H           -0.84392229392998       -1.40394819492392       -0.72298439205310
H            1.67475144329023       -1.80705860834479       -1.20052344920828
H            1.95774940400684       -0.23177688647125       -1.94335017604059
H            2.85764904410930       -0.70111804508800       -0.50205651042108
H            1.03943195459439        1.87154079337394       -0.84755918292764
H            2.11300566203352        1.45221966101223        0.48704699401923
H            0.41450701672104        1.78553954568409        0.80322486863158
H            1.82004234627138       -0.79097675748119        1.68209661893420
H            0.11403099532102       -0.45270316469861        1.93952298226575
H            0.60157302945510       -1.93018091862749        1.11256447741385
23
 energy: -23.158114387207 gnorm: 0.000203490988 xtb: 6.7.1 (edcfbbe)
C           -2.31765552658740        0.27385909460636        0.94908444884724
C           -1.74509500445065        0.52306957839161       -0.44188329116668
C           -0.55273251414913       -0.35653699882336       -0.83284925111378
C            0.79527729289343       -0.15068478737007       -0.10816793885487
C            1.88972463872524       -0.76045875597819       -0.99542724472700
C            1.10437568483503        1.33353472298193        0.09594640194323
C            0.82967252858830       -0.87408381359647        1.24111104143432
H           -3.28659538938277        0.76016665671712        1.04307244657376
H           -2.45159061915509       -0.79127600259294        1.12299000723648
H           -1.67064996741679        0.67403311655301        1.72464909150972
H           -2.53392462934187        0.32207039595316       -1.17228149485418
H           -1.47867429473899        1.57583006061564       -0.54220921551790
H           -0.37834414011157       -0.18412901636712       -1.89856004189298
H           -0.84373227023487       -1.40413372234904       -0.72137840757735
H            1.67493250919236       -1.80691206102942       -1.20098797548198
H            1.95721674228447       -0.23149148436456       -1.94363353407446
H            2.85770421469533       -0.70081024396598       -0.50284448148247
H            1.03680879965644        1.87154118214689       -0.84710043755832
H            2.11348220345305        1.45240966815559        0.48483964659158
H            0.41559139748046        1.78441612419724        0.80501214549737
H            1.82081601343180       -0.79003223592490        1.68264800469009
H            0.11432141895525       -0.45351944076005        1.93933629114489
H            0.60377009602336       -1.93044026167188        1.11276276403172
23
 energy: -23.158114317983 gnorm: 0.000708984857 xtb: 6.7.1 (edcfbbe)
C           -2.31902806832955        0.27434421795385        0.94845967826728
C           -1.74437564148131        0.52298906283961       -0.44147670915868
C           -0.55256595336715       -0.35693367129751       -0.83235807236206
C            0.79575720926825       -0.15102899036181       -0.10789641071369
C            1.88959446400872       -0.76028253927851       -0.99579723648701
C            1.10409180137775        1.33315444033377        0.09599120377427
C            0.83081748234753       -0.87415374592205        1.24131494073212
H           -3.28721031625868        0.76237447217924        1.04148328948087
H           -2.45517873916221       -0.79061182471429        1.12195667853004
H           -1.67231837506370        0.67291236906935        1.72509182531293
H           -2.53278248004521        0.32325706657946       -1.17270919218430
H           -1.47691974079675        1.57553269732932       -0.54105407606577
H           -0.37845760327500       -0.18560862508587       -1.89829009075655
H           -0.84354762150378       -1.40435387640245       -0.71958948548593
H            1.67513397071871       -1.80675478962371       -1.20149430440992
H            1.95664054611364       -0.23118125331685       -1.94394156177095
H            2.85778252952725       -0.70048377843542       -0.50370812513246
H            1.03387738488091        1.87156320477705       -0.84658835129619
H            2.11404743304841        1.45263463727626        0.48235598177297
H            0.41683646014625        1.78318183306556        0.80702205788921
H            1.82165131261898       -0.78892726385336        1.68326850847002
H            0.11459838056493       -0.45445880452424        1.93911586850641
H            0.60625474930739       -1.93074306306280        1.11297255828582
23
 energy: -23.158115302670 gnorm: 0.000355951461 xtb: 6.7.1 (edcfbbe)
C           -2.31904577942788        0.27416608489825        0.94859949492149
C           -1.74482066095749        0.52307444680402       -0.44165557323762
C           -0.55264267870076       -0.35690197741512       -0.83212611697858
C            0.79578149669848       -0.15090341651858       -0.10793262563970
C            1.88979265213177       -0.76050780021719       -0.99571292495986
C            1.10441877327625        1.33340978934299        0.09593488527535
C            0.83066124964195       -0.87412268196441        1.24135904502799
H           -3.28664405157017        0.76329253393690        1.04207254914873
H           -2.45638043567918       -0.79076061520153        1.12145129272734
H           -1.67164270459493        0.67165521779928        1.72524198566144
H           -2.53322595486690        0.32285569089087       -1.17278554613070
H           -1.47762317335167        1.57571175304255       -0.54138016698311
H           -0.37832016981716       -0.18490190897699       -1.89792312016107
H           -0.84359678124093       -1.40446360868367       -0.72013256272594
H            1.67502490927918       -1.80694845401101       -1.20140908231778
H            1.95693136486076       -0.23137397775208       -1.94386183067952
H            2.85800536252422       -0.70093673747597       -0.50356454705633
H            1.03376072701155        1.87176425308290       -0.84667204815610
H            2.11459703454205        1.45283722008753        0.48186409636216
H            0.41742350161290        1.78348777058366        0.80725391855559
H            1.82128213457408       -0.78790478230307        1.68367926215851
H            0.11377609733783       -0.45512740612674        1.93897480049937
H            0.60718627136143       -1.93097961829800        1.11285378988675
23
 energy: -23.158116080112 gnorm: 0.000128802995 xtb: 6.7.1 (edcfbbe)
C           -2.31975584963502        0.27406851292348        0.94839227763017
C           -1.74491703390056        0.52339678591287       -0.44171775913711
C           -0.55273450679039       -0.35718398363182       -0.83169634577180
C            0.79571988344127       -0.15080923678433       -0.10785465094977
C            1.88988237493980       -0.76063919143958       -0.99561863870967
C            1.10477817515253        1.33364273412519        0.09578737264231
C            0.83110917113066       -0.87411051543461        1.24150893223019
H           -3.28580043858400        0.76611842190631        1.04262630622403
H           -2.46040711375742       -0.79068829621980        1.11952838239154
H           -1.67097566592745        0.66844656297622        1.72543855867280
H           -2.53305418743683        0.32315381887919       -1.17308786839325
H           -1.47754686254699        1.57601603418816       -0.54121699140598
H           -0.37838756142302       -0.18535214906154       -1.89754451471570
H           -0.84394826507473       -1.40470406260053       -0.71960875268970
H            1.67467703519988       -1.80696229198915       -1.20146448481843
H            1.95710791014522       -0.23132580386890       -1.94366364641904
H            2.85809181082749       -0.70146754055558       -0.50337225457627
H            1.03194831661828        1.87220121379071       -0.84653898714070
H            2.11576105320564        1.45318043715262        0.47963346484257
H            0.41911025611336        1.78331024782997        0.80865391485036
H            1.82106675204980       -0.78517806816554        1.68483613232372
H            0.11237431163028       -0.45710609683465        1.93843731227703
H            0.61059961926760       -1.93158575757410        1.11267121584110
23
 energy: -23.158115977375 gnorm: 0.000438761322 xtb: 6.7.1 (edcfbbe)
C           -2.32035792370273        0.27396794772526        0.94822224604096
C           -1.74501490929566        0.52368466617257       -0.44178071297929
C           -0.55283062956505       -0.35743980351498       -0.83132758613096
C            0.79565088612703       -0.15070962508645       -0.10779449351468
C            1.88996482416304       -0.76074870631304       -0.99551938604010
C            1.10512753042732        1.33385934804888        0.09566415547525
C            0.83147412460411       -0.87410509349356        1.24162465912099
H           -3.28508616523306        0.76849371409923        1.04310793487992
H           -2.46382347177641       -0.79064581142993        1.11790678865737
H           -1.67040368394742        0.66571992622875        1.72560062759250
H           -2.53292387076009        0.32337369807800       -1.17333922769341
H           -1.47751978313085        1.57629515579487       -0.54111315264441
H           -0.37844920671048       -0.18570946161501       -1.89721133409181
H           -0.84426621774039       -1.40493336364704       -0.71920963214018
H            1.67438248349584       -1.80697583640570       -1.20147249066200
H            1.95724349587038       -0.23130028312107       -1.94348828625502
H            2.85818324398557       -0.70190779856278       -0.50320482673411
H            1.03042648656115        1.87259957225226       -0.84641887975220
H            2.11680246965712        1.45349289150819        0.47773209760231
H            0.42059400145476        1.78317003287248        0.80985756436850
H            1.82087802217804       -0.78288574852930        1.68579753535119
H            0.11118857465140       -0.45876701565262        1.93797962781305
H            0.61345890333176       -1.93210662988443        1.11251574693457
23
 energy: -23.158116374863 gnorm: 0.000157892774 xtb: 6.7.1 (edcfbbe)
C           -2.32052319006998        0.27419059339061        0.94796001841598
C           -1.74479960022498        0.52366949879464       -0.44176070888338
C           -0.55274757144257       -0.35750036514957       -0.83101311691055
C            0.79591465114857       -0.15094509788733       -0.10775554701537
C            1.88996535484553       -0.76068401052051       -0.99583087936531
C            1.10463428392528        1.33363622317351        0.09571672451736
C            0.83174811311803       -0.87408372559608        1.24170024492857
H           -3.28520546174412        0.76881756628865        1.04256820372911
H           -2.46412396084748       -0.79040473919488        1.11752457013816
H           -1.67081848443929        0.66572424104745        1.72565075039214
H           -2.53262596420722        0.32425516501557       -1.17369550328000
H           -1.47663854750392        1.57611094612765       -0.54057168566682
H           -0.37856579701251       -0.18671731398357       -1.89704059537514
H           -0.84429357401645       -1.40479023958401       -0.71789652999768
H            1.67454818880002       -1.80689093504132       -1.20198887956810
H            1.95725861852180       -0.23102784445451       -1.94366670171779
H            2.85812487419650       -0.70182103443425       -0.50349956003606
H            1.02969796410111        1.87241475785576       -0.84629777476252
H            2.11638473913837        1.45331236433556        0.47741212704630
H            0.42033266446438        1.78285420360704        0.81018605960855
H            1.82108590764521       -0.78263744599914        1.68585194594414
H            0.11132092037365       -0.45897351766627        1.93801617292123
H            0.61402505587544       -1.93208751460044        1.11255964013560
23
 energy: -23.158116471584 gnorm: 0.000047795052 xtb: 6.7.1 (edcfbbe)
C           -2.32069058500722        0.27435537695285        0.94779642413588
C           -1.74449609779228        0.52372797939730       -0.44167969141940
C           -0.55280401093813       -0.35776573171788       -0.83101425186437
C            0.79584051294707       -0.15100504463632       -0.10771008317724
C            1.88982880664490       -0.76052418874869       -0.99588517465034
C            1.10445787885432        1.33354286565934        0.09571022247599
C            0.83205711564202       -0.87414368596527        1.24170436778127
H           -3.28527790060466        0.76916970540980        1.04237236016437
H           -2.46449276564800       -0.79021638794654        1.11731091639399
H           -1.67102016778995        0.66566103849069        1.72561110337506
H           -2.53227284993469        0.32475555427335       -1.17377217002852
H           -1.47599111496392        1.57608289750921       -0.54033483981328
H           -0.37874975549861       -0.18765041013816       -1.89716112574862
H           -0.84448634554605       -1.40492639949547       -0.71717034914066
H            1.67441628662424       -1.80667449486467       -1.20232333335844
H            1.95721907827149       -0.23063659523718       -1.94358219320476
H            2.85795361181596       -0.70181294715544       -0.50347493491692
H            1.02947573125120        1.87233690463366       -0.84628609383219
H            2.11617875270578        1.45336209446202        0.47740576332768
H            0.42013117895451        1.78267855392672        0.81017552108740
H            1.82128485076241       -0.78229985148408        1.68600059753484
H            0.11135778276524       -0.45937747296178        1.93790728442890
H            0.61477919112975       -1.93221798483887        1.11252865564778
