17
 energy: -27.194892632294 gnorm: 0.028435999525 xtb: 6.7.1 (edcfbbe)
C           -3.18556798463126       -0.35014566432049        0.00149021129615
O           -2.09482196652298        0.58498795036444       -0.00050220665877
C           -0.82471776275353        0.06793694363123       -0.00025097016042
C           -0.53395110518980       -1.29791174835938        0.00011912097109
C            0.80489235621161       -1.69264566985594        0.00036521722047
C            1.84080579456433       -0.76952039663223        0.00026381016694
C            1.52343983365685        0.59138828840073       -0.00014482924604
C            0.20125772226270        1.01834716571463       -0.00043137955744
O            2.57469717946908        1.48126177118244       -0.00017505008851
H           -4.09177099966334        0.25644693168755        0.00197981929180
H           -3.16340333196405       -0.97741404679674        0.89945314385629
H           -3.16545675567133       -0.97898317423999       -0.89542949830144
H           -1.31783640061184       -2.04364675651614        0.00018575703650
H            1.03919215425513       -2.75266682627257        0.00064580325426
H            2.87884039338350       -1.08273582314230        0.00051727762189
H           -0.04221064026957        2.07681822507748       -0.00069400095311
H            2.23089474420670        2.38575283806665       -0.00034205141207
17
 energy: -27.195946687973 gnorm: 0.013464019076 xtb: 6.7.1 (edcfbbe)
C           -3.18518884513288       -0.34299612061568        0.00147196767372
O           -2.09304708318342        0.57203088551564       -0.00036831175895
C           -0.82385361493542        0.05927676981547       -0.00017652893264
C           -0.52137451690773       -1.29793196287526        0.00016097663342
C            0.80889728676265       -1.69180392700521        0.00036001655218
C            1.83505398608420       -0.76897192332041        0.00024465482511
C            1.52223982795427        0.58863541315491       -0.00013848304125
C            0.20082113748588        1.00509566552734       -0.00037463328570
O            2.56153533483661        1.47884045975493       -0.00021975013838
H           -4.07927382173526        0.27679421489942        0.00193250343569
H           -3.16558767366315       -0.96680978189501        0.89822766463238
H           -3.16753392605022       -0.96822073628846       -0.89434382668115
H           -1.29713694982376       -2.04472927595009        0.00024034363144
H            1.04345803534429       -2.74680931716232        0.00063132699811
H            2.86894701677845       -1.07506384869369        0.00045702119192
H           -0.05299905873232        2.05512291687066       -0.00066641594109
H            2.21932609565001        2.38481057625714       -0.00038835145724
17
 energy: -27.196127464394 gnorm: 0.004475249921 xtb: 6.7.1 (edcfbbe)
C           -3.18346329852984       -0.33662072887831        0.00143934734435
O           -2.09095189372905        0.56605011499026       -0.00021241020272
C           -0.82407984031372        0.05378083954883       -0.00008881142459
C           -0.51542491796399       -1.30022044806854        0.00022808273615
C            0.81262510800441       -1.69395308878943        0.00036682095045
C            1.83430111894809       -0.76899513276246        0.00021387921844
C            1.52406287279438        0.58877048690154       -0.00015255722032
C            0.20106052743560        0.99737129753510       -0.00032318873821
O            2.55364730634092        1.47931315696667       -0.00027672542321
H           -4.07072374984978        0.29141088047174        0.00187891282688
H           -3.17200776314708       -0.96170302842930        0.89673993956681
H           -3.17379863445324       -0.96291799326527       -0.89303163471233
H           -1.28846740017323       -2.04876953073140        0.00033633085078
H            1.04823536448413       -2.74660790475078        0.00061123904260
H            2.86811443074537       -1.06954307212083        0.00037427440178
H           -0.06230386656184        2.04323513735135       -0.00060582032316
H            2.21345786670105        2.38666902202022       -0.00044750455611
17
 energy: -27.196149280032 gnorm: 0.001352219191 xtb: 6.7.1 (edcfbbe)
C           -3.18365534029463       -0.33335005774137        0.00140944870301
O           -2.08971904497742        0.56454601998171       -0.00008512922195
C           -0.82414599801860        0.05122028937759       -0.00001073513575
C           -0.51418349582143       -1.30270063138085        0.00028712595042
C            0.81479076776491       -1.69542943143297        0.00037083034809
C            1.83549803919714       -0.76894271388209        0.00018148998565
C            1.52555285319482        0.58964487719903       -0.00016168575183
C            0.20123480411319        0.99499098537303       -0.00027626817098
O            2.55188510587787        1.48047680845715       -0.00033234662174
H           -4.06942101318394        0.29728106089989        0.00183509332333
H           -3.17678128979914       -0.96018485561676        0.89622986220549
H           -3.17843135052024       -0.96124413643735       -0.89267631030641
H           -1.28700621047586       -2.05242315569723        0.00042617579689
H            1.05172275645914       -2.74775143695858        0.00060357500154
H            2.87041317777596       -1.06754804815970        0.00029515724545
H           -0.06637990104525        2.04023025168444       -0.00054518656771
H            2.21290937048570        2.38845418232343       -0.00050092244592
17
 energy: -27.196152526352 gnorm: 0.000839655584 xtb: 6.7.1 (edcfbbe)
C           -3.18428207366036       -0.33098106089848        0.00136530702316
O           -2.08866763596513        0.56385700594068        0.00010644071613
C           -0.82404694557825        0.04901482676447        0.00010754329739
C           -0.51395973536754       -1.30522550045434        0.00037958602159
C            0.81641186667015       -1.69623111257582        0.00038278241948
C            1.83661044322236       -0.76874463737516        0.00013031291267
C            1.52645250929157        0.59059446751321       -0.00018149137838
C            0.20119406807981        0.99364929559050       -0.00020668638596
O            2.55150982625189        1.48155150785156       -0.00041978975931
H           -4.06958131546752        0.30103834331793        0.00176254921785
H           -3.18060553892256       -0.95920899048767        0.89603032940466
H           -3.18203043273781       -0.96005020090256       -0.89271095648476
H           -1.28676782838984       -2.05582639044302        0.00056606376082
H            1.05501094481079       -2.74855024031013        0.00059321865883
H            2.87251536666109       -1.06648752775639        0.00016923921358
H           -0.06934367793207        2.03881056033051       -0.00044528115577
H            2.21386338976561        2.39005966188409       -0.00057899314439
17
 energy: -27.196153165574 gnorm: 0.000152646144 xtb: 6.7.1 (edcfbbe)
C           -3.18421580864201       -0.33150752717769        0.00135462310033
O           -2.08884924023231        0.56405832929626        0.00016051030250
C           -0.82400067017244        0.04924585780892        0.00013957225291
C           -0.51417686140481       -1.30490360486619        0.00040435104755
C            0.81603891543074       -1.69586689904301        0.00038391071063
C            1.83627038168320       -0.76870045231546        0.00011436262041
C            1.52604005666428        0.59047843184530       -0.00018694137417
C            0.20108546690153        0.99395011199845       -0.00018690217520
O            2.55175864170882        1.48128884620616       -0.00044470651485
H           -4.06964670276727        0.30017463804242        0.00173537843709
H           -3.17972049286336       -0.95935160794521        0.89608357943569
H           -3.18107419841285       -0.96014377412232       -0.89282356582207
H           -1.28689950599980       -2.05528208039481        0.00060570861475
H            1.05458901297173       -2.74818684668125        0.00059264826940
H            2.87188200357771       -1.06681880250272        0.00013276327173
H           -0.06891294344592        2.03907243250551       -0.00041676582027
H            2.21411517573492        2.38976295533502       -0.00059835201886
17
 energy: -27.196153189547 gnorm: 0.000062135634 xtb: 6.7.1 (edcfbbe)
C           -3.18421427007683       -0.33145769717971        0.00127785048854
O           -2.08882404258267        0.56403807447687        0.00034358186946
C           -0.82396744571828        0.04910868121251        0.00033992391213
C           -0.51417351770219       -1.30498245695273        0.00052131333920
C            0.81607189420787       -1.69584321167617        0.00042164586918
C            1.83622923636976       -0.76866766708365        0.00000019278335
C            1.52597324532501        0.59052063127608       -0.00032767835372
C            0.20105438691038        0.99389788962911        0.00005172956025
O            2.55173497722007        1.48125396429011       -0.00065301443446
H           -4.06955821332603        0.30031119144551        0.00158251474728
H           -3.17986405779311       -0.95935082009470        0.89593778241316
H           -3.18095037096960       -0.95996981365700       -0.89295067034740
H           -1.28682653974172       -2.05537348647260        0.00073421073774
H            1.05472380470408       -2.74813023714399        0.00064966418806
H            2.87179672481862       -1.06678462748212       -0.00002725191388
H           -0.06916215357469        2.03891785542249       -0.00017522512240
H            2.21423957266152        2.38978173797936       -0.00067639539892
