      -----------------------------------------------------------      
     |                   =====================                   |     
     |                           x T B                           |     
     |                   =====================                   |     
     |                         S. Grimme                         |     
     |          Mulliken Center for Theoretical Chemistry        |     
     |                    University of Bonn                     |     
      -----------------------------------------------------------      

   * xtb version 6.7.1 (edcfbbe) compiled by 'albert@albert-system' on 2024-07-22

   xtb is free software: you can redistribute it and/or modify it under
   the terms of the GNU Lesser General Public License as published by
   the Free Software Foundation, either version 3 of the License, or
   (at your option) any later version.
   
   xtb is distributed in the hope that it will be useful,
   but WITHOUT ANY WARRANTY; without even the implied warranty of
   MERCHANTABILITY or FITNESS FOR A PARTICULAR PURPOSE.  See the
   GNU Lesser General Public License for more details.
   
   Cite this work as:
   * C. Bannwarth, E. Caldeweyher, S. Ehlert, A. Hansen, P. Pracht,
     J. Seibert, S. Spicher, S. Grimme, WIREs Comput. Mol. Sci., 2020, 11,
     e01493. DOI: 10.1002/wcms.1493
   
   for GFN2-xTB:
   * C. Bannwarth, S. Ehlert and S. Grimme., J. Chem. Theory Comput., 2019,
     15, 1652-1671. DOI: 10.1021/acs.jctc.8b01176
   for GFN1-xTB:
   * S. Grimme, C. Bannwarth, P. Shushkov, J. Chem. Theory Comput., 2017,
     13, 1989-2009. DOI: 10.1021/acs.jctc.7b00118
   for GFN0-xTB:
   * P. Pracht, E. Caldeweyher, S. Ehlert, S. Grimme, ChemRxiv, 2019, preprint.
     DOI: 10.26434/chemrxiv.8326202.v1
   for GFN-FF:
   * S. Spicher and S. Grimme, Angew. Chem. Int. Ed., 2020, 59, 15665-15673.
     DOI: 10.1002/anie.202004239
   
   for ALPB and GBSA implicit solvation:
   * S. Ehlert, M. Stahn, S. Spicher, S. Grimme, J. Chem. Theory Comput.,
     2021, 17, 4250-4261. DOI: 10.1021/acs.jctc.1c00471
   
   for ddCOSMO and CPCM-X implicit solvation:
   * M. Stahn, S. Ehlert, S. Grimme, J. Phys. Chem. A,
     2023, XX, XXXX-XXXX. DOI: 10.1021/acs.jpca.3c04382
   
   for DFT-D4:
   * E. Caldeweyher, C. Bannwarth and S. Grimme, J. Chem. Phys., 2017,
     147, 034112. DOI: 10.1063/1.4993215
   * E. Caldeweyher, S. Ehlert, A. Hansen, H. Neugebauer, S. Spicher,
     C. Bannwarth and S. Grimme, J. Chem. Phys., 2019, 150, 154122.
     DOI: 10.1063/1.5090222
   * E. Caldeweyher, J.-M. Mewes, S. Ehlert and S. Grimme, Phys. Chem. Chem. Phys.
     2020, 22, 8499-8512. DOI: 10.1039/D0CP00502A
   
   for sTDA-xTB:
   * S. Grimme and C. Bannwarth, J. Chem. Phys., 2016, 145, 054103.
     DOI: 10.1063/1.4959605
   
   in the mass-spec context:
   * V. Asgeirsson, C. Bauer and S. Grimme, Chem. Sci., 2017, 8, 4879.
     DOI: 10.1039/c7sc00601b
   * J. Koopman and S. Grimme, ACS Omega 2019, 4, 12, 15120-15133.
     DOI: 10.1021/acsomega.9b02011
   
   for metadynamics refer to:
   * S. Grimme, J. Chem. Theory Comput., 2019, 155, 2847-2862
     DOI: 10.1021/acs.jctc.9b00143
   
   for SPH calculations refer to:
   * S. Spicher and S. Grimme, J. Chem. Theory Comput., 2021, 17, 1701-1714
     DOI: 10.1021/acs.jctc.0c01306
   
   for ONIOM refer to:
   * C. Plett, A. Katbashev, S. Ehlert, S. Grimme, M. Bursch,
     Phys. Chem. Chem. Phys., 2023, 25, 17860-17868. DOI: 10.1039/D3CP02178E
   
   for DIPRO refer to:
   * J. Kohn, N. Gildemeister, S. Grimme, D. Fazzi, A. Hansen,
     J. Chem. Phys., 2023, just accepted.
   
   for PTB refer to:
   * S. Grimme, M. Mueller, A. Hansen, J. Chem. Phys., 2023, 158, 124111.
     DOI: 10.1063/5.0137838
   
   with help from (in alphabetical order)
   P. Atkinson, C. Bannwarth, F. Bohle, G. Brandenburg, E. Caldeweyher
   M. Checinski, S. Dohm, S. Ehlert, S. Ehrlich, I. Gerasimov, C. Hölzer
   A. Katbashev, J. Kohn, J. Koopman, C. Lavigne, S. Lehtola, F. März, M. Müller,
   F. Musil, H. Neugebauer, J. Pisarek, C. Plett, P. Pracht, F. Pultar,
   J. Seibert, P. Shushkov, S. Spicher, M. Stahn, M. Steiner, T. Strunk,
   J. Stückrath, T. Rose, and J. Unsleber
   
 * started run on 2025/04/04 at 23:57:48.054     
   ID    Z sym.   atoms
    1    6 C      1-3, 5, 7
    2    8 O      4, 6
    3    1 H      8-17

           -------------------------------------------------
          |                Calculation Setup                |
           -------------------------------------------------

          program call               : /srv/scratch/z5358697/.xtb/bin/xtb xtb_opt.coord --opt normal --orca -I xtb_opt-xcontrol-inp
          hostname                   : k150
          coordinate file            : xtb_opt.coord
          omp threads                :                     4

           -------------------------------------------------
          |                   Orca driver                   |
           -------------------------------------------------
orca executable           : /apps/z_install_tree/linux-rocky8-ivybridge/gcc-12.2.0/orca-6.0.0-srtngmq3qlimg2qxbl6avaaiffipurdx/bin/orca
orca input file           : xtb_opt.inp
orca input line           : 
orca parallel             : true
orca number of threads    : 4
                         * ORCA takes the control...
  ------------------------------------------------------------------------

                                 *****************
                                 * O   R   C   A *
                                 *****************

                                            #,                                       
                                            ###                                      
                                            ####                                     
                                            #####                                    
                                            ######                                   
                                           ########,                                 
                                     ,,################,,,,,                         
                               ,,#################################,,                 
                          ,,##########################################,,             
                       ,#########################################, ''#####,          
                    ,#############################################,,   '####,        
                  ,##################################################,,,,####,       
                ,###########''''           ''''###############################       
              ,#####''   ,,,,##########,,,,          '''####'''          '####       
            ,##' ,,,,###########################,,,                        '##       
           ' ,,###''''                  '''############,,,                           
         ,,##''                                '''############,,,,        ,,,,,,###''
      ,#''                                            '''#######################'''  
     '                                                          ''''####''''         
             ,#######,   #######,   ,#######,      ##                                
            ,#'     '#,  ##    ##  ,#'     '#,    #''#        ,####,   ,####,        
            ##       ##  ##   ,#'  ##            #'  '#       #'       #'  '#        
            ##       ##  #######   ##           ,######,      #####,   #    #        
            '#,     ,#'  ##    ##  '#,     ,#' ,#      #,     #,   #   #,  ,#        
             '#######'   ##     ##  '#######'  #'      '#     '####' # '####'        



                #########################################################
                #                        -***-                          #
                #          Department of theory and spectroscopy        #
                #                                                       #
                #                      Frank Neese                      #
                #                                                       #
                #     Directorship, Architecture, Infrastructure        #
                #                    SHARK, DRIVERS                     #
                #        Core code/Algorithms in most modules           #
                #                                                       #
                #        Max Planck Institute fuer Kohlenforschung      #
                #                Kaiser Wilhelm Platz 1                 #
                #                 D-45470 Muelheim/Ruhr                 #
                #                      Germany                          #
                #                                                       #
                #                  All rights reserved                  #
                #                        -***-                          #
                #########################################################


                         Program Version 6.0.0  -   RELEASE  -


 With contributions from (in alphabetic order):
   Daniel Aravena         : Magnetic Suceptibility
   Michael Atanasov       : Ab Initio Ligand Field Theory (pilot matlab implementation)
   Alexander A. Auer      : GIAO ZORA, VPT2 properties, NMR spectrum
   Ute Becker             : All parallelization in ORCA, NUMFREQ, NUMCALC
   Giovanni Bistoni       : ED, misc. LED, open-shell LED, HFLD
   Martin Brehm           : Molecular dynamics
   Dmytro Bykov           : pre 5.0 version of the SCF Hessian
   Marcos Casanova-Páez   : Triplet and SCS-CIS(D). UHF-(DLPNO)-IP/EA/STEOM-CCSD. UHF-CVS-IP/STEOM-CCSD
   Vijay G. Chilkuri      : MRCI spin determinant printing, contributions to CSF-ICE
   Pauline Colinet        : FMM embedding
   Dipayan Datta          : RHF DLPNO-CCSD density
   Achintya Kumar Dutta   : EOM-CC, STEOM-CC
   Nicolas Foglia         : Exact transition moments, OPA infrastructure, MCD improvements
   Dmitry Ganyushin       : Spin-Orbit,Spin-Spin,Magnetic field MRCI
   Miquel Garcia          : C-PCM and meta-GGA Hessian, CCSD/C-PCM, Gaussian charge scheme
   Tiago L. C. Gouveia    : GS-ROHF, GS-ROCIS
   Yang Guo               : DLPNO-NEVPT2, F12-NEVPT2, CIM, IAO-localization
   Andreas Hansen         : Spin unrestricted coupled pair/coupled cluster methods
   Ingolf Harden          : AUTO-CI MPn and infrastructure 
   Benjamin Helmich-Paris : MC-RPA, TRAH-(SCF,CASSCF), AVAS, COSX integrals, SCF dyn. polar.
   Lee Huntington         : MR-EOM, pCC
   Robert Izsak           : Overlap fitted RIJCOSX, COSX-SCS-MP3, EOM
   Riya Kayal             : Wick's Theorem for AUTO-CI, AUTO-CI UHF-CCSDT
   Emily Kempfer          : AUTO-CI, RHF CISDT and CCSDT
   Christian Kollmar      : KDIIS, OOCD, Brueckner-CCSD(T), CCSD density, CASPT2, CASPT2-K, improved NEVPT2
   Axel Koslowski         : Symmetry handling
   Simone Kossmann        : Meta GGA functionals, TD-DFT gradient, OOMP2, (MP2 Hessian; deprecated post 5.0)
   Lucas Lang             : DCDCAS
   Marvin Lechner         : AUTO-CI (C++ implementation), FIC-MRCC
   Spencer Leger          : CASSCF response
   Dagmar Lenk            : GEPOL surface, SMD, ORCA-2-JSON
   Dimitrios Liakos       : Extrapolation schemes; Compound Job, initial MDCI parallelization
   Dimitrios Manganas     : Further ROCIS development; embedding schemes. LFT, Crystal Embedding
   Dimitrios Pantazis     : SARC Basis sets
   Anastasios Papadopoulos: AUTO-CI, single reference methods and gradients
   Taras Petrenko         : pre 6.0 DFT Hessian and TD-DFT gradient, (ASA, deprecated), ECA, 1-Electron XAS/XES, NRVS
   Peter Pinski           : DLPNO-MP2, DLPNO-MP2 Gradient
   Christoph Reimann      : Effective Core Potentials
   Marius Retegan         : Local ZFS, SOC
   Christoph Riplinger    : Optimizer, TS searches, QM/MM, DLPNO-CCSD(T), (RO)-DLPNO pert. Triples
   Michael Roemelt        : Original ROCIS implementation
   Masaaki Saitow         : Open-shell DLPNO-CCSD energy and density
   Barbara Sandhoefer     : DKH picture change effects
   Kantharuban Sivalingam : CASSCF convergence/infrastructure, NEVPT2 and variants, FIC-MRCI
   Bernardo de Souza      : ESD, SOC TD-DFT
   Georgi Stoychev        : AutoAux, RI-MP2 NMR, DLPNO-MP2 response, X2C
   Van Anh Tran           : RI-MP2 g-tensors
   Willem Van den Heuvel  : Paramagnetic NMR
   Zikuan Wang            : NOTCH, Electric field optimization 
   Frank Wennmohs         : Technical directorship and infrastructure
   Hang Xu                : AUTO-CI-Response properties 


 We gratefully acknowledge several colleagues who have allowed us to
 interface, adapt or use parts of their codes:
   Stefan Grimme, W. Hujo, H. Kruse, P. Pracht,  : VdW corrections, initial TS optimization,
                  C. Bannwarth, S. Ehlert,         DFT functionals, gCP, sTDA/sTD-DF
                  L. Wittmann, M. Mueller
   Ed Valeev, F. Pavosevic, A. Kumar             : LibInt (2-el integral package), F12 methods
   Garnet Chan, S. Sharma, J. Yang, R. Olivares  : DMRG
   Ulf Ekstrom                                   : XCFun DFT Library
   Mihaly Kallay                                 : mrcc  (arbitrary order and MRCC methods)
   Frank Weinhold                                : gennbo (NPA and NBO analysis)
   Simon Mueller                                 : openCOSMO-RS
   Christopher J. Cramer and Donald G. Truhlar   : smd solvation model
   Lars Goerigk                                  : TD-DFT with DH, B97 family of functionals
   V. Asgeirsson, H. Jonsson                     : NEB implementation
   FAccTs GmbH                                   : IRC, NEB, NEB-TS, DLPNO-Multilevel, CI-OPT
                                                   MM, QMMM, 2- and 3-layer-ONIOM, Crystal-QMMM,
                                                   LR-CPCM, SF, NACMEs, symmetry and pop. for TD-DFT,
                                                   nearIR, NL-DFT gradient (VV10), updates on ESD,
                                                   ML-optimized integration grids, MBIS, APM,
                                                   GOAT, DOCKER, SOLVATOR, interface openCOSMO-RS
   S Lehtola, MJT Oliveira, MAL Marques          : LibXC Library
   Liviu Ungur et al                             : ANISO software


 Your calculation uses the libint2 library for the computation of 2-el integrals
 For citations please refer to: http://libint.valeyev.net

 Your ORCA version has been built with support for libXC version: 6.2.2
 For citations please refer to: https://libxc.gitlab.io

 This ORCA versions uses:
   CBLAS   interface :  Fast vector & matrix operations
   LAPACKE interface :  Fast linear algebra routines
   SCALAPACK package :  Parallel linear algebra routines
   Shared memory     :  Shared parallel matrices
   BLAS/LAPACK       :  OpenBLAS 0.3.27  USE64BITINT DYNAMIC_ARCH NO_AFFINITY SkylakeX SINGLE_THREADED
        Core in use  :  SkylakeX
   Copyright (c) 2011-2014, The OpenBLAS Project




***************************************
The coordinates will be read from file: xtb_opt.xyz
***************************************


Your calculation utilizes the geometrical counterpoise correction gCP
Please cite in your paper:
H.Kruse, S. Grimme J.Chem.Phys., 136, (2012), 154101 
   

Your calculation utilizes the atom-pairwise dispersion correction
based on EEQ partial charges (D4)


Your calculation utilizes the SMD solvation module
Please cite in your paper:
A.V. Marenich, C.J. Cramer, D.G. Truhlar J. Phys. Chem. B, 113, (2009), 6378 

================================================================================

----- Orbital basis set information -----
Your calculation utilizes the basis: def2-mTZVPP
   Stefan Grimme, Andreas Hansen, Sebastian Ehlert, and Jan-Michael Mewes 
   J. Chem. Phys. 154, 064103 (2021). DOI: 10.1063/5.0040021

----- AuxJ basis set information -----
Your calculation utilizes the auxiliary basis: def2/J
   F. Weigend, Phys. Chem. Chem. Phys. 8, 1057 (2006).

================================================================================
                                        WARNINGS
                       Please study these warnings very carefully!
================================================================================

Using LibXC functional ID 497 : Re-regularized SCAN exchange by Furness et al
[ 1]  J. W. Furness, A. D. Kaplan, J. Ning, J. P. Perdew, and J. Sun.,  J. Phys. Chem. Lett. 11, 8208-8215 (2020)
[ 2]  J. W. Furness, A. D. Kaplan, J. Ning, J. P. Perdew, and J. Sun.,  J. Phys. Chem. Lett. 11, 9248-9248 (2020)
Using LibXC functional ID 498 : Re-regularized SCAN correlation by Furness et al
[ 1]  J. W. Furness, A. D. Kaplan, J. Ning, J. P. Perdew, and J. Sun.,  J. Phys. Chem. Lett. 11, 8208-8215 (2020)
[ 2]  J. W. Furness, A. D. Kaplan, J. Ning, J. P. Perdew, and J. Sun.,  J. Phys. Chem. Lett. 11, 9248-9248 (2020)
Using LibXC functional ID 497 : Re-regularized SCAN exchange by Furness et al
[ 1]  J. W. Furness, A. D. Kaplan, J. Ning, J. P. Perdew, and J. Sun.,  J. Phys. Chem. Lett. 11, 8208-8215 (2020)
[ 2]  J. W. Furness, A. D. Kaplan, J. Ning, J. P. Perdew, and J. Sun.,  J. Phys. Chem. Lett. 11, 9248-9248 (2020)
Using LibXC functional ID 498 : Re-regularized SCAN correlation by Furness et al
[ 1]  J. W. Furness, A. D. Kaplan, J. Ning, J. P. Perdew, and J. Sun.,  J. Phys. Chem. Lett. 11, 8208-8215 (2020)
[ 2]  J. W. Furness, A. D. Kaplan, J. Ning, J. P. Perdew, and J. Sun.,  J. Phys. Chem. Lett. 11, 9248-9248 (2020)

================================================================================
                                       INPUT FILE
================================================================================
NAME = xtb_opt.inp
|  1> ! r2scan-3c def2/J RI DEFGRID2 scfconv7 ENGRAD tightSCF miniprint
|  2> %cpcm
|  3>     smd true
|  4>     smdsolvent "water"
|  5> end
|  6> * xyzfile 0 1 xtb_opt.xyz
|  7> 
|  8>                          ****END OF INPUT****
================================================================================

                     *******************************
                     * Energy+Gradient Calculation *
                     *******************************

---------------------------------
CARTESIAN COORDINATES (ANGSTROEM)
---------------------------------
  C      2.182791    1.030613   -0.424045
  C      1.166981   -0.086557   -0.240165
  C      1.618301   -1.120123    0.785219
  O     -0.058921    0.532931    0.213162
  C     -1.216870   -0.032213   -0.090213
  O     -1.320162   -1.047718   -0.750114
  C     -2.372041    0.733706    0.484142
  H      2.358203    1.525980    0.526559
  H      3.115710    0.615997   -0.791251
  H      1.812757    1.761750   -1.137339
  H      0.950571   -0.582667   -1.195287
  H      1.765150   -0.643641    1.751026
  H      2.550273   -1.571834    0.461408
  H      0.865982   -1.899820    0.884182
  H     -3.174309    0.780167   -0.246103
  H     -2.048756    1.726496    0.777229
  H     -2.739299    0.197867    1.356716

----------------------------
CARTESIAN COORDINATES (A.U.)
----------------------------
  NO LB      ZA    FRAG     MASS         X           Y           Z
   0 C     6.0000    0    12.011    4.124878    1.947577   -0.801328
   1 C     6.0000    0    12.011    2.205274   -0.163568   -0.453846
   2 C     6.0000    0    12.011    3.058145   -2.116726    1.483849
   3 O     8.0000    0    15.999   -0.111344    1.007094    0.402818
   4 C     6.0000    0    12.011   -2.299552   -0.060875   -0.170478
   5 O     8.0000    0    15.999   -2.494744   -1.979901   -1.417511
   6 C     6.0000    0    12.011   -4.482508    1.386504    0.914895
   7 H     1.0000    0     1.008    4.456357    2.883683    0.995053
   8 H     1.0000    0     1.008    5.887838    1.164065   -1.495249
   9 H     1.0000    0     1.008    3.425614    3.329225   -2.149259
  10 H     1.0000    0     1.008    1.796320   -1.101080   -2.258766
  11 H     1.0000    0     1.008    3.335649   -1.216305    3.308959
  12 H     1.0000    0     1.008    4.819318   -2.970336    0.871935
  13 H     1.0000    0     1.008    1.636468   -3.590139    1.670861
  14 H     1.0000    0     1.008   -5.998575    1.474303   -0.465068
  15 H     1.0000    0     1.008   -3.871587    3.262604    1.468749
  16 H     1.0000    0     1.008   -5.176524    0.373914    2.563822

------------------------------------------------------------------------------
                   ___                                                        
                  /   \      - P O W E R E D   B Y -                         
                 /     \                                                     
                 |  |  |   _    _      __       _____    __    __             
                 |  |  |  | |  | |    /  \     |  _  \  |  |  /  |          
                  \  \/   | |  | |   /    \    | | | |  |  | /  /          
                 / \  \   | |__| |  /  /\  \   | |_| |  |  |/  /          
                |  |  |   |  __  | /  /__\  \  |    /   |      \           
                |  |  |   | |  | | |   __   |  |    \   |  |\   \          
                \     /   | |  | | |  |  |  |  | |\  \  |  | \   \       
                 \___/    |_|  |_| |__|  |__|  |_| \__\ |__|  \__/        
                                                                              
                      - O R C A' S   B I G   F R I E N D -                    
                                      &                                       
                       - I N T E G R A L  F E E D E R -                       
                                                                              
 v1 FN, 2020, v2 2021, v3 2022-2024                                           
------------------------------------------------------------------------------


----------------------
SHARK INTEGRAL PACKAGE
----------------------

Number of atoms                             ...     17
Number of basis functions                   ...    193
Number of shells                            ...     95
Maximum angular momentum                    ...      2
Integral batch strategy                     ... SHARK/LIBINT Hybrid
RI-J (if used) integral strategy            ... SPLIT-RIJ (Revised 2003 algorithm where possible)
Printlevel                                  ...      1
Contraction scheme used                     ... SEGMENTED contraction
Prescreening option                         ... SCHWARTZ
   Thresh                                   ... 3.000e-11
   Tcut                                     ... 1.000e-12
   Tpresel                                  ... 1.000e-12 
Coulomb Range Separation                    ... NOT USED
Exchange Range Separation                   ... NOT USED
Multipole approximations                    ... NOT USED
Finite Nucleus Model                        ... NOT USED
CABS basis                                  ... NOT available
Auxiliary Coulomb fitting basis             ... AVAILABLE
   # of basis functions in Aux-J            ...    453
   # of shells in Aux-J                     ...    155
   Maximum angular momentum in Aux-J        ...      4
Auxiliary J/K fitting basis                 ... NOT available
Auxiliary Correlation fitting basis         ... NOT available
Auxiliary 'external' fitting basis          ... NOT available

Checking pre-screening integrals            ... done (  0.0 sec) Dimension = 95
Check shell pair data                       ... done (  0.0 sec)
Shell pair information
Shell pair cut-off parameter TPreSel        ...   1.0e-12
Total number of shell pairs                 ...      4560
Shell pairs after pre-screening             ...      4185
Total number of primitive shell pairs       ...     16115
Primitive shell pairs kept                  ...     10736
          la=0 lb=0:   1384 shell pairs
          la=1 lb=0:   1564 shell pairs
          la=1 lb=1:    456 shell pairs
          la=2 lb=0:    469 shell pairs
          la=2 lb=1:    267 shell pairs
          la=2 lb=2:     45 shell pairs

Calculating one electron integrals          ... done (  0.0 sec)
Calculating RI/J V-Matrix + Cholesky decomp.... done (  0.1 sec)
Calculating Nuclear repulsion               ... done (  0.0 sec) ENN=    321.531481606153 Eh

Diagonalization of the overlap matrix:
Smallest eigenvalue                        ... 3.033e-04
Time for diagonalization                   ...    0.004 sec
Threshold for overlap eigenvalues          ... 1.000e-07
Number of eigenvalues below threshold      ... 0
Time for construction of square roots      ...    0.013 sec
Total time needed                          ...    0.023 sec

-------------------
DFT GRID GENERATION
-------------------

General Integration Accuracy     IntAcc      ... 4.388
Radial Grid Type                 RadialGrid  ... OptM3 with GC (2021)
Angular Grid (max. ang.)         AngularGrid ... 4 (Lebedev-302)
Angular grid pruning method      GridPruning ... 4 (adaptive)
Weight generation scheme         WeightScheme... mBecke (2022)
Basis function cutoff            BFCut       ... 1.0000e-11
Integration weight cutoff        WCut        ... 1.0000e-14
Partially contracted basis set               ... off
Rotationally invariant grid construction     ... off
Angular grids for H and He will be reduced by one unit
Diffuse basis detected: some atoms will have their outermost
                        angular grid increased by 1.

Total number of grid points                  ...    75116
Total number of batches                      ...     1181
Average number of points per batch           ...       63
Average number of grid points per atom       ...     4419
Initializing property integral containers    ... done (  0.0 sec)

SHARK setup successfully completed in   1.0 seconds

Maximum memory used throughout the entire STARTUP-calculation: 33.9 MB
Occupation numbers will be reassigned to an Aufbau configuration
             **** ENERGY FILE WAS UPDATED (xtb_opt.en.tmp) ****
Finished Guess after   0.2 sec
Maximum memory used throughout the entire GUESS-calculation: 13.2 MB
--------------------
CPCM SOLVATION MODEL
--------------------
CPCM parameters:
  Epsilon                                         ...      78.3550
  Refrac                                          ...       1.3328
  Rsolv                                           ...       1.3000
  Surface type                                    ... GAUSSIAN VDW
  Discretization scheme                           ... Constant charge density
    Threshold for H atoms                         ...       5.0000 (charges/Ang^2)
    Threshold for non-H atoms                     ...       5.0000 (charges/Ang^2)
  Epsilon function type                           ...         CPCM
Solvent:                                          ... WATER
SMD-CDS solvent descriptors:
  Soln                                            ...       1.3328
  Soln25                                          ...       1.3323
  Sola                                            ...       0.0000
  Solb                                            ...       0.0000
  Solg                                            ...       0.0000
  Solc                                            ...       0.0000
  Solh                                            ...       0.0000
Radii:
  Scheme                                          ... Element-dependent radii
  Radius for C  used is    3.4960 Bohr (=   1.8500 Ang.)
  Radius for O  used is    2.8724 Bohr (=   1.5200 Ang.)
  Radius for H  used is    2.2677 Bohr (=   1.2000 Ang.)
Calculating surface                               ...        done! (  0.0s)
Cavity surface points                             ...         1300
Cavity Volume                                     ...     763.4366
Cavity Surface-area                               ...     519.5017
Calculating surface distance matrix               ...        done! (  0.0s)
Performing Cholesky decomposition & store         ...        done! (  0.1s)
Overall time for CPCM initialization              ...                 0.1s

----------------------------------------D-I-I-S--------------------------------------------
Iteration    Energy (Eh)           Delta-E    RMSDP     MaxDP     DIISErr   Damp  Time(sec)
-------------------------------------------------------------------------------------------
               ***  Starting incremental Fock matrix formation  ***
                              *** Initializing SOSCF ***
---------------------------------------S-O-S-C-F--------------------------------------
Iteration    Energy (Eh)           Delta-E    RMSDP     MaxDP     MaxGrad    Time(sec)
--------------------------------------------------------------------------------------
    1    -346.9625575953998009     0.00e+00  8.58e-06  2.92e-04  4.84e-05     2.5
               *** Restarting incremental Fock matrix formation ***
    2    -346.9625575054428168     9.00e-08  1.32e-05  4.66e-04  1.33e-04     2.4
    3    -346.9625564945633300     1.01e-06  9.07e-06  3.14e-04  2.73e-04     1.8
    4    -346.9625579071362722    -1.41e-06  1.88e-06  5.31e-05  1.91e-05     1.7
                  *** Gradient check signals convergence ***

               *****************************************************
               *                     SUCCESS                       *
               *           SCF CONVERGED AFTER   4 CYCLES          *
               *****************************************************


SMD CDS free energy correction energy :                 5.02932     Kcal/mol
Total Energy after SMD CDS correction =              -346.954543182 Eh
             **** ENERGY FILE WAS UPDATED (xtb_opt.en.tmp) ****

----------------
TOTAL SCF ENERGY
----------------

Total Energy       :       -346.95454318169089 Eh           -9441.11310 eV

Components:
Nuclear Repulsion  :        321.53148160615325 Eh            8749.31642 eV
Electronic Energy  :       -668.47782737780790 Eh          -18190.20646 eV
One Electron Energy:      -1108.54360847856651 Eh          -30165.00515 eV
Two Electron Energy:        440.06578110075861 Eh           11974.79869 eV
CPCM Dielectric    :         -0.01621213548160 Eh              -0.44115 eV
SMD CDS (Gcds)     :          0.00801472544537 Eh               0.21809 eV

Virial components:
Potential Energy   :       -692.48581684844794 Eh          -18843.49706 eV
Kinetic Energy     :        345.53127366675704 Eh            9402.38396 eV
Virial Ratio       :          2.00411907582150

DFT components:
N(Alpha)           :       28.000003896270 electrons
N(Beta)            :       28.000003896270 electrons
N(Total)           :       56.000007792539 electrons
E(X)               :      -46.162732575637 Eh       
E(C)               :       -1.788807515506 Eh       
E(XC)              :      -47.951540091142 Eh       

CPCM Solvation Model Properties:
Surface-charge          :         -0.04370398414728
Corrected charge        :         -0.00000000000000
Outlying charge corr.   :          0.00015314395508 Eh               0.00417 eV
Free-energy (cav+disp)  :          0.00801472544537 Eh               0.21809 eV

---------------
SCF CONVERGENCE
---------------

  Last Energy change         ...    1.4126e-06  Tolerance :   1.0000e-07
  Last MAX-Density change    ...    5.3148e-05  Tolerance :   1.0000e-07
  Last RMS-Density change    ...    1.8754e-06  Tolerance :   5.0000e-09
  Last DIIS Error            ...    4.1937e-04  Tolerance :   1.0000e-07
  Last Orbital Gradient      ...    1.9069e-05  Tolerance :   1.0000e-04
  Last Orbital Rotation      ...    6.9343e-05  Tolerance :   1.0000e-04


----------------
ORBITAL ENERGIES
----------------

  NO   OCC          E(Eh)            E(eV) 
   0   2.0000     -19.000521      -517.0305 
   1   2.0000     -18.941315      -515.4194 
   2   2.0000     -10.165090      -276.6062 
   3   2.0000     -10.091146      -274.5940 
   4   2.0000     -10.029511      -272.9169 
   5   2.0000     -10.016431      -272.5610 
   6   2.0000     -10.016279      -272.5568 
   7   2.0000      -1.078108       -29.3368 
   8   2.0000      -0.987384       -26.8681 
   9   2.0000      -0.767243       -20.8777 
  10   2.0000      -0.705523       -19.1982 
  11   2.0000      -0.656854       -17.8739 
  12   2.0000      -0.595734       -16.2107 
  13   2.0000      -0.519687       -14.1414 
  14   2.0000      -0.465459       -12.6658 
  15   2.0000      -0.449495       -12.2314 
  16   2.0000      -0.443689       -12.0734 
  17   2.0000      -0.408940       -11.1278 
  18   2.0000      -0.387684       -10.5494 
  19   2.0000      -0.379425       -10.3247 
  20   2.0000      -0.365209        -9.9378 
  21   2.0000      -0.356418        -9.6986 
  22   2.0000      -0.346175        -9.4199 
  23   2.0000      -0.330959        -9.0058 
  24   2.0000      -0.322126        -8.7655 
  25   2.0000      -0.298976        -8.1356 
  26   2.0000      -0.276179        -7.5152 
  27   2.0000      -0.251105        -6.8329 
  28   0.0000      -0.020201        -0.5497 
  29   0.0000       0.080176         2.1817 
  30   0.0000       0.103705         2.8220 
  31   0.0000       0.127269         3.4632 
  32   0.0000       0.139605         3.7988 
  33   0.0000       0.142326         3.8729 
  34   0.0000       0.145624         3.9626 
  35   0.0000       0.158738         4.3195 
  36   0.0000       0.165972         4.5163 
  37   0.0000       0.172463         4.6930 
  38   0.0000       0.180871         4.9217 
*Only the first 10 virtual orbitals were printed.
Total SCF time: 0 days 0 hours 0 min 8 sec 
Finished LeanSCF after   9.0 sec

Maximum memory used throughout the entire LEANSCF-calculation: 24.3 MB


-------------------------------------------------------------------------------
                          DFT DISPERSION CORRECTION                            
                                                                               
                                DFTD4 V3.4.0                                   
-------------------------------------------------------------------------------
-------------------------   ----------------
Dispersion correction           -0.004086519
-------------------------   ----------------

------------------   -----------------
gCP correction             0.010344944
------------------   -----------------

-------------------------   --------------------
FINAL SINGLE POINT ENERGY      -346.948284756105
-------------------------   --------------------

------------------------------------------------------------------------------
                         ORCA SCF GRADIENT CALCULATION
------------------------------------------------------------------------------

Nuc. rep. gradient        (SHARK) ... done (  0.0 sec)
HCore & Overlap gradient  (SHARK) ... done (  0.2 sec)
Split-RIJ-J gradient      (SHARK) ... done (  1.0 sec)
XC gradient                       ... done (  4.0 sec)
CPCM gradient                     ... done (  0.6 sec)
SMD gradient                      ... done (  0.0 sec)
Dispersion correction             ... done (  0.0 sec)

-------------------
DISPERSION GRADIENT
-------------------

   1   C   :    0.000074777    0.000040641   -0.000019604
   2   C   :    0.000041125   -0.000008783   -0.000012101
   3   C   :    0.000056372   -0.000048070    0.000029948
   4   O   :   -0.000008335    0.000011471   -0.000000798
   5   C   :   -0.000074441   -0.000002406   -0.000007707
   6   O   :   -0.000060956   -0.000041911   -0.000036738
   7   C   :   -0.000090770    0.000028752    0.000017022
   8   H   :    0.000027614    0.000022478    0.000000058
   9   H   :    0.000027319    0.000014021   -0.000011326
  10   H   :    0.000026945    0.000027901   -0.000017407
  11   H   :    0.000009184   -0.000006264   -0.000010765
  12   H   :    0.000023806   -0.000015510    0.000024668
  13   H   :    0.000024379   -0.000023384    0.000010293
  14   H   :    0.000014277   -0.000030780    0.000013648
  15   H   :   -0.000025804    0.000006492    0.000000292
  16   H   :   -0.000034031    0.000019042    0.000009895
  17   H   :   -0.000031464    0.000006309    0.000010623

Difference to translation invariance:
           :   -0.0000000000   -0.0000000000    0.0000000000

Difference to rotation invariance:
           :    0.0000000000   -0.0000000000    0.0000000000

Norm of the Dispersion gradient    ...    0.0002230902
RMS gradient                       ...    0.0000312389
MAX gradient                       ...    0.0000907695
gCP correction                   ... done

------------------
CARTESIAN GRADIENT
------------------

   1   C   :    0.010644180    0.004698578   -0.001106006
   2   C   :   -0.013931345    0.009289847    0.005886259
   3   C   :    0.007684884   -0.005376461    0.005210896
   4   O   :   -0.007056190   -0.013984248   -0.008836482
   5   C   :    0.012523012   -0.002323798   -0.001773239
   6   O   :    0.002817490    0.010190523    0.005711799
   7   C   :   -0.006086823    0.002084350    0.003347726
   8   H   :   -0.002458704   -0.002813582   -0.004504448
   9   H   :   -0.004451768    0.001819698    0.001519459
  10   H   :    0.000365712   -0.003515443    0.003650790
  11   H   :   -0.001860199   -0.001983107   -0.001097365
  12   H   :   -0.001670678   -0.001604206   -0.004630207
  13   H   :   -0.004642390    0.002143567    0.001341451
  14   H   :    0.001814969    0.003731470   -0.001384202
  15   H   :    0.002894678   -0.000436130    0.002532241
  16   H   :    0.001974890   -0.004111677   -0.001871182
  17   H   :    0.001438284    0.002190619   -0.003997490

Difference to translation invariance:
           :   -0.0000000000    0.0000000000   -0.0000000000

Difference to rotation invariance:
           :   -0.0000688796   -0.0000900883    0.0000088128

Norm of the Cartesian gradient     ...    0.0385056918
RMS gradient                       ...    0.0053918753
MAX gradient                       ...    0.0139842481

-------
TIMINGS
-------

Total SCF gradient time     ....        6.327 sec

Densities                   ....       0.000 sec  (  0.0%)
One electron gradient       ....       0.186 sec  (  2.9%)
RI-J Coulomb gradient       ....       1.003 sec  ( 15.9%)
XC gradient                 ....       4.020 sec  ( 63.5%)
CPCM gradient               ....       0.594 sec  (  9.4%)
   A-Matrix (El+Nuc)        ....       0.052 sec  (  0.8%)
   Potential                ....       0.542 sec  (  8.6%)
SMD gradient                ....       0.011 sec  (  0.2%)

Maximum memory used throughout the entire SCFGRAD-calculation: 33.3 MB

------------------------------------------------------------------------------
                              ORCA PROPERTY CALCULATIONS
------------------------------------------------------------------------------

GBWName                                 ... xtb_opt.gbw
Number of atoms                         ...     17
Number of basis functions               ...    193
Max core memory                         ...   1024 MB

Electric properties:
Dipole moment                           ... YES
Quadrupole moment                       ...  NO
Static polarizability (Dipole/Dipole)   ...  NO
Static polarizability (Dipole/Quad.)    ...  NO
Static polarizability (Quad./Quad.)     ...  NO
Static polarizability (Velocity)        ...  NO

Atomic electric properties:
Dipole moment                           ...  NO
Quadrupole moment                       ...  NO
Static polarizability                   ...  NO

Choice of electric origin               ... Center of mass
Position of electric origin             ...     0.000020     0.000007     0.000008

General magnetic properties:
Magnetizability                         ...  NO

EPR properties:
g-Tensor (aka g-matrix)                 ...  NO
Zero-Field splitting spin-orbit         ...  NO
Zero-field splitting spin-spin          ...  NO
Hyperfine couplings                     ...  NO (   0 nuclei)
Quadrupole couplings                    ...  NO (   0 nuclei)
Contact density                         ...  NO (   0 nuclei)

NMR properties:
Chemical shifts                         ...  NO (   0 nuclei)
Spin-rotation constants                 ...  NO (   0 nuclei)
Spin-spin couplings                     ...  NO (   0 nuclei,    0 pairs)

Choice of magnetic origin               ... GIAO
Position of magnetic origin             ...     0.000000     0.000000     0.000000

Properties with geometric perturbations:
SCF Hessian                             ...  NO
IR spectrum                             ...  NO
VCD spectrum                            ...  NO
X-ray spectroscopy properties:
SCF XES/XAS/RIXS spectra                ...  NO


-------------
DIPOLE MOMENT
-------------

Method             : SCF
Type of density    : Electron Density
Multiplicity       :   1
Irrep              :   0
Energy             :  -346.9545431816908945 Eh
Relativity type    : 
Basis              : AO
                                X                 Y                 Z
Electronic contribution:     -4.477247884      -0.953355582      -1.653520522
Nuclear contribution   :      5.098458027       1.784542946       2.231574258
                        -----------------------------------------
Total Dipole Moment    :      0.621210143       0.831187364       0.578053736
                        -----------------------------------------
Magnitude (a.u.)       :      1.187821787
Magnitude (Debye)      :      3.019203042



--------------------
Rotational spectrum 
--------------------
 
Rotational constants in cm-1:             0.158914             0.055537             0.049109 
Rotational constants in MHz :          4764.133452          1664.966770          1472.249721 

Dipole components along the rotational axes: 
x,y,z [a.u.] :     0.621204    -0.831181     0.578070 
x,y,z [Debye]:     1.578975    -2.112694     1.469337 

 

Dipole moment calculation done in   0.0 sec 

Maximum memory used throughout the entire PROP-calculation: 11.7 MB

--------------------------------
SUGGESTED CITATIONS FOR THIS RUN
--------------------------------

Below you find a list of papers that are relevant to this ORCA run
We neither can nor want to force you to cite these papers, but we appreciate if you do
You receive ORCA, which is the product of decades of hard work by many enthusiastic individuals, for free
The only thing we kindly ask in return is that you cite our papers,
We deeply appreciate it, if you show your appreciation for ORCA by not just citing the generic ORCA reference.

Please note that relegating all ORCA citations to the supporting information does *not* help us.
SI sections are not indexed - citations you put there will not count into any citation statistics
But we need these citations in order to attract the funding resources that allow us to do what we are doing

Therefore, if you are a happy ORCA user, please consider citing a few of the papers listed below in the main body of your paper

In addition to the list printed below, the program has created the file xtb_opt.bibtex that contains the list in bibtex format
You can import this file easily into all common literature databanks and citation aid programs


List of essential papers. We consider these as the minimum necessary citations

  1. Neese,F.
     Software update: the ORCA program system, version 5.0
     WIRES Comput. Molec. Sci., 2022 12(1)e1606
     doi.org/10.1002/wcms.1606
  2. Grimme,S.; Hansen,A.; Ehlert,S.; Mewes,J.
     r2SCAN-3c: A 'Swiss army knife' composite electronic-structure method
     J. Chem. Phys., 2021 154 064103
     doi.org/10.1063/5.0040021

List of papers to cite with high priority. The work reported in these papers was absolutely
necessary for this run to complete.
Our perspective: the developers of density functionals and basis sets usually get cited in chemistry papers
Good! But without the algorithms to do something with them, the functionals or basis sets would not do anything.
Hence, in our opinion, the algorithm design and method developments papers are equally worthy of getting cited

  1. Neese,F.
     An improvement of the resolution of the identity approximation for the formation of the Coulomb matrix
     J. Comp. Chem., 2003 24(14)1740-1747
     doi.org/10.1002/jcc.10318
  2. Garcia-Rates,M.; Neese,F.
     Effect of the Solute Cavity on the Solvation Energy and its Derivatives within the Framework of the Gaussian Charge Scheme
     J. Comput. Chem., 2020 41 922-939
     doi.org/10.1002/jcc.26139
  3. Neese,F.
     The SHARK Integral Generation and Digestion System
     J. Comp. Chem., 2022  1-16
     doi.org/10.1002/jcc.26942
  4. Lehtola,S.; Steigemann,C.; Oliveira,M.; Marques,M.
     Recent developments in Libxc - A comprehensive library of functionals for density functional theory
     Software X, 2018 7 
     doi.org/10.1016/j.softx.2017.11.002
  5. Caldeweyher,E.; Bannwarth,C.; Grimme,S.
     Extension of the D3 dispersion coefficient model
     J. Chem. Phys., 2017 147 034112-XXXX
     doi.org/10.1063/1.4993215
  6. Caldeweyher,E.; Ehlert,S.; Hansen,A.; Neugebauer,H.; Spicher,S.; Bannwarth,C.; Grimme,S.
     A generally applicable atomic-charge dependent London dispersion correction
     J. Chem. Phys., 2019 150 154122-XXXX
     doi.org/10.1063/1.5090222
  7. Caldeweyher,E.; Mewes,J.; Ehlert,S.; Grimme,S.
     Extension and evaluation of the D4 London-dispersion model for periodic systems
     Phys. Chem. Chem. Phys., 2020 22(16)8499-8512
     doi.org/10.1039/D0CP00502A

List of suggested additional citations. These are papers that are important in the 'surrounding' of 
of this run, or papers that preceded the highly important papers. If you like your results we are grateful for a citation.

  1. Neese,F.
     The ORCA program system
     WIRES Comput. Molec. Sci., 2012 2(1)73-78
     doi.org/10.1002/wcms.81
  2. Neese,F.
     Software update: the ORCA program system, version 4.0
     WIRES Comput. Molec. Sci., 2018 8(1)1-6
     doi.org/10.1002/wcms.1327
  3. Neese,F.; Wennmohs,F.; Becker,U.; Riplinger,C.
     The ORCA quantum chemistry program package
     J. Chem. Phys., 2020 152 Art. No. L224108
     doi.org/10.1063/5.0004608

List of optional additional citations

  1. Neese,F.
     Approximate second-order SCF convergence for spin unrestricted wavefunctions
     Chem. Phys. Lett., 2000 325(1-3)93-98
     doi.org/10.1016/s0009-2614(00)00662-x

Timings for individual modules:

Sum of individual times          ...       16.709 sec (=   0.278 min)
Startup calculation              ...        0.998 sec (=   0.017 min)   6.0 %
SCF iterations                   ...        9.221 sec (=   0.154 min)  55.2 %
Property calculations            ...        0.082 sec (=   0.001 min)   0.5 %
SCF Gradient evaluation          ...        6.407 sec (=   0.107 min)  38.3 %
                             ****ORCA TERMINATED NORMALLY****
TOTAL RUN TIME: 0 days 0 hours 0 minutes 17 seconds 337 msec
  ------------------------------------------------------------------------
          * successful ORCA run, taking over control again...

         :::::::::::::::::::::::::::::::::::::::::::::::::::::
         ::                  ORCA SUMMARY                   ::
         :::::::::::::::::::::::::::::::::::::::::::::::::::::
         :: total energy            -346.948284756105 Eh    ::
         :: gradient norm              0.038505691822 Eh/a0 ::
         :: HOMO-LUMO gap              0.000000000000 eV    ::
         :::::::::::::::::::::::::::::::::::::::::::::::::::::

      ----------------------------------------------------------- 
     |                       L-ANC optimizer                     |
      ----------------------------------------------------------- 
          low memory version by Sebastian Ehlert

          ...................................................
          :                      SETUP                      :
          :.................................................:
          :   energy convergence        0.5000000E-05 Eh    :
          :   grad. convergence         0.1000000E-02 Eh/a0 :
          :   optimization log               true           :
          :   writing optlog all                1     steps :
          :   Hessian reset                     8     steps :
          :   maximium step len.        1.0000000     a0    :
          :   LBFGS images                      8           :
          ...................................................
 * calculating model hessian...
Using Lindh-Hessian (1995)
 Shifting diagonal of input Hessian by   1.000000000000000E-002
 Lowest  eigenvalues of input Hessian
    0.000000    0.000000    0.000000    0.000000    0.000000    0.000000
    0.012644    0.014125    0.017316    0.020661    0.021748    0.022559
    0.026206    0.041686    0.045691    0.053689    0.063796    0.065701
 Highest eigenvalues
    1.197384    1.233353    1.281241    1.297907    1.819110    2.338740
 

........................................................................
.............................. CYCLE    1 ..............................
........................................................................
                         * ORCA takes the control...
  ------------------------------------------------------------------------

                                 *****************
                                 * O   R   C   A *
                                 *****************

                                            #,                                       
                                            ###                                      
                                            ####                                     
                                            #####                                    
                                            ######                                   
                                           ########,                                 
                                     ,,################,,,,,                         
                               ,,#################################,,                 
                          ,,##########################################,,             
                       ,#########################################, ''#####,          
                    ,#############################################,,   '####,        
                  ,##################################################,,,,####,       
                ,###########''''           ''''###############################       
              ,#####''   ,,,,##########,,,,          '''####'''          '####       
            ,##' ,,,,###########################,,,                        '##       
           ' ,,###''''                  '''############,,,                           
         ,,##''                                '''############,,,,        ,,,,,,###''
      ,#''                                            '''#######################'''  
     '                                                          ''''####''''         
             ,#######,   #######,   ,#######,      ##                                
            ,#'     '#,  ##    ##  ,#'     '#,    #''#        ,####,   ,####,        
            ##       ##  ##   ,#'  ##            #'  '#       #'       #'  '#        
            ##       ##  #######   ##           ,######,      #####,   #    #        
            '#,     ,#'  ##    ##  '#,     ,#' ,#      #,     #,   #   #,  ,#        
             '#######'   ##     ##  '#######'  #'      '#     '####' # '####'        



                #########################################################
                #                        -***-                          #
                #          Department of theory and spectroscopy        #
                #                                                       #
                #                      Frank Neese                      #
                #                                                       #
                #     Directorship, Architecture, Infrastructure        #
                #                    SHARK, DRIVERS                     #
                #        Core code/Algorithms in most modules           #
                #                                                       #
                #        Max Planck Institute fuer Kohlenforschung      #
                #                Kaiser Wilhelm Platz 1                 #
                #                 D-45470 Muelheim/Ruhr                 #
                #                      Germany                          #
                #                                                       #
                #                  All rights reserved                  #
                #                        -***-                          #
                #########################################################


                         Program Version 6.0.0  -   RELEASE  -


 With contributions from (in alphabetic order):
   Daniel Aravena         : Magnetic Suceptibility
   Michael Atanasov       : Ab Initio Ligand Field Theory (pilot matlab implementation)
   Alexander A. Auer      : GIAO ZORA, VPT2 properties, NMR spectrum
   Ute Becker             : All parallelization in ORCA, NUMFREQ, NUMCALC
   Giovanni Bistoni       : ED, misc. LED, open-shell LED, HFLD
   Martin Brehm           : Molecular dynamics
   Dmytro Bykov           : pre 5.0 version of the SCF Hessian
   Marcos Casanova-Páez   : Triplet and SCS-CIS(D). UHF-(DLPNO)-IP/EA/STEOM-CCSD. UHF-CVS-IP/STEOM-CCSD
   Vijay G. Chilkuri      : MRCI spin determinant printing, contributions to CSF-ICE
   Pauline Colinet        : FMM embedding
   Dipayan Datta          : RHF DLPNO-CCSD density
   Achintya Kumar Dutta   : EOM-CC, STEOM-CC
   Nicolas Foglia         : Exact transition moments, OPA infrastructure, MCD improvements
   Dmitry Ganyushin       : Spin-Orbit,Spin-Spin,Magnetic field MRCI
   Miquel Garcia          : C-PCM and meta-GGA Hessian, CCSD/C-PCM, Gaussian charge scheme
   Tiago L. C. Gouveia    : GS-ROHF, GS-ROCIS
   Yang Guo               : DLPNO-NEVPT2, F12-NEVPT2, CIM, IAO-localization
   Andreas Hansen         : Spin unrestricted coupled pair/coupled cluster methods
   Ingolf Harden          : AUTO-CI MPn and infrastructure 
   Benjamin Helmich-Paris : MC-RPA, TRAH-(SCF,CASSCF), AVAS, COSX integrals, SCF dyn. polar.
   Lee Huntington         : MR-EOM, pCC
   Robert Izsak           : Overlap fitted RIJCOSX, COSX-SCS-MP3, EOM
   Riya Kayal             : Wick's Theorem for AUTO-CI, AUTO-CI UHF-CCSDT
   Emily Kempfer          : AUTO-CI, RHF CISDT and CCSDT
   Christian Kollmar      : KDIIS, OOCD, Brueckner-CCSD(T), CCSD density, CASPT2, CASPT2-K, improved NEVPT2
   Axel Koslowski         : Symmetry handling
   Simone Kossmann        : Meta GGA functionals, TD-DFT gradient, OOMP2, (MP2 Hessian; deprecated post 5.0)
   Lucas Lang             : DCDCAS
   Marvin Lechner         : AUTO-CI (C++ implementation), FIC-MRCC
   Spencer Leger          : CASSCF response
   Dagmar Lenk            : GEPOL surface, SMD, ORCA-2-JSON
   Dimitrios Liakos       : Extrapolation schemes; Compound Job, initial MDCI parallelization
   Dimitrios Manganas     : Further ROCIS development; embedding schemes. LFT, Crystal Embedding
   Dimitrios Pantazis     : SARC Basis sets
   Anastasios Papadopoulos: AUTO-CI, single reference methods and gradients
   Taras Petrenko         : pre 6.0 DFT Hessian and TD-DFT gradient, (ASA, deprecated), ECA, 1-Electron XAS/XES, NRVS
   Peter Pinski           : DLPNO-MP2, DLPNO-MP2 Gradient
   Christoph Reimann      : Effective Core Potentials
   Marius Retegan         : Local ZFS, SOC
   Christoph Riplinger    : Optimizer, TS searches, QM/MM, DLPNO-CCSD(T), (RO)-DLPNO pert. Triples
   Michael Roemelt        : Original ROCIS implementation
   Masaaki Saitow         : Open-shell DLPNO-CCSD energy and density
   Barbara Sandhoefer     : DKH picture change effects
   Kantharuban Sivalingam : CASSCF convergence/infrastructure, NEVPT2 and variants, FIC-MRCI
   Bernardo de Souza      : ESD, SOC TD-DFT
   Georgi Stoychev        : AutoAux, RI-MP2 NMR, DLPNO-MP2 response, X2C
   Van Anh Tran           : RI-MP2 g-tensors
   Willem Van den Heuvel  : Paramagnetic NMR
   Zikuan Wang            : NOTCH, Electric field optimization 
   Frank Wennmohs         : Technical directorship and infrastructure
   Hang Xu                : AUTO-CI-Response properties 


 We gratefully acknowledge several colleagues who have allowed us to
 interface, adapt or use parts of their codes:
   Stefan Grimme, W. Hujo, H. Kruse, P. Pracht,  : VdW corrections, initial TS optimization,
                  C. Bannwarth, S. Ehlert,         DFT functionals, gCP, sTDA/sTD-DF
                  L. Wittmann, M. Mueller
   Ed Valeev, F. Pavosevic, A. Kumar             : LibInt (2-el integral package), F12 methods
   Garnet Chan, S. Sharma, J. Yang, R. Olivares  : DMRG
   Ulf Ekstrom                                   : XCFun DFT Library
   Mihaly Kallay                                 : mrcc  (arbitrary order and MRCC methods)
   Frank Weinhold                                : gennbo (NPA and NBO analysis)
   Simon Mueller                                 : openCOSMO-RS
   Christopher J. Cramer and Donald G. Truhlar   : smd solvation model
   Lars Goerigk                                  : TD-DFT with DH, B97 family of functionals
   V. Asgeirsson, H. Jonsson                     : NEB implementation
   FAccTs GmbH                                   : IRC, NEB, NEB-TS, DLPNO-Multilevel, CI-OPT
                                                   MM, QMMM, 2- and 3-layer-ONIOM, Crystal-QMMM,
                                                   LR-CPCM, SF, NACMEs, symmetry and pop. for TD-DFT,
                                                   nearIR, NL-DFT gradient (VV10), updates on ESD,
                                                   ML-optimized integration grids, MBIS, APM,
                                                   GOAT, DOCKER, SOLVATOR, interface openCOSMO-RS
   S Lehtola, MJT Oliveira, MAL Marques          : LibXC Library
   Liviu Ungur et al                             : ANISO software


 Your calculation uses the libint2 library for the computation of 2-el integrals
 For citations please refer to: http://libint.valeyev.net

 Your ORCA version has been built with support for libXC version: 6.2.2
 For citations please refer to: https://libxc.gitlab.io

 This ORCA versions uses:
   CBLAS   interface :  Fast vector & matrix operations
   LAPACKE interface :  Fast linear algebra routines
   SCALAPACK package :  Parallel linear algebra routines
   Shared memory     :  Shared parallel matrices
   BLAS/LAPACK       :  OpenBLAS 0.3.27  USE64BITINT DYNAMIC_ARCH NO_AFFINITY SkylakeX SINGLE_THREADED
        Core in use  :  SkylakeX
   Copyright (c) 2011-2014, The OpenBLAS Project




***************************************
The coordinates will be read from file: xtb_opt.xyz
***************************************


Your calculation utilizes the geometrical counterpoise correction gCP
Please cite in your paper:
H.Kruse, S. Grimme J.Chem.Phys., 136, (2012), 154101 
   

Your calculation utilizes the atom-pairwise dispersion correction
based on EEQ partial charges (D4)


Your calculation utilizes the SMD solvation module
Please cite in your paper:
A.V. Marenich, C.J. Cramer, D.G. Truhlar J. Phys. Chem. B, 113, (2009), 6378 

================================================================================

----- Orbital basis set information -----
Your calculation utilizes the basis: def2-mTZVPP
   Stefan Grimme, Andreas Hansen, Sebastian Ehlert, and Jan-Michael Mewes 
   J. Chem. Phys. 154, 064103 (2021). DOI: 10.1063/5.0040021

----- AuxJ basis set information -----
Your calculation utilizes the auxiliary basis: def2/J
   F. Weigend, Phys. Chem. Chem. Phys. 8, 1057 (2006).

================================================================================
                                        WARNINGS
                       Please study these warnings very carefully!
================================================================================

WARNING: Old DensityContainer found on disk!
         Will remove this file - 
         If you want to keep old densities, please start your calculation with a different basename. 

Using LibXC functional ID 497 : Re-regularized SCAN exchange by Furness et al
[ 1]  J. W. Furness, A. D. Kaplan, J. Ning, J. P. Perdew, and J. Sun.,  J. Phys. Chem. Lett. 11, 8208-8215 (2020)
[ 2]  J. W. Furness, A. D. Kaplan, J. Ning, J. P. Perdew, and J. Sun.,  J. Phys. Chem. Lett. 11, 9248-9248 (2020)
Using LibXC functional ID 498 : Re-regularized SCAN correlation by Furness et al
[ 1]  J. W. Furness, A. D. Kaplan, J. Ning, J. P. Perdew, and J. Sun.,  J. Phys. Chem. Lett. 11, 8208-8215 (2020)
[ 2]  J. W. Furness, A. D. Kaplan, J. Ning, J. P. Perdew, and J. Sun.,  J. Phys. Chem. Lett. 11, 9248-9248 (2020)
Using LibXC functional ID 497 : Re-regularized SCAN exchange by Furness et al
[ 1]  J. W. Furness, A. D. Kaplan, J. Ning, J. P. Perdew, and J. Sun.,  J. Phys. Chem. Lett. 11, 8208-8215 (2020)
[ 2]  J. W. Furness, A. D. Kaplan, J. Ning, J. P. Perdew, and J. Sun.,  J. Phys. Chem. Lett. 11, 9248-9248 (2020)
Using LibXC functional ID 498 : Re-regularized SCAN correlation by Furness et al
[ 1]  J. W. Furness, A. D. Kaplan, J. Ning, J. P. Perdew, and J. Sun.,  J. Phys. Chem. Lett. 11, 8208-8215 (2020)
[ 2]  J. W. Furness, A. D. Kaplan, J. Ning, J. P. Perdew, and J. Sun.,  J. Phys. Chem. Lett. 11, 9248-9248 (2020)

================================================================================
                                       INPUT FILE
================================================================================
NAME = xtb_opt.inp
|  1> ! r2scan-3c def2/J RI DEFGRID2 scfconv7 ENGRAD tightSCF miniprint
|  2> %cpcm
|  3>     smd true
|  4>     smdsolvent "water"
|  5> end
|  6> * xyzfile 0 1 xtb_opt.xyz
|  7> 
|  8>                          ****END OF INPUT****
================================================================================

                     *******************************
                     * Energy+Gradient Calculation *
                     *******************************

---------------------------------
CARTESIAN COORDINATES (ANGSTROEM)
---------------------------------
  C      2.181013    1.032041   -0.424724
  C      1.179345   -0.093107   -0.247112
  C      1.611902   -1.124155    0.783713
  O     -0.049695    0.541447    0.212321
  C     -1.219413   -0.027110   -0.091245
  O     -1.328113   -1.054324   -0.743942
  C     -2.374199    0.736033    0.484462
  H      2.365340    1.531411    0.529879
  H      3.120989    0.617209   -0.791894
  H      1.816860    1.767843   -1.145205
  H      0.970120   -0.578672   -1.205866
  H      1.767161   -0.645353    1.754075
  H      2.550025   -1.580448    0.462401
  H      0.860590   -1.910388    0.890531
  H     -3.181890    0.774210   -0.247216
  H     -2.075388    1.739852    0.782910
  H     -2.738285    0.194446    1.362038

----------------------------
CARTESIAN COORDINATES (A.U.)
----------------------------
  NO LB      ZA    FRAG     MASS         X           Y           Z
   0 C     6.0000    0    12.011    4.121518    1.950275   -0.802613
   1 C     6.0000    0    12.011    2.228638   -0.175947   -0.466973
   2 C     6.0000    0    12.011    3.046054   -2.124346    1.481002
   3 O     8.0000    0    15.999   -0.093910    1.023187    0.401228
   4 C     6.0000    0    12.011   -2.304357   -0.051231   -0.172429
   5 O     8.0000    0    15.999   -2.509770   -1.992384   -1.405846
   6 C     6.0000    0    12.011   -4.486586    1.390900    0.915500
   7 H     1.0000    0     1.008    4.469845    2.893947    1.001326
   8 H     1.0000    0     1.008    5.897814    1.166355   -1.496463
   9 H     1.0000    0     1.008    3.433367    3.340740   -2.164124
  10 H     1.0000    0     1.008    1.833260   -1.093532   -2.278757
  11 H     1.0000    0     1.008    3.339450   -1.219540    3.314722
  12 H     1.0000    0     1.008    4.818849   -2.986614    0.873811
  13 H     1.0000    0     1.008    1.626279   -3.610110    1.682859
  14 H     1.0000    0     1.008   -6.012901    1.463045   -0.467171
  15 H     1.0000    0     1.008   -3.921914    3.287845    1.479485
  16 H     1.0000    0     1.008   -5.174608    0.367450    2.573878

------------------------------------------------------------------------------
                   ___                                                        
                  /   \      - P O W E R E D   B Y -                         
                 /     \                                                     
                 |  |  |   _    _      __       _____    __    __             
                 |  |  |  | |  | |    /  \     |  _  \  |  |  /  |          
                  \  \/   | |  | |   /    \    | | | |  |  | /  /          
                 / \  \   | |__| |  /  /\  \   | |_| |  |  |/  /          
                |  |  |   |  __  | /  /__\  \  |    /   |      \           
                |  |  |   | |  | | |   __   |  |    \   |  |\   \          
                \     /   | |  | | |  |  |  |  | |\  \  |  | \   \       
                 \___/    |_|  |_| |__|  |__|  |_| \__\ |__|  \__/        
                                                                              
                      - O R C A' S   B I G   F R I E N D -                    
                                      &                                       
                       - I N T E G R A L  F E E D E R -                       
                                                                              
 v1 FN, 2020, v2 2021, v3 2022-2024                                           
------------------------------------------------------------------------------


----------------------
SHARK INTEGRAL PACKAGE
----------------------

Number of atoms                             ...     17
Number of basis functions                   ...    193
Number of shells                            ...     95
Maximum angular momentum                    ...      2
Integral batch strategy                     ... SHARK/LIBINT Hybrid
RI-J (if used) integral strategy            ... SPLIT-RIJ (Revised 2003 algorithm where possible)
Printlevel                                  ...      1
Contraction scheme used                     ... SEGMENTED contraction
Prescreening option                         ... SCHWARTZ
   Thresh                                   ... 3.000e-11
   Tcut                                     ... 1.000e-12
   Tpresel                                  ... 1.000e-12 
Coulomb Range Separation                    ... NOT USED
Exchange Range Separation                   ... NOT USED
Multipole approximations                    ... NOT USED
Finite Nucleus Model                        ... NOT USED
CABS basis                                  ... NOT available
Auxiliary Coulomb fitting basis             ... AVAILABLE
   # of basis functions in Aux-J            ...    453
   # of shells in Aux-J                     ...    155
   Maximum angular momentum in Aux-J        ...      4
Auxiliary J/K fitting basis                 ... NOT available
Auxiliary Correlation fitting basis         ... NOT available
Auxiliary 'external' fitting basis          ... NOT available

Checking pre-screening integrals            ... done (  0.0 sec) Dimension = 95
Check shell pair data                       ... done (  0.0 sec)
Shell pair information
Shell pair cut-off parameter TPreSel        ...   1.0e-12
Total number of shell pairs                 ...      4560
Shell pairs after pre-screening             ...      4182
Total number of primitive shell pairs       ...     16115
Primitive shell pairs kept                  ...     10715
          la=0 lb=0:   1384 shell pairs
          la=1 lb=0:   1562 shell pairs
          la=1 lb=1:    455 shell pairs
          la=2 lb=0:    469 shell pairs
          la=2 lb=1:    267 shell pairs
          la=2 lb=2:     45 shell pairs

Calculating one electron integrals          ... done (  0.0 sec)
Calculating RI/J V-Matrix + Cholesky decomp.... done (  0.1 sec)
Calculating Nuclear repulsion               ... done (  0.0 sec) ENN=    320.567678939554 Eh

Diagonalization of the overlap matrix:
Smallest eigenvalue                        ... 3.012e-04
Time for diagonalization                   ...    0.003 sec
Threshold for overlap eigenvalues          ... 1.000e-07
Number of eigenvalues below threshold      ... 0
Time for construction of square roots      ...    0.014 sec
Total time needed                          ...    0.025 sec

-------------------
DFT GRID GENERATION
-------------------

General Integration Accuracy     IntAcc      ... 4.388
Radial Grid Type                 RadialGrid  ... OptM3 with GC (2021)
Angular Grid (max. ang.)         AngularGrid ... 4 (Lebedev-302)
Angular grid pruning method      GridPruning ... 4 (adaptive)
Weight generation scheme         WeightScheme... mBecke (2022)
Basis function cutoff            BFCut       ... 1.0000e-11
Integration weight cutoff        WCut        ... 1.0000e-14
Partially contracted basis set               ... off
Rotationally invariant grid construction     ... off
Angular grids for H and He will be reduced by one unit
Diffuse basis detected: some atoms will have their outermost
                        angular grid increased by 1.

Total number of grid points                  ...    75134
Total number of batches                      ...     1182
Average number of points per batch           ...       63
Average number of grid points per atom       ...     4420
Initializing property integral containers    ... done (  0.0 sec)

SHARK setup successfully completed in   0.9 seconds

Maximum memory used throughout the entire STARTUP-calculation: 33.9 MB
Occupation numbers will be reassigned to an Aufbau configuration
             **** ENERGY FILE WAS UPDATED (xtb_opt.en.tmp) ****
Finished Guess after   0.2 sec
Maximum memory used throughout the entire GUESS-calculation: 13.2 MB
--------------------
CPCM SOLVATION MODEL
--------------------
CPCM parameters:
  Epsilon                                         ...      78.3550
  Refrac                                          ...       1.3328
  Rsolv                                           ...       1.3000
  Surface type                                    ... GAUSSIAN VDW
  Discretization scheme                           ... Constant charge density
    Threshold for H atoms                         ...       5.0000 (charges/Ang^2)
    Threshold for non-H atoms                     ...       5.0000 (charges/Ang^2)
  Epsilon function type                           ...         CPCM
Solvent:                                          ... WATER
SMD-CDS solvent descriptors:
  Soln                                            ...       1.3328
  Soln25                                          ...       1.3323
  Sola                                            ...       0.0000
  Solb                                            ...       0.0000
  Solg                                            ...       0.0000
  Solc                                            ...       0.0000
  Solh                                            ...       0.0000
Radii:
  Scheme                                          ... Element-dependent radii
  Radius for C  used is    3.4960 Bohr (=   1.8500 Ang.)
  Radius for O  used is    2.8724 Bohr (=   1.5200 Ang.)
  Radius for H  used is    2.2677 Bohr (=   1.2000 Ang.)
Calculating surface                               ...        done! (  0.0s)
Cavity surface points                             ...         1302
Cavity Volume                                     ...     765.7550
Cavity Surface-area                               ...     521.1560
Calculating surface distance matrix               ...        done! (  0.0s)
Performing Cholesky decomposition & store         ...        done! (  0.1s)
Overall time for CPCM initialization              ...                 0.1s

----------------------------------------D-I-I-S--------------------------------------------
Iteration    Energy (Eh)           Delta-E    RMSDP     MaxDP     DIISErr   Damp  Time(sec)
-------------------------------------------------------------------------------------------
               ***  Starting incremental Fock matrix formation  ***
    1    -346.9631025181079735     0.00e+00  7.61e-05  1.20e-03  6.26e-03  0.700   2.2
    2    -346.9632262040382216    -1.24e-04  6.71e-05  9.21e-04  4.12e-03  0.700   1.9
                               ***Turning on AO-DIIS***
                              *** Initializing SOSCF ***
---------------------------------------S-O-S-C-F--------------------------------------
Iteration    Energy (Eh)           Delta-E    RMSDP     MaxDP     MaxGrad    Time(sec)
--------------------------------------------------------------------------------------
    3    -346.9633153283960496    -8.91e-05  1.70e-04  2.27e-03  2.96e-03     2.1
               *** Restarting incremental Fock matrix formation ***
    4    -346.9635191264941909    -2.04e-04  4.17e-05  1.40e-03  3.07e-04     2.3
    5    -346.9635099043185278     9.22e-06  2.79e-05  9.24e-04  9.47e-04     1.9
    6    -346.9635224520052930    -1.25e-05  1.29e-05  3.06e-04  1.20e-04     1.8
    7    -346.9635219248403359     5.27e-07  8.03e-06  2.03e-04  1.35e-04     1.8
    8    -346.9635227550158447    -8.30e-07  2.13e-06  5.15e-05  2.63e-05     1.8
    9    -346.9635227371475708     1.79e-08  1.32e-06  3.09e-05  4.04e-05     1.7
                 **** Energy Check signals convergence ****

               *****************************************************
               *                     SUCCESS                       *
               *           SCF CONVERGED AFTER   9 CYCLES          *
               *****************************************************


SMD CDS free energy correction energy :                 4.97734     Kcal/mol
Total Energy after SMD CDS correction =              -346.955590843 Eh
             **** ENERGY FILE WAS UPDATED (xtb_opt.en.tmp) ****

----------------
TOTAL SCF ENERGY
----------------

Total Energy       :       -346.95559084296366 Eh           -9441.14161 eV

Components:
Nuclear Repulsion  :        320.56767893955436 Eh            8723.09002 eV
Electronic Energy  :       -667.51471887638263 Eh          -18163.99894 eV
One Electron Energy:      -1106.69094187489623 Eh          -30114.59152 eV
Two Electron Energy:        439.17622299851365 Eh           11950.59258 eV
CPCM Dielectric    :         -0.01648280031924 Eh              -0.44852 eV
SMD CDS (Gcds)     :          0.00793189418394 Eh               0.21584 eV

Virial components:
Potential Energy   :       -692.36626333245113 Eh          -18840.24384 eV
Kinetic Energy     :        345.41067248948752 Eh            9399.10224 eV
Virial Ratio       :          2.00447270011184

DFT components:
N(Alpha)           :       28.000005740202 electrons
N(Beta)            :       28.000005740202 electrons
N(Total)           :       56.000011480404 electrons
E(X)               :      -46.131599064294 Eh       
E(C)               :       -1.787401968680 Eh       
E(XC)              :      -47.919001032975 Eh       

CPCM Solvation Model Properties:
Surface-charge          :         -0.04392324673975
Corrected charge        :         -0.00000000000000
Outlying charge corr.   :          0.00015447552423 Eh               0.00420 eV
Free-energy (cav+disp)  :          0.00793189418394 Eh               0.21584 eV

---------------
SCF CONVERGENCE
---------------

  Last Energy change         ...   -1.7868e-08  Tolerance :   1.0000e-07
  Last MAX-Density change    ...    3.0887e-05  Tolerance :   1.0000e-07
  Last RMS-Density change    ...    1.3247e-06  Tolerance :   5.0000e-09
  Last DIIS Error            ...    2.9557e-03  Tolerance :   1.0000e-07
  Last Orbital Gradient      ...    4.0380e-05  Tolerance :   1.0000e-04
  Last Orbital Rotation      ...    3.4959e-05  Tolerance :   1.0000e-04


----------------
ORBITAL ENERGIES
----------------

  NO   OCC          E(Eh)            E(eV) 
   0   2.0000     -18.999809      -517.0111 
   1   2.0000     -18.942749      -515.4584 
   2   2.0000     -10.167082      -276.6604 
   3   2.0000     -10.091582      -274.6059 
   4   2.0000     -10.031788      -272.9788 
   5   2.0000     -10.018461      -272.6162 
   6   2.0000     -10.018336      -272.6128 
   7   2.0000      -1.071758       -29.1640 
   8   2.0000      -0.984531       -26.7905 
   9   2.0000      -0.766220       -20.8499 
  10   2.0000      -0.705039       -19.1851 
  11   2.0000      -0.656345       -17.8600 
  12   2.0000      -0.591689       -16.1007 
  13   2.0000      -0.520103       -14.1527 
  14   2.0000      -0.465690       -12.6721 
  15   2.0000      -0.446799       -12.1580 
  16   2.0000      -0.442221       -12.0334 
  17   2.0000      -0.409147       -11.1335 
  18   2.0000      -0.387155       -10.5350 
  19   2.0000      -0.377963       -10.2849 
  20   2.0000      -0.363687        -9.8964 
  21   2.0000      -0.355420        -9.6715 
  22   2.0000      -0.344064        -9.3624 
  23   2.0000      -0.329372        -8.9627 
  24   2.0000      -0.322977        -8.7887 
  25   2.0000      -0.300561        -8.1787 
  26   2.0000      -0.276574        -7.5260 
  27   2.0000      -0.251661        -6.8480 
  28   0.0000      -0.023437        -0.6378 
  29   0.0000       0.079203         2.1552 
  30   0.0000       0.098983         2.6935 
  31   0.0000       0.126365         3.4386 
  32   0.0000       0.138755         3.7757 
  33   0.0000       0.141353         3.8464 
  34   0.0000       0.144806         3.9404 
  35   0.0000       0.158028         4.3002 
  36   0.0000       0.164946         4.4884 
  37   0.0000       0.172292         4.6883 
  38   0.0000       0.180576         4.9137 
*Only the first 10 virtual orbitals were printed.
Total SCF time: 0 days 0 hours 0 min 17 sec 
Finished LeanSCF after  18.0 sec

Maximum memory used throughout the entire LEANSCF-calculation: 24.3 MB


-------------------------------------------------------------------------------
                          DFT DISPERSION CORRECTION                            
                                                                               
                                DFTD4 V3.4.0                                   
-------------------------------------------------------------------------------
-------------------------   ----------------
Dispersion correction           -0.004077773
-------------------------   ----------------

------------------   -----------------
gCP correction             0.010196543
------------------   -----------------

-------------------------   --------------------
FINAL SINGLE POINT ENERGY      -346.949472072336
-------------------------   --------------------

------------------------------------------------------------------------------
                         ORCA SCF GRADIENT CALCULATION
------------------------------------------------------------------------------

Nuc. rep. gradient        (SHARK) ... done (  0.0 sec)
HCore & Overlap gradient  (SHARK) ... done (  0.2 sec)
Split-RIJ-J gradient      (SHARK) ... done (  1.0 sec)
XC gradient                       ... done (  4.1 sec)
CPCM gradient                     ... done (  0.6 sec)
SMD gradient                      ... done (  0.0 sec)
Dispersion correction             ... done (  0.0 sec)

-------------------
DISPERSION GRADIENT
-------------------

   1   C   :    0.000074753    0.000040911   -0.000019718
   2   C   :    0.000041024   -0.000008302   -0.000011911
   3   C   :    0.000056329   -0.000048451    0.000030227
   4   O   :   -0.000006864    0.000011352   -0.000001198
[...]
N(Beta)            :       28.000008194175 electrons
N(Total)           :       56.000016388350 electrons
E(X)               :      -46.119377294025 Eh       
E(C)               :       -1.786838279465 Eh       
E(XC)              :      -47.906215573489 Eh       

CPCM Solvation Model Properties:
Surface-charge          :         -0.04392551636371
Corrected charge        :          0.00000000000000
Outlying charge corr.   :          0.00015450542988 Eh               0.00420 eV
Free-energy (cav+disp)  :          0.00783424920388 Eh               0.21318 eV

---------------
SCF CONVERGENCE
---------------

  Last Energy change         ...   -2.6500e-10  Tolerance :   1.0000e-07
  Last MAX-Density change    ...    1.0721e-04  Tolerance :   1.0000e-07
  Last RMS-Density change    ...    2.9396e-06  Tolerance :   5.0000e-09
  Last DIIS Error            ...    8.7890e-05  Tolerance :   1.0000e-07
  Last Orbital Gradient      ...    2.1800e-05  Tolerance :   1.0000e-04
  Last Orbital Rotation      ...    8.6093e-05  Tolerance :   1.0000e-04


----------------
ORBITAL ENERGIES
----------------

  NO   OCC          E(Eh)            E(eV) 
   0   2.0000     -18.998751      -516.9823 
   1   2.0000     -18.943107      -515.4681 
   2   2.0000     -10.167091      -276.6606 
   3   2.0000     -10.092207      -274.6229 
   4   2.0000     -10.032355      -272.9943 
   5   2.0000     -10.019027      -272.6316 
   6   2.0000     -10.018832      -272.6263 
   7   2.0000      -1.066705       -29.0265 
   8   2.0000      -0.982450       -26.7338 
   9   2.0000      -0.765395       -20.8275 
  10   2.0000      -0.705544       -19.1988 
  11   2.0000      -0.656396       -17.8614 
  12   2.0000      -0.587518       -15.9872 
  13   2.0000      -0.519181       -14.1276 
  14   2.0000      -0.465919       -12.6783 
  15   2.0000      -0.445413       -12.1203 
  16   2.0000      -0.440876       -11.9968 
  17   2.0000      -0.410821       -11.1790 
  18   2.0000      -0.386789       -10.5251 
  19   2.0000      -0.377880       -10.2826 
  20   2.0000      -0.363069        -9.8796 
  21   2.0000      -0.354764        -9.6536 
  22   2.0000      -0.343325        -9.3423 
  23   2.0000      -0.327858        -8.9215 
  24   2.0000      -0.323072        -8.7912 
  25   2.0000      -0.301916        -8.2156 
  26   2.0000      -0.277500        -7.5512 
  27   2.0000      -0.251509        -6.8439 
  28   0.0000      -0.024354        -0.6627 
  29   0.0000       0.078369         2.1325 
  30   0.0000       0.092254         2.5104 
  31   0.0000       0.125419         3.4128 
  32   0.0000       0.138598         3.7714 
  33   0.0000       0.141468         3.8495 
  34   0.0000       0.145314         3.9542 
  35   0.0000       0.157868         4.2958 
  36   0.0000       0.164858         4.4860 
  37   0.0000       0.172940         4.7059 
  38   0.0000       0.180679         4.9165 
*Only the first 10 virtual orbitals were printed.
Total SCF time: 0 days 0 hours 0 min 5 sec 
Finished LeanSCF after   5.5 sec

Maximum memory used throughout the entire LEANSCF-calculation: 24.3 MB


-------------------------------------------------------------------------------
                          DFT DISPERSION CORRECTION                            
                                                                               
                                DFTD4 V3.4.0                                   
-------------------------------------------------------------------------------
-------------------------   ----------------
Dispersion correction           -0.004075408
-------------------------   ----------------

------------------   -----------------
gCP correction             0.010149090
------------------   -----------------

-------------------------   --------------------
FINAL SINGLE POINT ENERGY      -346.949860275150
-------------------------   --------------------

------------------------------------------------------------------------------
                         ORCA SCF GRADIENT CALCULATION
------------------------------------------------------------------------------

Nuc. rep. gradient        (SHARK) ... done (  0.0 sec)
HCore & Overlap gradient  (SHARK) ... done (  0.2 sec)
Split-RIJ-J gradient      (SHARK) ... done (  1.1 sec)
XC gradient                       ... done (  4.5 sec)
CPCM gradient                     ... done (  0.6 sec)
SMD gradient                      ... done (  0.0 sec)
Dispersion correction             ... done (  0.0 sec)

-------------------
DISPERSION GRADIENT
-------------------

   1   C   :    0.000074844    0.000040487   -0.000019276
   2   C   :    0.000039568   -0.000006770   -0.000011869
   3   C   :    0.000055343   -0.000048401    0.000029413
   4   O   :   -0.000005394    0.000011884   -0.000002639
   5   C   :   -0.000074693   -0.000002096   -0.000006961
   6   O   :   -0.000060086   -0.000042657   -0.000034138
   7   C   :   -0.000091074    0.000028277    0.000016962
   8   H   :    0.000027174    0.000022324   -0.000000063
   9   H   :    0.000026837    0.000013821   -0.000010888
  10   H   :    0.000026471    0.000027330   -0.000016846
  11   H   :    0.000009734   -0.000005628   -0.000011176
  12   H   :    0.000023642   -0.000015461    0.000024181
  13   H   :    0.000023905   -0.000024017    0.000010168
  14   H   :    0.000013452   -0.000030276    0.000012942
  15   H   :   -0.000025362    0.000006087    0.000000374
  16   H   :   -0.000032901    0.000018656    0.000009320
  17   H   :   -0.000031461    0.000006442    0.000010496

Difference to translation invariance:
           :    0.0000000000    0.0000000000   -0.0000000000

Difference to rotation invariance:
           :    0.0000000000    0.0000000000   -0.0000000000

Norm of the Dispersion gradient    ...    0.0002211553
RMS gradient                       ...    0.0000309679
MAX gradient                       ...    0.0000910740
gCP correction                   ... done

------------------
CARTESIAN GRADIENT
------------------

   1   C   :   -0.000083893   -0.000012266    0.000000556
   2   C   :   -0.000010648    0.000063339    0.000016612
   3   C   :   -0.000030321   -0.000019539   -0.000037219
   4   O   :   -0.000010257   -0.000031994   -0.000049983
   5   C   :    0.000156780   -0.000021672    0.000085312
   6   O   :   -0.000050096   -0.000001525   -0.000011516
   7   C   :    0.000014949   -0.000030931    0.000000655
   8   H   :    0.000038804    0.000005676    0.000009521
   9   H   :    0.000018660   -0.000011400   -0.000030046
  10   H   :    0.000010934    0.000019051   -0.000007266
  11   H   :    0.000013957    0.000003579   -0.000003941
  12   H   :    0.000000917    0.000023145    0.000023048
  13   H   :    0.000008635    0.000000042    0.000001991
  14   H   :    0.000002636   -0.000011599    0.000016207
  15   H   :   -0.000029829    0.000044044   -0.000065272
  16   H   :   -0.000009934    0.000039322    0.000051722
  17   H   :   -0.000041294   -0.000057272   -0.000000381

Difference to translation invariance:
           :   -0.0000000000    0.0000000000   -0.0000000000

Difference to rotation invariance:
           :    0.0001750679    0.0000491746    0.0001527189

Norm of the Cartesian gradient     ...    0.0002752644
RMS gradient                       ...    0.0000385447
MAX gradient                       ...    0.0001567802

-------
TIMINGS
-------

Total SCF gradient time     ....        6.971 sec

Densities                   ....       0.000 sec  (  0.0%)
One electron gradient       ....       0.195 sec  (  2.8%)
RI-J Coulomb gradient       ....       1.093 sec  ( 15.7%)
XC gradient                 ....       4.496 sec  ( 64.5%)
CPCM gradient               ....       0.647 sec  (  9.3%)
   A-Matrix (El+Nuc)        ....       0.057 sec  (  0.8%)
   Potential                ....       0.590 sec  (  8.5%)
SMD gradient                ....       0.011 sec  (  0.2%)

Maximum memory used throughout the entire SCFGRAD-calculation: 33.3 MB

------------------------------------------------------------------------------
                              ORCA PROPERTY CALCULATIONS
------------------------------------------------------------------------------

GBWName                                 ... xtb_opt.gbw
Number of atoms                         ...     17
Number of basis functions               ...    193
Max core memory                         ...   1024 MB

Electric properties:
Dipole moment                           ... YES
Quadrupole moment                       ...  NO
Static polarizability (Dipole/Dipole)   ...  NO
Static polarizability (Dipole/Quad.)    ...  NO
Static polarizability (Quad./Quad.)     ...  NO
Static polarizability (Velocity)        ...  NO

Atomic electric properties:
Dipole moment                           ...  NO
Quadrupole moment                       ...  NO
Static polarizability                   ...  NO

Choice of electric origin               ... Center of mass
Position of electric origin             ...     0.006466     0.011148     0.006173

General magnetic properties:
Magnetizability                         ...  NO

EPR properties:
g-Tensor (aka g-matrix)                 ...  NO
Zero-Field splitting spin-orbit         ...  NO
Zero-field splitting spin-spin          ...  NO
Hyperfine couplings                     ...  NO (   0 nuclei)
Quadrupole couplings                    ...  NO (   0 nuclei)
Contact density                         ...  NO (   0 nuclei)

NMR properties:
Chemical shifts                         ...  NO (   0 nuclei)
Spin-rotation constants                 ...  NO (   0 nuclei)
Spin-spin couplings                     ...  NO (   0 nuclei,    0 pairs)

Choice of magnetic origin               ... GIAO
Position of magnetic origin             ...     0.000000     0.000000     0.000000

Properties with geometric perturbations:
SCF Hessian                             ...  NO
IR spectrum                             ...  NO
VCD spectrum                            ...  NO
X-ray spectroscopy properties:
SCF XES/XAS/RIXS spectra                ...  NO


-------------
DIPOLE MOMENT
-------------

Method             : SCF
Type of density    : Electron Density
Multiplicity       :   1
Irrep              :   0
Energy             :  -346.9559339576087496 Eh
Relativity type    : 
Basis              : AO
                                X                 Y                 Z
Electronic contribution:     -4.431239937      -0.884357673      -1.654683181
Nuclear contribution   :      5.043661206       1.688746236       2.184211208
                        -----------------------------------------
Total Dipole Moment    :      0.612421269       0.804388564       0.529528027
                        -----------------------------------------
Magnitude (a.u.)       :      1.141271529
Magnitude (Debye)      :      2.900881690



--------------------
Rotational spectrum 
--------------------
 
Rotational constants in cm-1:             0.159365             0.055438             0.048580 
Rotational constants in MHz :          4777.643711          1661.988525          1456.397692 

Dipole components along the rotational axes: 
x,y,z [a.u.] :     0.612937    -0.793696     0.544844 
x,y,z [Debye]:     1.557962    -2.017416     1.384884 

 

Dipole moment calculation done in   0.0 sec 

Maximum memory used throughout the entire PROP-calculation: 11.7 MB

--------------------------------
SUGGESTED CITATIONS FOR THIS RUN
--------------------------------

Below you find a list of papers that are relevant to this ORCA run
We neither can nor want to force you to cite these papers, but we appreciate if you do
You receive ORCA, which is the product of decades of hard work by many enthusiastic individuals, for free
The only thing we kindly ask in return is that you cite our papers,
We deeply appreciate it, if you show your appreciation for ORCA by not just citing the generic ORCA reference.

Please note that relegating all ORCA citations to the supporting information does *not* help us.
SI sections are not indexed - citations you put there will not count into any citation statistics
But we need these citations in order to attract the funding resources that allow us to do what we are doing

Therefore, if you are a happy ORCA user, please consider citing a few of the papers listed below in the main body of your paper

In addition to the list printed below, the program has created the file xtb_opt.bibtex that contains the list in bibtex format
You can import this file easily into all common literature databanks and citation aid programs


List of essential papers. We consider these as the minimum necessary citations

  1. Neese,F.
     Software update: the ORCA program system, version 5.0
     WIRES Comput. Molec. Sci., 2022 12(1)e1606
     doi.org/10.1002/wcms.1606
  2. Grimme,S.; Hansen,A.; Ehlert,S.; Mewes,J.
     r2SCAN-3c: A 'Swiss army knife' composite electronic-structure method
     J. Chem. Phys., 2021 154 064103
     doi.org/10.1063/5.0040021

List of papers to cite with high priority. The work reported in these papers was absolutely
necessary for this run to complete.
Our perspective: the developers of density functionals and basis sets usually get cited in chemistry papers
Good! But without the algorithms to do something with them, the functionals or basis sets would not do anything.
Hence, in our opinion, the algorithm design and method developments papers are equally worthy of getting cited

  1. Neese,F.
     An improvement of the resolution of the identity approximation for the formation of the Coulomb matrix
     J. Comp. Chem., 2003 24(14)1740-1747
     doi.org/10.1002/jcc.10318
  2. Garcia-Rates,M.; Neese,F.
     Effect of the Solute Cavity on the Solvation Energy and its Derivatives within the Framework of the Gaussian Charge Scheme
     J. Comput. Chem., 2020 41 922-939
     doi.org/10.1002/jcc.26139
  3. Neese,F.
     The SHARK Integral Generation and Digestion System
     J. Comp. Chem., 2022  1-16
     doi.org/10.1002/jcc.26942
  4. Lehtola,S.; Steigemann,C.; Oliveira,M.; Marques,M.
     Recent developments in Libxc - A comprehensive library of functionals for density functional theory
     Software X, 2018 7 
     doi.org/10.1016/j.softx.2017.11.002
  5. Caldeweyher,E.; Bannwarth,C.; Grimme,S.
     Extension of the D3 dispersion coefficient model
     J. Chem. Phys., 2017 147 034112-XXXX
     doi.org/10.1063/1.4993215
  6. Caldeweyher,E.; Ehlert,S.; Hansen,A.; Neugebauer,H.; Spicher,S.; Bannwarth,C.; Grimme,S.
     A generally applicable atomic-charge dependent London dispersion correction
     J. Chem. Phys., 2019 150 154122-XXXX
     doi.org/10.1063/1.5090222
  7. Caldeweyher,E.; Mewes,J.; Ehlert,S.; Grimme,S.
     Extension and evaluation of the D4 London-dispersion model for periodic systems
     Phys. Chem. Chem. Phys., 2020 22(16)8499-8512
     doi.org/10.1039/D0CP00502A

List of suggested additional citations. These are papers that are important in the 'surrounding' of 
of this run, or papers that preceded the highly important papers. If you like your results we are grateful for a citation.

  1. Neese,F.
     The ORCA program system
     WIRES Comput. Molec. Sci., 2012 2(1)73-78
     doi.org/10.1002/wcms.81
  2. Neese,F.
     Software update: the ORCA program system, version 4.0
     WIRES Comput. Molec. Sci., 2018 8(1)1-6
     doi.org/10.1002/wcms.1327
  3. Neese,F.; Wennmohs,F.; Becker,U.; Riplinger,C.
     The ORCA quantum chemistry program package
     J. Chem. Phys., 2020 152 Art. No. L224108
     doi.org/10.1063/5.0004608

List of optional additional citations

  1. Neese,F.
     Approximate second-order SCF convergence for spin unrestricted wavefunctions
     Chem. Phys. Lett., 2000 325(1-3)93-98
     doi.org/10.1016/s0009-2614(00)00662-x

Timings for individual modules:

Sum of individual times          ...       14.121 sec (=   0.235 min)
Startup calculation              ...        1.165 sec (=   0.019 min)   8.2 %
SCF iterations                   ...        5.801 sec (=   0.097 min)  41.1 %
Property calculations            ...        0.101 sec (=   0.002 min)   0.7 %
SCF Gradient evaluation          ...        7.055 sec (=   0.118 min)  50.0 %
                             ****ORCA TERMINATED NORMALLY****
TOTAL RUN TIME: 0 days 0 hours 0 minutes 14 seconds 816 msec
  ------------------------------------------------------------------------
          * successful ORCA run, taking over control again...

         :::::::::::::::::::::::::::::::::::::::::::::::::::::
         ::                  ORCA SUMMARY                   ::
         :::::::::::::::::::::::::::::::::::::::::::::::::::::
         :: total energy            -346.949860275150 Eh    ::
         :: gradient norm              0.000275264408 Eh/a0 ::
         :: HOMO-LUMO gap              0.000000000000 eV    ::
         :::::::::::::::::::::::::::::::::::::::::::::::::::::

           -------------------------------------------------
          |                Property Printout                |
           -------------------------------------------------
           -------------------------------------------------
          |                Geometry Summary                 |
           -------------------------------------------------

      molecular mass/u    :      102.1318968
   center of mass at/Å    :        0.0034095       0.0058947       0.0032618
  moments of inertia/u·Å² :        0.1057783E+03   0.3040740E+03   0.3469988E+03
rotational constants/cm⁻¹ :        0.1593676E+00   0.5543924E-01   0.4858124E-01

 * 14 selected distances

     #   Z          #   Z                                           value/Å
     1   6 C        2   6 C                                       1.5123316
     2   6 C        3   6 C                                       1.5153490 (max)
     4   8 O        5   6 C                                       1.3441203
     5   6 C        6   8 O                                       1.2218944
     1   6 C        8   1 H                                       1.0946480
     1   6 C        9   1 H                                       1.0938508
     1   6 C       10   1 H                                       1.0934976
     2   6 C       11   1 H                                       1.0936707
     3   6 C       12   1 H                                       1.0948058
     3   6 C       13   1 H                                       1.0942357
     3   6 C       14   1 H                                       1.0933356
     7   6 C       15   1 H                                       1.0920570
     7   6 C       16   1 H                                       1.0900165 (min)
     7   6 C       17   1 H                                       1.0957903

 * 3 distinct bonds (by element types)

   Z      Z             #   av. dist./Å        max./Å        min./Å
   1 H    6 C          10     1.0935908     1.0957903     1.0900165
   6 C    6 C           2     1.5138403     1.5153490     1.5123316
   6 C    8 O           2     1.2830074     1.3441203     1.2218944


optimized geometry written to: xtbopt.coord


           -------------------------------------------------
          | TOTAL ENERGY             -346.949860275150 Eh   |
          | GRADIENT NORM               0.000275264408 Eh/α |
           -------------------------------------------------

------------------------------------------------------------------------
 * finished run on 2025/04/05 at 00:01:23.381     
------------------------------------------------------------------------
 total:
 * wall-time:     0 d,  0 h,  3 min, 35.327 sec
 *  cpu-time:     0 d,  0 h,  0 min,  0.611 sec
 * ratio c/w:     0.003 speedup
 SCF:
 * wall-time:     0 d,  0 h,  0 min, 17.393 sec
 *  cpu-time:     0 d,  0 h,  0 min,  0.313 sec
 * ratio c/w:     0.018 speedup
 ANC optimizer:
 * wall-time:     0 d,  0 h,  3 min, 17.889 sec
 *  cpu-time:     0 d,  0 h,  0 min,  0.284 sec
 * ratio c/w:     0.001 speedup

