      -----------------------------------------------------------      
     |                   =====================                   |     
     |                           x T B                           |     
     |                   =====================                   |     
     |                         S. Grimme                         |     
     |          Mulliken Center for Theoretical Chemistry        |     
     |                    University of Bonn                     |     
      -----------------------------------------------------------      

   * xtb version 6.7.1 (edcfbbe) compiled by 'albert@albert-system' on 2024-07-22

   xtb is free software: you can redistribute it and/or modify it under
   the terms of the GNU Lesser General Public License as published by
   the Free Software Foundation, either version 3 of the License, or
   (at your option) any later version.
   
   xtb is distributed in the hope that it will be useful,
   but WITHOUT ANY WARRANTY; without even the implied warranty of
   MERCHANTABILITY or FITNESS FOR A PARTICULAR PURPOSE.  See the
   GNU Lesser General Public License for more details.
   
   Cite this work as:
   * C. Bannwarth, E. Caldeweyher, S. Ehlert, A. Hansen, P. Pracht,
     J. Seibert, S. Spicher, S. Grimme, WIREs Comput. Mol. Sci., 2020, 11,
     e01493. DOI: 10.1002/wcms.1493
   
   for GFN2-xTB:
   * C. Bannwarth, S. Ehlert and S. Grimme., J. Chem. Theory Comput., 2019,
     15, 1652-1671. DOI: 10.1021/acs.jctc.8b01176
   for GFN1-xTB:
   * S. Grimme, C. Bannwarth, P. Shushkov, J. Chem. Theory Comput., 2017,
     13, 1989-2009. DOI: 10.1021/acs.jctc.7b00118
   for GFN0-xTB:
   * P. Pracht, E. Caldeweyher, S. Ehlert, S. Grimme, ChemRxiv, 2019, preprint.
     DOI: 10.26434/chemrxiv.8326202.v1
   for GFN-FF:
   * S. Spicher and S. Grimme, Angew. Chem. Int. Ed., 2020, 59, 15665-15673.
     DOI: 10.1002/anie.202004239
   
   for ALPB and GBSA implicit solvation:
   * S. Ehlert, M. Stahn, S. Spicher, S. Grimme, J. Chem. Theory Comput.,
     2021, 17, 4250-4261. DOI: 10.1021/acs.jctc.1c00471
   
   for ddCOSMO and CPCM-X implicit solvation:
   * M. Stahn, S. Ehlert, S. Grimme, J. Phys. Chem. A,
     2023, XX, XXXX-XXXX. DOI: 10.1021/acs.jpca.3c04382
   
   for DFT-D4:
   * E. Caldeweyher, C. Bannwarth and S. Grimme, J. Chem. Phys., 2017,
     147, 034112. DOI: 10.1063/1.4993215
   * E. Caldeweyher, S. Ehlert, A. Hansen, H. Neugebauer, S. Spicher,
     C. Bannwarth and S. Grimme, J. Chem. Phys., 2019, 150, 154122.
     DOI: 10.1063/1.5090222
   * E. Caldeweyher, J.-M. Mewes, S. Ehlert and S. Grimme, Phys. Chem. Chem. Phys.
     2020, 22, 8499-8512. DOI: 10.1039/D0CP00502A
   
   for sTDA-xTB:
   * S. Grimme and C. Bannwarth, J. Chem. Phys., 2016, 145, 054103.
     DOI: 10.1063/1.4959605
   
   in the mass-spec context:
   * V. Asgeirsson, C. Bauer and S. Grimme, Chem. Sci., 2017, 8, 4879.
     DOI: 10.1039/c7sc00601b
   * J. Koopman and S. Grimme, ACS Omega 2019, 4, 12, 15120-15133.
     DOI: 10.1021/acsomega.9b02011
   
   for metadynamics refer to:
   * S. Grimme, J. Chem. Theory Comput., 2019, 155, 2847-2862
     DOI: 10.1021/acs.jctc.9b00143
   
   for SPH calculations refer to:
   * S. Spicher and S. Grimme, J. Chem. Theory Comput., 2021, 17, 1701-1714
     DOI: 10.1021/acs.jctc.0c01306
   
   for ONIOM refer to:
   * C. Plett, A. Katbashev, S. Ehlert, S. Grimme, M. Bursch,
     Phys. Chem. Chem. Phys., 2023, 25, 17860-17868. DOI: 10.1039/D3CP02178E
   
   for DIPRO refer to:
   * J. Kohn, N. Gildemeister, S. Grimme, D. Fazzi, A. Hansen,
     J. Chem. Phys., 2023, just accepted.
   
   for PTB refer to:
   * S. Grimme, M. Mueller, A. Hansen, J. Chem. Phys., 2023, 158, 124111.
     DOI: 10.1063/5.0137838
   
   with help from (in alphabetical order)
   P. Atkinson, C. Bannwarth, F. Bohle, G. Brandenburg, E. Caldeweyher
   M. Checinski, S. Dohm, S. Ehlert, S. Ehrlich, I. Gerasimov, C. Hölzer
   A. Katbashev, J. Kohn, J. Koopman, C. Lavigne, S. Lehtola, F. März, M. Müller,
   F. Musil, H. Neugebauer, J. Pisarek, C. Plett, P. Pracht, F. Pultar,
   J. Seibert, P. Shushkov, S. Spicher, M. Stahn, M. Steiner, T. Strunk,
   J. Stückrath, T. Rose, and J. Unsleber
   
 * started run on 2025/04/06 at 18:49:27.375     
   ID    Z sym.   atoms
    1    6 C      1, 2, 4, 6, 8, 10
    2    1 H      3, 5, 7, 9, 11, 18-24
    3    8 O      12-17

           -------------------------------------------------
          |                Calculation Setup                |
           -------------------------------------------------

          program call               : /srv/scratch/z5358697/.xtb/bin/xtb xtb_opt.coord --opt normal --orca -I xtb_opt-xcontrol-inp
          hostname                   : k155
          coordinate file            : xtb_opt.coord
          omp threads                :                    16

           -------------------------------------------------
          |                   Orca driver                   |
           -------------------------------------------------
orca executable           : /apps/z_install_tree/linux-rocky8-ivybridge/gcc-12.2.0/orca-6.0.0-srtngmq3qlimg2qxbl6avaaiffipurdx/bin/orca
orca input file           : xtb_opt.inp
orca input line           : 
orca parallel             : true
orca number of threads    : 16
                         * ORCA takes the control...
  ------------------------------------------------------------------------

                                 *****************
                                 * O   R   C   A *
                                 *****************

                                            #,                                       
                                            ###                                      
                                            ####                                     
                                            #####                                    
                                            ######                                   
                                           ########,                                 
                                     ,,################,,,,,                         
                               ,,#################################,,                 
                          ,,##########################################,,             
                       ,#########################################, ''#####,          
                    ,#############################################,,   '####,        
                  ,##################################################,,,,####,       
                ,###########''''           ''''###############################       
              ,#####''   ,,,,##########,,,,          '''####'''          '####       
            ,##' ,,,,###########################,,,                        '##       
           ' ,,###''''                  '''############,,,                           
         ,,##''                                '''############,,,,        ,,,,,,###''
      ,#''                                            '''#######################'''  
     '                                                          ''''####''''         
             ,#######,   #######,   ,#######,      ##                                
            ,#'     '#,  ##    ##  ,#'     '#,    #''#        ,####,   ,####,        
            ##       ##  ##   ,#'  ##            #'  '#       #'       #'  '#        
            ##       ##  #######   ##           ,######,      #####,   #    #        
            '#,     ,#'  ##    ##  '#,     ,#' ,#      #,     #,   #   #,  ,#        
             '#######'   ##     ##  '#######'  #'      '#     '####' # '####'        



                #########################################################
                #                        -***-                          #
                #          Department of theory and spectroscopy        #
                #                                                       #
                #                      Frank Neese                      #
                #                                                       #
                #     Directorship, Architecture, Infrastructure        #
                #                    SHARK, DRIVERS                     #
                #        Core code/Algorithms in most modules           #
                #                                                       #
                #        Max Planck Institute fuer Kohlenforschung      #
                #                Kaiser Wilhelm Platz 1                 #
                #                 D-45470 Muelheim/Ruhr                 #
                #                      Germany                          #
                #                                                       #
                #                  All rights reserved                  #
                #                        -***-                          #
                #########################################################


                         Program Version 6.0.0  -   RELEASE  -


 With contributions from (in alphabetic order):
   Daniel Aravena         : Magnetic Suceptibility
   Michael Atanasov       : Ab Initio Ligand Field Theory (pilot matlab implementation)
   Alexander A. Auer      : GIAO ZORA, VPT2 properties, NMR spectrum
   Ute Becker             : All parallelization in ORCA, NUMFREQ, NUMCALC
   Giovanni Bistoni       : ED, misc. LED, open-shell LED, HFLD
   Martin Brehm           : Molecular dynamics
   Dmytro Bykov           : pre 5.0 version of the SCF Hessian
   Marcos Casanova-Páez   : Triplet and SCS-CIS(D). UHF-(DLPNO)-IP/EA/STEOM-CCSD. UHF-CVS-IP/STEOM-CCSD
   Vijay G. Chilkuri      : MRCI spin determinant printing, contributions to CSF-ICE
   Pauline Colinet        : FMM embedding
   Dipayan Datta          : RHF DLPNO-CCSD density
   Achintya Kumar Dutta   : EOM-CC, STEOM-CC
   Nicolas Foglia         : Exact transition moments, OPA infrastructure, MCD improvements
   Dmitry Ganyushin       : Spin-Orbit,Spin-Spin,Magnetic field MRCI
   Miquel Garcia          : C-PCM and meta-GGA Hessian, CCSD/C-PCM, Gaussian charge scheme
   Tiago L. C. Gouveia    : GS-ROHF, GS-ROCIS
   Yang Guo               : DLPNO-NEVPT2, F12-NEVPT2, CIM, IAO-localization
   Andreas Hansen         : Spin unrestricted coupled pair/coupled cluster methods
   Ingolf Harden          : AUTO-CI MPn and infrastructure 
   Benjamin Helmich-Paris : MC-RPA, TRAH-(SCF,CASSCF), AVAS, COSX integrals, SCF dyn. polar.
   Lee Huntington         : MR-EOM, pCC
   Robert Izsak           : Overlap fitted RIJCOSX, COSX-SCS-MP3, EOM
   Riya Kayal             : Wick's Theorem for AUTO-CI, AUTO-CI UHF-CCSDT
   Emily Kempfer          : AUTO-CI, RHF CISDT and CCSDT
   Christian Kollmar      : KDIIS, OOCD, Brueckner-CCSD(T), CCSD density, CASPT2, CASPT2-K, improved NEVPT2
   Axel Koslowski         : Symmetry handling
   Simone Kossmann        : Meta GGA functionals, TD-DFT gradient, OOMP2, (MP2 Hessian; deprecated post 5.0)
   Lucas Lang             : DCDCAS
   Marvin Lechner         : AUTO-CI (C++ implementation), FIC-MRCC
   Spencer Leger          : CASSCF response
   Dagmar Lenk            : GEPOL surface, SMD, ORCA-2-JSON
   Dimitrios Liakos       : Extrapolation schemes; Compound Job, initial MDCI parallelization
   Dimitrios Manganas     : Further ROCIS development; embedding schemes. LFT, Crystal Embedding
   Dimitrios Pantazis     : SARC Basis sets
   Anastasios Papadopoulos: AUTO-CI, single reference methods and gradients
   Taras Petrenko         : pre 6.0 DFT Hessian and TD-DFT gradient, (ASA, deprecated), ECA, 1-Electron XAS/XES, NRVS
   Peter Pinski           : DLPNO-MP2, DLPNO-MP2 Gradient
   Christoph Reimann      : Effective Core Potentials
   Marius Retegan         : Local ZFS, SOC
   Christoph Riplinger    : Optimizer, TS searches, QM/MM, DLPNO-CCSD(T), (RO)-DLPNO pert. Triples
   Michael Roemelt        : Original ROCIS implementation
   Masaaki Saitow         : Open-shell DLPNO-CCSD energy and density
   Barbara Sandhoefer     : DKH picture change effects
   Kantharuban Sivalingam : CASSCF convergence/infrastructure, NEVPT2 and variants, FIC-MRCI
   Bernardo de Souza      : ESD, SOC TD-DFT
   Georgi Stoychev        : AutoAux, RI-MP2 NMR, DLPNO-MP2 response, X2C
   Van Anh Tran           : RI-MP2 g-tensors
   Willem Van den Heuvel  : Paramagnetic NMR
   Zikuan Wang            : NOTCH, Electric field optimization 
   Frank Wennmohs         : Technical directorship and infrastructure
   Hang Xu                : AUTO-CI-Response properties 


 We gratefully acknowledge several colleagues who have allowed us to
 interface, adapt or use parts of their codes:
   Stefan Grimme, W. Hujo, H. Kruse, P. Pracht,  : VdW corrections, initial TS optimization,
                  C. Bannwarth, S. Ehlert,         DFT functionals, gCP, sTDA/sTD-DF
                  L. Wittmann, M. Mueller
   Ed Valeev, F. Pavosevic, A. Kumar             : LibInt (2-el integral package), F12 methods
   Garnet Chan, S. Sharma, J. Yang, R. Olivares  : DMRG
   Ulf Ekstrom                                   : XCFun DFT Library
   Mihaly Kallay                                 : mrcc  (arbitrary order and MRCC methods)
   Frank Weinhold                                : gennbo (NPA and NBO analysis)
   Simon Mueller                                 : openCOSMO-RS
   Christopher J. Cramer and Donald G. Truhlar   : smd solvation model
   Lars Goerigk                                  : TD-DFT with DH, B97 family of functionals
   V. Asgeirsson, H. Jonsson                     : NEB implementation
   FAccTs GmbH                                   : IRC, NEB, NEB-TS, DLPNO-Multilevel, CI-OPT
                                                   MM, QMMM, 2- and 3-layer-ONIOM, Crystal-QMMM,
                                                   LR-CPCM, SF, NACMEs, symmetry and pop. for TD-DFT,
                                                   nearIR, NL-DFT gradient (VV10), updates on ESD,
                                                   ML-optimized integration grids, MBIS, APM,
                                                   GOAT, DOCKER, SOLVATOR, interface openCOSMO-RS
   S Lehtola, MJT Oliveira, MAL Marques          : LibXC Library
   Liviu Ungur et al                             : ANISO software


 Your calculation uses the libint2 library for the computation of 2-el integrals
 For citations please refer to: http://libint.valeyev.net

 Your ORCA version has been built with support for libXC version: 6.2.2
 For citations please refer to: https://libxc.gitlab.io

 This ORCA versions uses:
   CBLAS   interface :  Fast vector & matrix operations
   LAPACKE interface :  Fast linear algebra routines
   SCALAPACK package :  Parallel linear algebra routines
   Shared memory     :  Shared parallel matrices
   BLAS/LAPACK       :  OpenBLAS 0.3.27  USE64BITINT DYNAMIC_ARCH NO_AFFINITY SkylakeX SINGLE_THREADED
        Core in use  :  SkylakeX
   Copyright (c) 2011-2014, The OpenBLAS Project




***************************************
The coordinates will be read from file: xtb_opt.xyz
***************************************


Your calculation utilizes the geometrical counterpoise correction gCP
Please cite in your paper:
H.Kruse, S. Grimme J.Chem.Phys., 136, (2012), 154101 
   

Your calculation utilizes the atom-pairwise dispersion correction
based on EEQ partial charges (D4)


Your calculation utilizes the SMD solvation module
Please cite in your paper:
A.V. Marenich, C.J. Cramer, D.G. Truhlar J. Phys. Chem. B, 113, (2009), 6378 

================================================================================

----- Orbital basis set information -----
Your calculation utilizes the basis: def2-mTZVPP
   Stefan Grimme, Andreas Hansen, Sebastian Ehlert, and Jan-Michael Mewes 
   J. Chem. Phys. 154, 064103 (2021). DOI: 10.1063/5.0040021

----- AuxJ basis set information -----
Your calculation utilizes the auxiliary basis: def2/J
   F. Weigend, Phys. Chem. Chem. Phys. 8, 1057 (2006).

================================================================================
                                        WARNINGS
                       Please study these warnings very carefully!
================================================================================

WARNING: Old DensityContainer found on disk!
         Will remove this file - 
         If you want to keep old densities, please start your calculation with a different basename. 

Using LibXC functional ID 497 : Re-regularized SCAN exchange by Furness et al
[ 1]  J. W. Furness, A. D. Kaplan, J. Ning, J. P. Perdew, and J. Sun.,  J. Phys. Chem. Lett. 11, 8208-8215 (2020)
[ 2]  J. W. Furness, A. D. Kaplan, J. Ning, J. P. Perdew, and J. Sun.,  J. Phys. Chem. Lett. 11, 9248-9248 (2020)
Using LibXC functional ID 498 : Re-regularized SCAN correlation by Furness et al
[ 1]  J. W. Furness, A. D. Kaplan, J. Ning, J. P. Perdew, and J. Sun.,  J. Phys. Chem. Lett. 11, 8208-8215 (2020)
[ 2]  J. W. Furness, A. D. Kaplan, J. Ning, J. P. Perdew, and J. Sun.,  J. Phys. Chem. Lett. 11, 9248-9248 (2020)
Using LibXC functional ID 497 : Re-regularized SCAN exchange by Furness et al
[ 1]  J. W. Furness, A. D. Kaplan, J. Ning, J. P. Perdew, and J. Sun.,  J. Phys. Chem. Lett. 11, 8208-8215 (2020)
[ 2]  J. W. Furness, A. D. Kaplan, J. Ning, J. P. Perdew, and J. Sun.,  J. Phys. Chem. Lett. 11, 9248-9248 (2020)
Using LibXC functional ID 498 : Re-regularized SCAN correlation by Furness et al
[ 1]  J. W. Furness, A. D. Kaplan, J. Ning, J. P. Perdew, and J. Sun.,  J. Phys. Chem. Lett. 11, 8208-8215 (2020)
[ 2]  J. W. Furness, A. D. Kaplan, J. Ning, J. P. Perdew, and J. Sun.,  J. Phys. Chem. Lett. 11, 9248-9248 (2020)

================================================================================
                                       INPUT FILE
================================================================================
NAME = xtb_opt.inp
|  1> ! r2scan-3c def2/J RI DEFGRID2 scfconv7 ENGRAD tightSCF miniprint
|  2> %cpcm
|  3>     smd true
|  4>     smdsolvent "water"
|  5> end
|  6> * xyzfile 0 1 xtb_opt.xyz
|  7> 
|  8>                          ****END OF INPUT****
================================================================================

                     *******************************
                     * Energy+Gradient Calculation *
                     *******************************

---------------------------------
CARTESIAN COORDINATES (ANGSTROEM)
---------------------------------
  C     -2.588413   -0.612032   -0.314914
  C     -1.205771   -0.267698    0.200733
  H     -1.216863   -0.245834    1.302364
  C     -0.694314    1.071244   -0.328787
  H     -0.714027    1.054876   -1.430052
  C      0.738970    1.292401    0.139746
  H      0.730888    1.412875    1.234868
  C      1.624606    0.103046   -0.208973
  H      1.719966    0.017795   -1.301696
  C      0.985598   -1.179209    0.316518
  H      0.901228   -1.153394    1.415432
  O     -0.324153   -1.310242   -0.250949
  O      1.757436   -2.266655   -0.112947
  O      2.898969    0.333991    0.396098
  O      1.205831    2.495348   -0.480799
  O     -1.554517    2.098886    0.170134
  O     -3.083695   -1.824256    0.264349
  H     -2.561948   -0.685527   -1.411690
  H     -3.287595    0.178530   -0.034509
  H      1.516647   -3.040505    0.417166
  H      3.519683   -0.304152    0.023482
  H      2.049528    2.726067   -0.071637
  H     -1.181219    2.943556   -0.116539
  H     -2.483035   -2.532695   -0.001267

----------------------------
CARTESIAN COORDINATES (A.U.)
----------------------------
  NO LB      ZA    FRAG     MASS         X           Y           Z
   0 C     6.0000    0    12.011   -4.891392   -1.156572   -0.595102
   1 C     6.0000    0    12.011   -2.278578   -0.505876    0.379331
   2 H     1.0000    0     1.008   -2.299538   -0.464559    2.461112
   3 C     6.0000    0    12.011   -1.312063    2.024358   -0.621317
   4 H     1.0000    0     1.008   -1.349316    1.993426   -2.702406
   5 C     6.0000    0    12.011    1.396452    2.442284    0.264083
   6 H     1.0000    0     1.008    1.381178    2.669946    2.333562
   7 C     6.0000    0    12.011    3.070060    0.194729   -0.394902
   8 H     1.0000    0     1.008    3.250264    0.033627   -2.459850
   9 C     6.0000    0    12.011    1.862510   -2.228381    0.598133
  10 H     1.0000    0     1.008    1.703074   -2.179599    2.674779
  11 O     8.0000    0    15.999   -0.612560   -2.475999   -0.474225
  12 O     8.0000    0    15.999    3.321073   -4.283358   -0.213439
  13 O     8.0000    0    15.999    5.478257    0.631151    0.748516
  14 O     8.0000    0    15.999    2.278690    4.715525   -0.908579
  15 O     8.0000    0    15.999   -2.937611    3.966319    0.321507
  16 O     8.0000    0    15.999   -5.827340   -3.447345    0.499548
  17 H     1.0000    0     1.008   -4.841381   -1.295458   -2.667708
  18 H     1.0000    0     1.008   -6.212654    0.337373   -0.065212
  19 H     1.0000    0     1.008    2.866048   -5.745721    0.788330
  20 H     1.0000    0     1.008    6.651236   -0.574765    0.044375
  21 H     1.0000    0     1.008    3.873047    5.151521   -0.135373
  22 H     1.0000    0     1.008   -2.232180    5.562515   -0.220227
  23 H     1.0000    0     1.008   -4.692256   -4.786100   -0.002394

------------------------------------------------------------------------------
                   ___                                                        
                  /   \      - P O W E R E D   B Y -                         
                 /     \                                                     
                 |  |  |   _    _      __       _____    __    __             
                 |  |  |  | |  | |    /  \     |  _  \  |  |  /  |          
                  \  \/   | |  | |   /    \    | | | |  |  | /  /          
                 / \  \   | |__| |  /  /\  \   | |_| |  |  |/  /          
                |  |  |   |  __  | /  /__\  \  |    /   |      \           
                |  |  |   | |  | | |   __   |  |    \   |  |\   \          
                \     /   | |  | | |  |  |  |  | |\  \  |  | \   \       
                 \___/    |_|  |_| |__|  |__|  |_| \__\ |__|  \__/        
                                                                              
                      - O R C A' S   B I G   F R I E N D -                    
                                      &                                       
                       - I N T E G R A L  F E E D E R -                       
                                                                              
 v1 FN, 2020, v2 2021, v3 2022-2024                                           
------------------------------------------------------------------------------


----------------------
SHARK INTEGRAL PACKAGE
----------------------

Number of atoms                             ...     24
Number of basis functions                   ...    318
Number of shells                            ...    150
Maximum angular momentum                    ...      2
Integral batch strategy                     ... SHARK/LIBINT Hybrid
RI-J (if used) integral strategy            ... SPLIT-RIJ (Revised 2003 algorithm where possible)
Printlevel                                  ...      1
Contraction scheme used                     ... SEGMENTED contraction
Prescreening option                         ... SCHWARTZ
   Thresh                                   ... 3.000e-11
   Tcut                                     ... 1.000e-12
   Tpresel                                  ... 1.000e-12 
Coulomb Range Separation                    ... NOT USED
Exchange Range Separation                   ... NOT USED
Multipole approximations                    ... NOT USED
Finite Nucleus Model                        ... NOT USED
CABS basis                                  ... NOT available
Auxiliary Coulomb fitting basis             ... AVAILABLE
   # of basis functions in Aux-J            ...    720
   # of shells in Aux-J                     ...    240
   Maximum angular momentum in Aux-J        ...      4
Auxiliary J/K fitting basis                 ... NOT available
Auxiliary Correlation fitting basis         ... NOT available
Auxiliary 'external' fitting basis          ... NOT available

Checking pre-screening integrals            ... done (  0.0 sec) Dimension = 150
Check shell pair data                       ... done (  0.0 sec)
Shell pair information
Shell pair cut-off parameter TPreSel        ...   1.0e-12
Total number of shell pairs                 ...     11325
Shell pairs after pre-screening             ...      9769
Total number of primitive shell pairs       ...     40203
Primitive shell pairs kept                  ...     23780
          la=0 lb=0:   2952 shell pairs
          la=1 lb=0:   3491 shell pairs
          la=1 lb=1:   1047 shell pairs
          la=2 lb=0:   1331 shell pairs
          la=2 lb=1:    790 shell pairs
          la=2 lb=2:    158 shell pairs

Calculating one electron integrals          ... done (  0.0 sec)
Calculating RI/J V-Matrix + Cholesky decomp.... done (  0.1 sec)
Calculating Nuclear repulsion               ... done (  0.0 sec) ENN=    822.191135258951 Eh

Diagonalization of the overlap matrix:
Smallest eigenvalue                        ... 2.859e-05
Time for diagonalization                   ...    0.010 sec
Threshold for overlap eigenvalues          ... 1.000e-07
Number of eigenvalues below threshold      ... 0
Time for construction of square roots      ...    0.021 sec
Total time needed                          ...    0.046 sec

-------------------
DFT GRID GENERATION
-------------------

General Integration Accuracy     IntAcc      ... 4.388
Radial Grid Type                 RadialGrid  ... OptM3 with GC (2021)
Angular Grid (max. ang.)         AngularGrid ... 4 (Lebedev-302)
Angular grid pruning method      GridPruning ... 4 (adaptive)
Weight generation scheme         WeightScheme... mBecke (2022)
Basis function cutoff            BFCut       ... 1.0000e-11
Integration weight cutoff        WCut        ... 1.0000e-14
Partially contracted basis set               ... off
Rotationally invariant grid construction     ... off
Angular grids for H and He will be reduced by one unit
Diffuse basis detected: some atoms will have their outermost
                        angular grid increased by 1.

Total number of grid points                  ...   112075
Total number of batches                      ...     1764
Average number of points per batch           ...       63
Average number of grid points per atom       ...     4670
Initializing property integral containers    ... done (  0.1 sec)

SHARK setup successfully completed in   1.9 seconds

Maximum memory used throughout the entire STARTUP-calculation: 55.1 MB
Occupation numbers will be reassigned to an Aufbau configuration
             **** ENERGY FILE WAS UPDATED (xtb_opt.en.tmp) ****
Finished Guess after   0.4 sec
Maximum memory used throughout the entire GUESS-calculation: 25.8 MB
--------------------
CPCM SOLVATION MODEL
--------------------
CPCM parameters:
  Epsilon                                         ...      78.3550
  Refrac                                          ...       1.3328
  Rsolv                                           ...       1.3000
  Surface type                                    ... GAUSSIAN VDW
  Discretization scheme                           ... Constant charge density
    Threshold for H atoms                         ...       5.0000 (charges/Ang^2)
    Threshold for non-H atoms                     ...       5.0000 (charges/Ang^2)
  Epsilon function type                           ...         CPCM
Solvent:                                          ... WATER
SMD-CDS solvent descriptors:
  Soln                                            ...       1.3328
  Soln25                                          ...       1.3323
  Sola                                            ...       0.0000
  Solb                                            ...       0.0000
  Solg                                            ...       0.0000
  Solc                                            ...       0.0000
  Solh                                            ...       0.0000
Radii:
  Scheme                                          ... Element-dependent radii
  Radius for C  used is    3.4960 Bohr (=   1.8500 Ang.)
  Radius for H  used is    2.2677 Bohr (=   1.2000 Ang.)
  Radius for O  used is    2.8724 Bohr (=   1.5200 Ang.)
Calculating surface                               ...        done! (  0.0s)
Cavity surface points                             ...         1616
Cavity Volume                                     ...    1044.0602
Cavity Surface-area                               ...     670.7362
Calculating surface distance matrix               ...        done! (  0.0s)
Performing Cholesky decomposition & store         ...        done! (  0.3s)
Overall time for CPCM initialization              ...                 0.3s

----------------------------------------D-I-I-S--------------------------------------------
Iteration    Energy (Eh)           Delta-E    RMSDP     MaxDP     DIISErr   Damp  Time(sec)
-------------------------------------------------------------------------------------------
               ***  Starting incremental Fock matrix formation  ***
                              *** Initializing SOSCF ***
---------------------------------------S-O-S-C-F--------------------------------------
Iteration    Energy (Eh)           Delta-E    RMSDP     MaxDP     MaxGrad    Time(sec)
--------------------------------------------------------------------------------------
    1    -687.1346892087942706     0.00e+00  5.68e-06  1.88e-04  1.04e-05     6.4
               *** Restarting incremental Fock matrix formation ***
    2    -687.1346891439795854     6.48e-08  1.02e-05  3.60e-04  4.54e-05     6.3
    3    -687.1346885839784591     5.60e-07  7.99e-06  3.09e-04  8.58e-05     4.3
    4    -687.1346893465147332    -7.63e-07  1.91e-06  1.51e-04  1.61e-06     4.5
                  *** Gradient check signals convergence ***

               *****************************************************
               *                     SUCCESS                       *
               *           SCF CONVERGED AFTER   4 CYCLES          *
               *****************************************************


SMD CDS free energy correction energy :                 4.06317     Kcal/mol
Total Energy after SMD CDS correction =              -687.128214274 Eh
             **** ENERGY FILE WAS UPDATED (xtb_opt.en.tmp) ****

----------------
TOTAL SCF ENERGY
----------------

Total Energy       :       -687.12821427365986 Eh          -18697.70928 eV

Components:
Nuclear Repulsion  :        822.19113525895136 Eh           22372.95821 eV
Electronic Energy  :      -1509.27898908327370 Eh          -41069.56923 eV
One Electron Energy:      -2574.74767850100898 Eh          -70062.44624 eV
Two Electron Energy:       1065.46868941773528 Eh           28992.87701 eV
CPCM Dielectric    :         -0.04683552219247 Eh              -1.27446 eV
SMD CDS (Gcds)     :          0.00647507285491 Eh               0.17620 eV

Virial components:
Potential Energy   :      -1371.31958177336287 Eh          -37315.50290 eV
Kinetic Energy     :        684.19136749970301 Eh           18617.79362 eV
Virial Ratio       :          2.00429243470974

DFT components:
N(Alpha)           :       48.000023377124 electrons
N(Beta)            :       48.000023377124 electrons
N(Total)           :       96.000046754247 electrons
E(X)               :      -85.239075610872 Eh       
E(C)               :       -3.188350979497 Eh       
E(XC)              :      -88.427426590369 Eh       

CPCM Solvation Model Properties:
Surface-charge          :         -0.05094130307442
Corrected charge        :         -0.00000000000000
Outlying charge corr.   :          0.00018697800094 Eh               0.00509 eV
Free-energy (cav+disp)  :          0.00647507285491 Eh               0.17620 eV

---------------
SCF CONVERGENCE
---------------

  Last Energy change         ...    7.6254e-07  Tolerance :   1.0000e-07
  Last MAX-Density change    ...    1.5083e-04  Tolerance :   1.0000e-07
  Last RMS-Density change    ...    1.9122e-06  Tolerance :   5.0000e-09
  Last DIIS Error            ...    2.3142e-04  Tolerance :   1.0000e-07
  Last Orbital Gradient      ...    1.6131e-06  Tolerance :   1.0000e-04
  Last Orbital Rotation      ...    3.0797e-06  Tolerance :   1.0000e-04


----------------
ORBITAL ENERGIES
----------------

  NO   OCC          E(Eh)            E(eV) 
   0   2.0000     -18.972818      -516.2766 
   1   2.0000     -18.972396      -516.2651 
   2   2.0000     -18.963129      -516.0130 
   3   2.0000     -18.961685      -515.9737 
   4   2.0000     -18.961193      -515.9603 
   5   2.0000     -18.957011      -515.8465 
   6   2.0000     -10.137574      -275.8574 
   7   2.0000     -10.091422      -274.6016 
   8   2.0000     -10.090793      -274.5844 
   9   2.0000     -10.090348      -274.5723 
  10   2.0000     -10.088959      -274.5345 
  11   2.0000     -10.078504      -274.2500 
  12   2.0000      -1.043948       -28.4073 
  13   2.0000      -1.007968       -27.4282 
  14   2.0000      -0.998947       -27.1827 
  15   2.0000      -0.989195       -26.9174 
  16   2.0000      -0.980241       -26.6737 
  17   2.0000      -0.976072       -26.5603 
  18   2.0000      -0.755535       -20.5591 
  19   2.0000      -0.738785       -20.1034 
  20   2.0000      -0.657440       -17.8898 
  21   2.0000      -0.610304       -16.6072 
  22   2.0000      -0.585929       -15.9439 
  23   2.0000      -0.553788       -15.0693 
  24   2.0000      -0.525053       -14.2874 
  25   2.0000      -0.499777       -13.5996 
  26   2.0000      -0.494756       -13.4630 
  27   2.0000      -0.482302       -13.1241 
  28   2.0000      -0.468504       -12.7486 
  29   2.0000      -0.454783       -12.3753 
  30   2.0000      -0.426675       -11.6104 
  31   2.0000      -0.420551       -11.4438 
  32   2.0000      -0.407575       -11.0907 
  33   2.0000      -0.395034       -10.7494 
  34   2.0000      -0.381152       -10.3717 
  35   2.0000      -0.380525       -10.3546 
  36   2.0000      -0.348539        -9.4842 
  37   2.0000      -0.331900        -9.0315 
  38   2.0000      -0.328263        -8.9325 
  39   2.0000      -0.322686        -8.7807 
  40   2.0000      -0.317536        -8.6406 
  41   2.0000      -0.304934        -8.2977 
  42   2.0000      -0.281061        -7.6481 
  43   2.0000      -0.267079        -7.2676 
  44   2.0000      -0.258432        -7.0323 
  45   2.0000      -0.252812        -6.8794 
  46   2.0000      -0.246808        -6.7160 
  47   2.0000      -0.234678        -6.3859 
  48   0.0000       0.034907         0.9499 
  49   0.0000       0.055332         1.5057 
  50   0.0000       0.078758         2.1431 
  51   0.0000       0.082355         2.2410 
  52   0.0000       0.094316         2.5665 
  53   0.0000       0.095104         2.5879 
  54   0.0000       0.114600         3.1184 
  55   0.0000       0.125016         3.4019 
  56   0.0000       0.132719         3.6115 
  57   0.0000       0.143215         3.8971 
  58   0.0000       0.151890         4.1331 
*Only the first 10 virtual orbitals were printed.
Total SCF time: 0 days 0 hours 0 min 22 sec 
Finished LeanSCF after  22.5 sec

Maximum memory used throughout the entire LEANSCF-calculation: 42.9 MB


-------------------------------------------------------------------------------
                          DFT DISPERSION CORRECTION                            
                                                                               
                                DFTD4 V3.4.0                                   
-------------------------------------------------------------------------------
-------------------------   ----------------
Dispersion correction           -0.007926003
-------------------------   ----------------

------------------   -----------------
gCP correction             0.018860564
------------------   -----------------

-------------------------   --------------------
FINAL SINGLE POINT ENERGY      -687.117279712583
-------------------------   --------------------

------------------------------------------------------------------------------
                         ORCA SCF GRADIENT CALCULATION
------------------------------------------------------------------------------

Nuc. rep. gradient        (SHARK) ... done (  0.0 sec)
HCore & Overlap gradient  (SHARK) ... done (  0.7 sec)
Split-RIJ-J gradient      (SHARK) ... done (  3.5 sec)
XC gradient                       ... done ( 12.1 sec)
CPCM gradient                     ... done (  1.6 sec)
SMD gradient                      ... done (  0.0 sec)
Dispersion correction             ... done (  0.0 sec)

-------------------
DISPERSION GRADIENT
-------------------

   1   C   :   -0.000110446   -0.000025553   -0.000020123
   2   C   :   -0.000047186   -0.000021178    0.000012057
   3   H   :   -0.000037369   -0.000008670    0.000024662
   4   C   :   -0.000033295    0.000058475   -0.000017344
   5   H   :   -0.000018093    0.000033400   -0.000026300
   6   C   :    0.000035589    0.000057147    0.000008679
   7   H   :    0.000018062    0.000039274    0.000018627
   8   C   :    0.000077210   -0.000004851   -0.000007434
   9   H   :    0.000042933   -0.000002989   -0.000020739
  10   C   :    0.000040876   -0.000046284    0.000020460
  11   H   :    0.000030786   -0.000037227    0.000019174
  12   O   :   -0.000008599   -0.000069594   -0.000002391
  13   O   :    0.000066216   -0.000107597    0.000009047
  14   O   :    0.000114427   -0.000002127    0.000005845
  15   O   :    0.000055869    0.000105867   -0.000010418
  16   O   :   -0.000054884    0.000112232    0.000000885
  17   O   :   -0.000079221   -0.000070197   -0.000000542
  18   H   :   -0.000047817   -0.000020624   -0.000017865
  19   H   :   -0.000044857   -0.000009478    0.000000719
  20   H   :    0.000025864   -0.000036489   -0.000004939
  21   H   :    0.000035342    0.000003906    0.000007696
  22   H   :    0.000013450    0.000035714   -0.000010604
  23   H   :   -0.000023892    0.000032919    0.000005286
  24   H   :   -0.000050964   -0.000016076    0.000005562

Difference to translation invariance:
           :   -0.0000000000    0.0000000000    0.0000000000

Difference to rotation invariance:
           :    0.0000000000    0.0000000000    0.0000000000

Norm of the Dispersion gradient    ...    0.0003703612
RMS gradient                       ...    0.0000436475
MAX gradient                       ...    0.0001144267
gCP correction                   ... done

------------------
CARTESIAN GRADIENT
------------------

   1   C   :   -0.000373262   -0.000245170    0.000112265
   2   C   :    0.000102804    0.000058860    0.000164019
   3   H   :    0.000084398   -0.000083316   -0.000223317
   4   C   :   -0.000420443    0.000222056    0.000016791
   5   H   :    0.000059720    0.000156173    0.000020641
   6   C   :    0.000187503    0.000505553   -0.000179574
   7   H   :   -0.000015619    0.000004160    0.000019385
   8   C   :    0.000461155    0.000066594    0.000093515
   9   H   :    0.000002154   -0.000044494    0.000067809
  10   C   :    0.000259563   -0.000972474   -0.000190037
  11   H   :   -0.000204208    0.000174151   -0.000156539
  12   O   :    0.000189779    0.000180771   -0.000173947
  13   O   :    0.000058609    0.001863128   -0.000067870
  14   O   :    0.000339602   -0.000704562   -0.000436069
  15   O   :    0.000410580   -0.000118480    0.000482655
  16   O   :    0.000248768   -0.000200515    0.000044425
  17   O   :    0.000448742   -0.000006815   -0.000099037
  18   H   :   -0.000126161   -0.000131499    0.000078305
  19   H   :    0.000156156   -0.000056949   -0.000030812
  20   H   :   -0.000543372   -0.001162840    0.000403580
  21   H   :   -0.000592020    0.000697822    0.000343927
  22   H   :   -0.000514724   -0.000305709   -0.000288379
  23   H   :   -0.000053396   -0.000151546   -0.000088506
  24   H   :   -0.000166328    0.000255103    0.000086771

Difference to translation invariance:
           :   -0.0000000000   -0.0000000000    0.0000000000

Difference to rotation invariance:
           :    0.0004969879   -0.0001327174    0.0004673539

Norm of the Cartesian gradient     ...    0.0032854040
RMS gradient                       ...    0.0003871886
MAX gradient                       ...    0.0018631280

-------
TIMINGS
-------

Total SCF gradient time     ....       19.199 sec

Densities                   ....       0.001 sec  (  0.0%)
One electron gradient       ....       0.651 sec  (  3.4%)
RI-J Coulomb gradient       ....       3.465 sec  ( 18.1%)
XC gradient                 ....      12.121 sec  ( 63.1%)
CPCM gradient               ....       1.631 sec  (  8.5%)
   A-Matrix (El+Nuc)        ....       0.083 sec  (  0.4%)
   Potential                ....       1.548 sec  (  8.1%)
SMD gradient                ....       0.011 sec  (  0.1%)

Maximum memory used throughout the entire SCFGRAD-calculation: 46.1 MB

------------------------------------------------------------------------------
                              ORCA PROPERTY CALCULATIONS
------------------------------------------------------------------------------

GBWName                                 ... xtb_opt.gbw
Number of atoms                         ...     24
Number of basis functions               ...    318
Max core memory                         ...   1024 MB

Electric properties:
Dipole moment                           ... YES
Quadrupole moment                       ...  NO
Static polarizability (Dipole/Dipole)   ...  NO
Static polarizability (Dipole/Quad.)    ...  NO
Static polarizability (Quad./Quad.)     ...  NO
Static polarizability (Velocity)        ...  NO

Atomic electric properties:
Dipole moment                           ...  NO
Quadrupole moment                       ...  NO
Static polarizability                   ...  NO

Choice of electric origin               ... Center of mass
Position of electric origin             ...    -0.003170    -0.024066    -0.026747

General magnetic properties:
Magnetizability                         ...  NO

EPR properties:
g-Tensor (aka g-matrix)                 ...  NO
Zero-Field splitting spin-orbit         ...  NO
Zero-field splitting spin-spin          ...  NO
Hyperfine couplings                     ...  NO (   0 nuclei)
Quadrupole couplings                    ...  NO (   0 nuclei)
Contact density                         ...  NO (   0 nuclei)

NMR properties:
Chemical shifts                         ...  NO (   0 nuclei)
Spin-rotation constants                 ...  NO (   0 nuclei)
Spin-spin couplings                     ...  NO (   0 nuclei,    0 pairs)

Choice of magnetic origin               ... GIAO
Position of magnetic origin             ...     0.000000     0.000000     0.000000

Properties with geometric perturbations:
SCF Hessian                             ...  NO
IR spectrum                             ...  NO
VCD spectrum                            ...  NO
X-ray spectroscopy properties:
SCF XES/XAS/RIXS spectra                ...  NO


-------------
DIPOLE MOMENT
-------------

Method             : SCF
Type of density    : Electron Density
Multiplicity       :   1
Irrep              :   0
Energy             :  -687.1282142736598644 Eh
Relativity type    : 
Basis              : AO
                                X                 Y                 Z
Electronic contribution:      2.287889526      -0.819717942       0.009568071
Nuclear contribution   :     -0.912165829       0.486127781       0.184716091
                        -----------------------------------------
Total Dipole Moment    :      1.375723697      -0.333590161       0.194284162
                        -----------------------------------------
Magnitude (a.u.)       :      1.428861232
Magnitude (Debye)      :      3.631876623



--------------------
Rotational spectrum 
--------------------
 
Rotational constants in cm-1:             0.038867             0.026037             0.016326 
Rotational constants in MHz :          1165.200528           780.581475           489.437278 

Dipole components along the rotational axes: 
x,y,z [a.u.] :     1.211512    -0.739992     0.162157 
x,y,z [Debye]:     3.079420    -1.880909     0.412170 

 

Dipole moment calculation done in   0.0 sec 

Maximum memory used throughout the entire PROP-calculation: 24.4 MB

--------------------------------
SUGGESTED CITATIONS FOR THIS RUN
--------------------------------

Below you find a list of papers that are relevant to this ORCA run
We neither can nor want to force you to cite these papers, but we appreciate if you do
You receive ORCA, which is the product of decades of hard work by many enthusiastic individuals, for free
The only thing we kindly ask in return is that you cite our papers,
We deeply appreciate it, if you show your appreciation for ORCA by not just citing the generic ORCA reference.

Please note that relegating all ORCA citations to the supporting information does *not* help us.
SI sections are not indexed - citations you put there will not count into any citation statistics
But we need these citations in order to attract the funding resources that allow us to do what we are doing

Therefore, if you are a happy ORCA user, please consider citing a few of the papers listed below in the main body of your paper

In addition to the list printed below, the program has created the file xtb_opt.bibtex that contains the list in bibtex format
You can import this file easily into all common literature databanks and citation aid programs


List of essential papers. We consider these as the minimum necessary citations

  1. Neese,F.
     Software update: the ORCA program system, version 5.0
     WIRES Comput. Molec. Sci., 2022 12(1)e1606
     doi.org/10.1002/wcms.1606
  2. Grimme,S.; Hansen,A.; Ehlert,S.; Mewes,J.
     r2SCAN-3c: A 'Swiss army knife' composite electronic-structure method
     J. Chem. Phys., 2021 154 064103
     doi.org/10.1063/5.0040021

List of papers to cite with high priority. The work reported in these papers was absolutely
necessary for this run to complete.
Our perspective: the developers of density functionals and basis sets usually get cited in chemistry papers
Good! But without the algorithms to do something with them, the functionals or basis sets would not do anything.
Hence, in our opinion, the algorithm design and method developments papers are equally worthy of getting cited

  1. Neese,F.
     An improvement of the resolution of the identity approximation for the formation of the Coulomb matrix
     J. Comp. Chem., 2003 24(14)1740-1747
     doi.org/10.1002/jcc.10318
  2. Garcia-Rates,M.; Neese,F.
     Effect of the Solute Cavity on the Solvation Energy and its Derivatives within the Framework of the Gaussian Charge Scheme
     J. Comput. Chem., 2020 41 922-939
     doi.org/10.1002/jcc.26139
  3. Neese,F.
     The SHARK Integral Generation and Digestion System
     J. Comp. Chem., 2022  1-16
     doi.org/10.1002/jcc.26942
  4. Lehtola,S.; Steigemann,C.; Oliveira,M.; Marques,M.
     Recent developments in Libxc - A comprehensive library of functionals for density functional theory
     Software X, 2018 7 
     doi.org/10.1016/j.softx.2017.11.002
  5. Caldeweyher,E.; Bannwarth,C.; Grimme,S.
     Extension of the D3 dispersion coefficient model
     J. Chem. Phys., 2017 147 034112-XXXX
     doi.org/10.1063/1.4993215
  6. Caldeweyher,E.; Ehlert,S.; Hansen,A.; Neugebauer,H.; Spicher,S.; Bannwarth,C.; Grimme,S.
     A generally applicable atomic-charge dependent London dispersion correction
     J. Chem. Phys., 2019 150 154122-XXXX
     doi.org/10.1063/1.5090222
  7. Caldeweyher,E.; Mewes,J.; Ehlert,S.; Grimme,S.
     Extension and evaluation of the D4 London-dispersion model for periodic systems
     Phys. Chem. Chem. Phys., 2020 22(16)8499-8512
     doi.org/10.1039/D0CP00502A

List of suggested additional citations. These are papers that are important in the 'surrounding' of 
of this run, or papers that preceded the highly important papers. If you like your results we are grateful for a citation.

  1. Neese,F.
     The ORCA program system
     WIRES Comput. Molec. Sci., 2012 2(1)73-78
     doi.org/10.1002/wcms.81
  2. Neese,F.
     Software update: the ORCA program system, version 4.0
     WIRES Comput. Molec. Sci., 2018 8(1)1-6
     doi.org/10.1002/wcms.1327
  3. Neese,F.; Wennmohs,F.; Becker,U.; Riplinger,C.
     The ORCA quantum chemistry program package
     J. Chem. Phys., 2020 152 Art. No. L224108
     doi.org/10.1063/5.0004608

List of optional additional citations

  1. Neese,F.
     Approximate second-order SCF convergence for spin unrestricted wavefunctions
     Chem. Phys. Lett., 2000 325(1-3)93-98
     doi.org/10.1016/s0009-2614(00)00662-x

Timings for individual modules:

Sum of individual times          ...       44.357 sec (=   0.739 min)
Startup calculation              ...        1.952 sec (=   0.033 min)   4.4 %
SCF iterations                   ...       22.961 sec (=   0.383 min)  51.8 %
Property calculations            ...        0.114 sec (=   0.002 min)   0.3 %
SCF Gradient evaluation          ...       19.330 sec (=   0.322 min)  43.6 %
                             ****ORCA TERMINATED NORMALLY****
TOTAL RUN TIME: 0 days 0 hours 0 minutes 45 seconds 304 msec
  ------------------------------------------------------------------------
          * successful ORCA run, taking over control again...

         :::::::::::::::::::::::::::::::::::::::::::::::::::::
         ::                  ORCA SUMMARY                   ::
         :::::::::::::::::::::::::::::::::::::::::::::::::::::
         :: total energy            -687.117279712583 Eh    ::
         :: gradient norm              0.003285404031 Eh/a0 ::
         :: HOMO-LUMO gap              0.000000000000 eV    ::
         :::::::::::::::::::::::::::::::::::::::::::::::::::::

      ----------------------------------------------------------- 
     |                       L-ANC optimizer                     |
      ----------------------------------------------------------- 
          low memory version by Sebastian Ehlert

          ...................................................
          :                      SETUP                      :
          :.................................................:
          :   energy convergence        0.5000000E-05 Eh    :
          :   grad. convergence         0.1000000E-02 Eh/a0 :
          :   optimization log               true           :
          :   writing optlog all                1     steps :
          :   Hessian reset                     8     steps :
          :   maximium step len.        1.0000000     a0    :
          :   LBFGS images                      8           :
          ...................................................
 * calculating model hessian...
Using Lindh-Hessian (1995)
 Shifting diagonal of input Hessian by   1.000000000000000E-002
 Lowest  eigenvalues of input Hessian
    0.000000    0.000000    0.000000    0.000000    0.000000    0.000000
    0.012765    0.014463    0.015863    0.016200    0.019511    0.024239
    0.024981    0.025790    0.028857    0.032868    0.035186    0.039822
 Highest eigenvalues
    1.407812    1.441492    1.458378    1.466183    1.493260    1.574802
 

........................................................................
.............................. CYCLE    1 ..............................
........................................................................
                         * ORCA takes the control...
  ------------------------------------------------------------------------

                                 *****************
                                 * O   R   C   A *
                                 *****************

                                            #,                                       
                                            ###                                      
                                            ####                                     
                                            #####                                    
                                            ######                                   
                                           ########,                                 
                                     ,,################,,,,,                         
                               ,,#################################,,                 
                          ,,##########################################,,             
                       ,#########################################, ''#####,          
                    ,#############################################,,   '####,        
                  ,##################################################,,,,####,       
                ,###########''''           ''''###############################       
              ,#####''   ,,,,##########,,,,          '''####'''          '####       
            ,##' ,,,,###########################,,,                        '##       
           ' ,,###''''                  '''############,,,                           
         ,,##''                                '''############,,,,        ,,,,,,###''
      ,#''                                            '''#######################'''  
     '                                                          ''''####''''         
             ,#######,   #######,   ,#######,      ##                                
            ,#'     '#,  ##    ##  ,#'     '#,    #''#        ,####,   ,####,        
            ##       ##  ##   ,#'  ##            #'  '#       #'       #'  '#        
            ##       ##  #######   ##           ,######,      #####,   #    #        
            '#,     ,#'  ##    ##  '#,     ,#' ,#      #,     #,   #   #,  ,#        
             '#######'   ##     ##  '#######'  #'      '#     '####' # '####'        



                #########################################################
                #                        -***-                          #
                #          Department of theory and spectroscopy        #
                #                                                       #
                #                      Frank Neese                      #
                #                                                       #
                #     Directorship, Architecture, Infrastructure        #
                #                    SHARK, DRIVERS                     #
                #        Core code/Algorithms in most modules           #
                #                                                       #
                #        Max Planck Institute fuer Kohlenforschung      #
                #                Kaiser Wilhelm Platz 1                 #
                #                 D-45470 Muelheim/Ruhr                 #
                #                      Germany                          #
                #                                                       #
                #                  All rights reserved                  #
                #                        -***-                          #
                #########################################################


                         Program Version 6.0.0  -   RELEASE  -


 With contributions from (in alphabetic order):
   Daniel Aravena         : Magnetic Suceptibility
   Michael Atanasov       : Ab Initio Ligand Field Theory (pilot matlab implementation)
   Alexander A. Auer      : GIAO ZORA, VPT2 properties, NMR spectrum
   Ute Becker             : All parallelization in ORCA, NUMFREQ, NUMCALC
   Giovanni Bistoni       : ED, misc. LED, open-shell LED, HFLD
   Martin Brehm           : Molecular dynamics
   Dmytro Bykov           : pre 5.0 version of the SCF Hessian
   Marcos Casanova-Páez   : Triplet and SCS-CIS(D). UHF-(DLPNO)-IP/EA/STEOM-CCSD. UHF-CVS-IP/STEOM-CCSD
   Vijay G. Chilkuri      : MRCI spin determinant printing, contributions to CSF-ICE
   Pauline Colinet        : FMM embedding
   Dipayan Datta          : RHF DLPNO-CCSD density
   Achintya Kumar Dutta   : EOM-CC, STEOM-CC
   Nicolas Foglia         : Exact transition moments, OPA infrastructure, MCD improvements
   Dmitry Ganyushin       : Spin-Orbit,Spin-Spin,Magnetic field MRCI
   Miquel Garcia          : C-PCM and meta-GGA Hessian, CCSD/C-PCM, Gaussian charge scheme
   Tiago L. C. Gouveia    : GS-ROHF, GS-ROCIS
   Yang Guo               : DLPNO-NEVPT2, F12-NEVPT2, CIM, IAO-localization
   Andreas Hansen         : Spin unrestricted coupled pair/coupled cluster methods
   Ingolf Harden          : AUTO-CI MPn and infrastructure 
   Benjamin Helmich-Paris : MC-RPA, TRAH-(SCF,CASSCF), AVAS, COSX integrals, SCF dyn. polar.
   Lee Huntington         : MR-EOM, pCC
   Robert Izsak           : Overlap fitted RIJCOSX, COSX-SCS-MP3, EOM
   Riya Kayal             : Wick's Theorem for AUTO-CI, AUTO-CI UHF-CCSDT
   Emily Kempfer          : AUTO-CI, RHF CISDT and CCSDT
   Christian Kollmar      : KDIIS, OOCD, Brueckner-CCSD(T), CCSD density, CASPT2, CASPT2-K, improved NEVPT2
   Axel Koslowski         : Symmetry handling
   Simone Kossmann        : Meta GGA functionals, TD-DFT gradient, OOMP2, (MP2 Hessian; deprecated post 5.0)
   Lucas Lang             : DCDCAS
   Marvin Lechner         : AUTO-CI (C++ implementation), FIC-MRCC
   Spencer Leger          : CASSCF response
   Dagmar Lenk            : GEPOL surface, SMD, ORCA-2-JSON
   Dimitrios Liakos       : Extrapolation schemes; Compound Job, initial MDCI parallelization
   Dimitrios Manganas     : Further ROCIS development; embedding schemes. LFT, Crystal Embedding
   Dimitrios Pantazis     : SARC Basis sets
   Anastasios Papadopoulos: AUTO-CI, single reference methods and gradients
   Taras Petrenko         : pre 6.0 DFT Hessian and TD-DFT gradient, (ASA, deprecated), ECA, 1-Electron XAS/XES, NRVS
   Peter Pinski           : DLPNO-MP2, DLPNO-MP2 Gradient
   Christoph Reimann      : Effective Core Potentials
   Marius Retegan         : Local ZFS, SOC
   Christoph Riplinger    : Optimizer, TS searches, QM/MM, DLPNO-CCSD(T), (RO)-DLPNO pert. Triples
   Michael Roemelt        : Original ROCIS implementation
   Masaaki Saitow         : Open-shell DLPNO-CCSD energy and density
   Barbara Sandhoefer     : DKH picture change effects
   Kantharuban Sivalingam : CASSCF convergence/infrastructure, NEVPT2 and variants, FIC-MRCI
   Bernardo de Souza      : ESD, SOC TD-DFT
   Georgi Stoychev        : AutoAux, RI-MP2 NMR, DLPNO-MP2 response, X2C
   Van Anh Tran           : RI-MP2 g-tensors
   Willem Van den Heuvel  : Paramagnetic NMR
   Zikuan Wang            : NOTCH, Electric field optimization 
   Frank Wennmohs         : Technical directorship and infrastructure
   Hang Xu                : AUTO-CI-Response properties 


 We gratefully acknowledge several colleagues who have allowed us to
 interface, adapt or use parts of their codes:
   Stefan Grimme, W. Hujo, H. Kruse, P. Pracht,  : VdW corrections, initial TS optimization,
                  C. Bannwarth, S. Ehlert,         DFT functionals, gCP, sTDA/sTD-DF
                  L. Wittmann, M. Mueller
   Ed Valeev, F. Pavosevic, A. Kumar             : LibInt (2-el integral package), F12 methods
   Garnet Chan, S. Sharma, J. Yang, R. Olivares  : DMRG
   Ulf Ekstrom                                   : XCFun DFT Library
   Mihaly Kallay                                 : mrcc  (arbitrary order and MRCC methods)
   Frank Weinhold                                : gennbo (NPA and NBO analysis)
   Simon Mueller                                 : openCOSMO-RS
   Christopher J. Cramer and Donald G. Truhlar   : smd solvation model
   Lars Goerigk                                  : TD-DFT with DH, B97 family of functionals
   V. Asgeirsson, H. Jonsson                     : NEB implementation
   FAccTs GmbH                                   : IRC, NEB, NEB-TS, DLPNO-Multilevel, CI-OPT
                                                   MM, QMMM, 2- and 3-layer-ONIOM, Crystal-QMMM,
                                                   LR-CPCM, SF, NACMEs, symmetry and pop. for TD-DFT,
                                                   nearIR, NL-DFT gradient (VV10), updates on ESD,
                                                   ML-optimized integration grids, MBIS, APM,
                                                   GOAT, DOCKER, SOLVATOR, interface openCOSMO-RS
   S Lehtola, MJT Oliveira, MAL Marques          : LibXC Library
   Liviu Ungur et al                             : ANISO software


 Your calculation uses the libint2 library for the computation of 2-el integrals
 For citations please refer to: http://libint.valeyev.net

 Your ORCA version has been built with support for libXC version: 6.2.2
 For citations please refer to: https://libxc.gitlab.io

 This ORCA versions uses:
   CBLAS   interface :  Fast vector & matrix operations
   LAPACKE interface :  Fast linear algebra routines
   SCALAPACK package :  Parallel linear algebra routines
   Shared memory     :  Shared parallel matrices
   BLAS/LAPACK       :  OpenBLAS 0.3.27  USE64BITINT DYNAMIC_ARCH NO_AFFINITY SkylakeX SINGLE_THREADED
        Core in use  :  SkylakeX
   Copyright (c) 2011-2014, The OpenBLAS Project




***************************************
The coordinates will be read from file: xtb_opt.xyz
***************************************


Your calculation utilizes the geometrical counterpoise correction gCP
Please cite in your paper:
H.Kruse, S. Grimme J.Chem.Phys., 136, (2012), 154101 
   

Your calculation utilizes the atom-pairwise dispersion correction
based on EEQ partial charges (D4)


Your calculation utilizes the SMD solvation module
Please cite in your paper:
A.V. Marenich, C.J. Cramer, D.G. Truhlar J. Phys. Chem. B, 113, (2009), 6378 

================================================================================

----- Orbital basis set information -----
Your calculation utilizes the basis: def2-mTZVPP
   Stefan Grimme, Andreas Hansen, Sebastian Ehlert, and Jan-Michael Mewes 
   J. Chem. Phys. 154, 064103 (2021). DOI: 10.1063/5.0040021

----- AuxJ basis set information -----
Your calculation utilizes the auxiliary basis: def2/J
   F. Weigend, Phys. Chem. Chem. Phys. 8, 1057 (2006).

================================================================================
                                        WARNINGS
                       Please study these warnings very carefully!
================================================================================

WARNING: Old DensityContainer found on disk!
         Will remove this file - 
         If you want to keep old densities, please start your calculation with a different basename. 

Using LibXC functional ID 497 : Re-regularized SCAN exchange by Furness et al
[ 1]  J. W. Furness, A. D. Kaplan, J. Ning, J. P. Perdew, and J. Sun.,  J. Phys. Chem. Lett. 11, 8208-8215 (2020)
[ 2]  J. W. Furness, A. D. Kaplan, J. Ning, J. P. Perdew, and J. Sun.,  J. Phys. Chem. Lett. 11, 9248-9248 (2020)
Using LibXC functional ID 498 : Re-regularized SCAN correlation by Furness et al
[ 1]  J. W. Furness, A. D. Kaplan, J. Ning, J. P. Perdew, and J. Sun.,  J. Phys. Chem. Lett. 11, 8208-8215 (2020)
[ 2]  J. W. Furness, A. D. Kaplan, J. Ning, J. P. Perdew, and J. Sun.,  J. Phys. Chem. Lett. 11, 9248-9248 (2020)
Using LibXC functional ID 497 : Re-regularized SCAN exchange by Furness et al
[ 1]  J. W. Furness, A. D. Kaplan, J. Ning, J. P. Perdew, and J. Sun.,  J. Phys. Chem. Lett. 11, 8208-8215 (2020)
[ 2]  J. W. Furness, A. D. Kaplan, J. Ning, J. P. Perdew, and J. Sun.,  J. Phys. Chem. Lett. 11, 9248-9248 (2020)
Using LibXC functional ID 498 : Re-regularized SCAN correlation by Furness et al
[ 1]  J. W. Furness, A. D. Kaplan, J. Ning, J. P. Perdew, and J. Sun.,  J. Phys. Chem. Lett. 11, 8208-8215 (2020)
[ 2]  J. W. Furness, A. D. Kaplan, J. Ning, J. P. Perdew, and J. Sun.,  J. Phys. Chem. Lett. 11, 9248-9248 (2020)

================================================================================
                                       INPUT FILE
================================================================================
NAME = xtb_opt.inp
|  1> ! r2scan-3c def2/J RI DEFGRID2 scfconv7 ENGRAD tightSCF miniprint
|  2> %cpcm
|  3>     smd true
|  4>     smdsolvent "water"
|  5> end
|  6> * xyzfile 0 1 xtb_opt.xyz
|  7> 
|  8>                          ****END OF INPUT****
================================================================================

                     *******************************
                     * Energy+Gradient Calculation *
                     *******************************

---------------------------------
CARTESIAN COORDINATES (ANGSTROEM)
---------------------------------
  C     -2.588234   -0.611043   -0.315538
  C     -1.206477   -0.267877    0.202938
  H     -1.219146   -0.244674    1.304749
  C     -0.694313    1.070306   -0.327969
  H     -0.714115    1.052049   -1.429251
  C      0.738784    1.291901    0.140105
  H      0.731228    1.412588    1.235176
  C      1.623894    0.102735   -0.209702
  H      1.718080    0.017753   -1.302605
  C      0.986145   -1.179441    0.317085
  H      0.905646   -1.154336    1.416464
  O     -0.325247   -1.311672   -0.246740
  O      1.757003   -2.267646   -0.114887
  O      2.899124    0.333949    0.394122
  O      1.204818    2.495277   -0.481228
  O     -1.554777    2.099057    0.169297
  O     -3.086276   -1.823737    0.261137
  H     -2.558911   -0.683011   -1.412437
  H     -3.288043    0.179484   -0.035952
  H      1.522149   -3.038739    0.419947
  H      3.519621   -0.305759    0.021762
  H      2.048091    2.728125   -0.071092
  H     -1.180167    2.943703   -0.116026
  H     -2.485080   -2.532578   -0.003225

----------------------------
CARTESIAN COORDINATES (A.U.)
----------------------------
  NO LB      ZA    FRAG     MASS         X           Y           Z
   0 C     6.0000    0    12.011   -4.891053   -1.154704   -0.596281
   1 C     6.0000    0    12.011   -2.279910   -0.506214    0.383498
   2 H     1.0000    0     1.008   -2.303853   -0.462366    2.465618
   3 C     6.0000    0    12.011   -1.312061    2.022585   -0.619771
   4 H     1.0000    0     1.008   -1.349481    1.988084   -2.700893
   5 C     6.0000    0    12.011    1.396100    2.441340    0.264761
   6 H     1.0000    0     1.008    1.381821    2.669404    2.334144
   7 C     6.0000    0    12.011    3.068715    0.194141   -0.396279
   8 H     1.0000    0     1.008    3.246701    0.033547   -2.461567
   9 C     6.0000    0    12.011    1.863543   -2.228820    0.599204
  10 H     1.0000    0     1.008    1.711423   -2.181379    2.676729
  11 O     8.0000    0    15.999   -0.614628   -2.478700   -0.466271
  12 O     8.0000    0    15.999    3.320254   -4.285229   -0.217105
  13 O     8.0000    0    15.999    5.478551    0.631072    0.744783
  14 O     8.0000    0    15.999    2.276776    4.715391   -0.909388
  15 O     8.0000    0    15.999   -2.938102    3.966642    0.319926
  16 O     8.0000    0    15.999   -5.832216   -3.446364    0.493477
  17 H     1.0000    0     1.008   -4.835640   -1.290703   -2.669119
  18 H     1.0000    0     1.008   -6.213500    0.339176   -0.067939
  19 H     1.0000    0     1.008    2.876445   -5.742384    0.793585
  20 H     1.0000    0     1.008    6.651120   -0.577801    0.041124
  21 H     1.0000    0     1.008    3.870330    5.155409   -0.134344
  22 H     1.0000    0     1.008   -2.230193    5.562792   -0.219257
  23 H     1.0000    0     1.008   -4.696121   -4.785879   -0.006094

------------------------------------------------------------------------------
                   ___                                                        
                  /   \      - P O W E R E D   B Y -                         
                 /     \                                                     
                 |  |  |   _    _      __       _____    __    __             
                 |  |  |  | |  | |    /  \     |  _  \  |  |  /  |          
                  \  \/   | |  | |   /    \    | | | |  |  | /  /          
                 / \  \   | |__| |  /  /\  \   | |_| |  |  |/  /          
                |  |  |   |  __  | /  /__\  \  |    /   |      \           
                |  |  |   | |  | | |   __   |  |    \   |  |\   \          
                \     /   | |  | | |  |  |  |  | |\  \  |  | \   \       
                 \___/    |_|  |_| |__|  |__|  |_| \__\ |__|  \__/        
                                                                              
                      - O R C A' S   B I G   F R I E N D -                    
                                      &                                       
                       - I N T E G R A L  F E E D E R -                       
                                                                              
 v1 FN, 2020, v2 2021, v3 2022-2024                                           
------------------------------------------------------------------------------


----------------------
SHARK INTEGRAL PACKAGE
----------------------

Number of atoms                             ...     24
Number of basis functions                   ...    318
Number of shells                            ...    150
Maximum angular momentum                    ...      2
Integral batch strategy                     ... SHARK/LIBINT Hybrid
RI-J (if used) integral strategy            ... SPLIT-RIJ (Revised 2003 algorithm where possible)
Printlevel                                  ...      1
Contraction scheme used                     ... SEGMENTED contraction
Prescreening option                         ... SCHWARTZ
   Thresh                                   ... 3.000e-11
   Tcut                                     ... 1.000e-12
   Tpresel                                  ... 1.000e-12 
Coulomb Range Separation                    ... NOT USED
Exchange Range Separation                   ... NOT USED
Multipole approximations                    ... NOT USED
Finite Nucleus Model                        ... NOT USED
CABS basis                                  ... NOT available
Auxiliary Coulomb fitting basis             ... AVAILABLE
   # of basis functions in Aux-J            ...    720
   # of shells in Aux-J                     ...    240
   Maximum angular momentum in Aux-J        ...      4
Auxiliary J/K fitting basis                 ... NOT available
Auxiliary Correlation fitting basis         ... NOT available
Auxiliary 'external' fitting basis          ... NOT available

Checking pre-screening integrals            ... done (  0.0 sec) Dimension = 150
Check shell pair data                       ... done (  0.0 sec)
Shell pair information
Shell pair cut-off parameter TPreSel        ...   1.0e-12
Total number of shell pairs                 ...     11325
Shell pairs after pre-screening             ...      9770
Total number of primitive shell pairs       ...     40203
Primitive shell pairs kept                  ...     23780
          la=0 lb=0:   2952 shell pairs
          la=1 lb=0:   3491 shell pairs
          la=1 lb=1:   1047 shell pairs
          la=2 lb=0:   1331 shell pairs
          la=2 lb=1:    791 shell pairs
          la=2 lb=2:    158 shell pairs

Calculating one electron integrals          ... done (  0.0 sec)
Calculating RI/J V-Matrix + Cholesky decomp.... done (  0.1 sec)
Calculating Nuclear repulsion               ... done (  0.0 sec) ENN=    822.109634558695 Eh

Diagonalization of the overlap matrix:
Smallest eigenvalue                        ... 2.855e-05
Time for diagonalization                   ...    0.010 sec
Threshold for overlap eigenvalues          ... 1.000e-07
Number of eigenvalues below threshold      ... 0
Time for construction of square roots      ...    0.022 sec
Total time needed                          ...    0.044 sec

-------------------
DFT GRID GENERATION
-------------------

General Integration Accuracy     IntAcc      ... 4.388
Radial Grid Type                 RadialGrid  ... OptM3 with GC (2021)
Angular Grid (max. ang.)         AngularGrid ... 4 (Lebedev-302)
Angular grid pruning method      GridPruning ... 4 (adaptive)
Weight generation scheme         WeightScheme... mBecke (2022)
Basis function cutoff            BFCut       ... 1.0000e-11
Integration weight cutoff        WCut        ... 1.0000e-14
Partially contracted basis set               ... off
Rotationally invariant grid construction     ... off
Angular grids for H and He will be reduced by one unit
Diffuse basis detected: some atoms will have their outermost
                        angular grid increased by 1.

Total number of grid points                  ...   112068
Total number of batches                      ...     1763
Average number of points per batch           ...       63
Average number of grid points per atom       ...     4670
Initializing property integral containers    ... done (  0.0 sec)

SHARK setup successfully completed in   1.7 seconds

Maximum memory used throughout the entire STARTUP-calculation: 55.1 MB
Occupation numbers will be reassigned to an Aufbau configuration
             **** ENERGY FILE WAS UPDATED (xtb_opt.en.tmp) ****
Finished Guess after   0.3 sec
Maximum memory used throughout the entire GUESS-calculation: 25.8 MB
--------------------
CPCM SOLVATION MODEL
--------------------
CPCM parameters:
  Epsilon                                         ...      78.3550
  Refrac                                          ...       1.3328
  Rsolv                                           ...       1.3000
  Surface type                                    ... GAUSSIAN VDW
  Discretization scheme                           ... Constant charge density
    Threshold for H atoms                         ...       5.0000 (charges/Ang^2)
    Threshold for non-H atoms                     ...       5.0000 (charges/Ang^2)
  Epsilon function type                           ...         CPCM
Solvent:                                          ... WATER
SMD-CDS solvent descriptors:
  Soln                                            ...       1.3328
  Soln25                                          ...       1.3323
  Sola                                            ...       0.0000
  Solb                                            ...       0.0000
  Solg                                            ...       0.0000
  Solc                                            ...       0.0000
  Solh                                            ...       0.0000
Radii:
  Scheme                                          ... Element-dependent radii
  Radius for C  used is    3.4960 Bohr (=   1.8500 Ang.)
  Radius for H  used is    2.2677 Bohr (=   1.2000 Ang.)
  Radius for O  used is    2.8724 Bohr (=   1.5200 Ang.)
Calculating surface                               ...        done! (  0.0s)
Cavity surface points                             ...         1617
Cavity Volume                                     ...    1044.2366
Cavity Surface-area                               ...     670.7608
Calculating surface distance matrix               ...        done! (  0.0s)
Performing Cholesky decomposition & store         ...        done! (  0.1s)
Overall time for CPCM initialization              ...                 0.1s

----------------------------------------D-I-I-S--------------------------------------------
Iteration    Energy (Eh)           Delta-E    RMSDP     MaxDP     DIISErr   Damp  Time(sec)
-------------------------------------------------------------------------------------------
               ***  Starting incremental Fock matrix formation  ***
                              *** Initializing SOSCF ***
---------------------------------------S-O-S-C-F--------------------------------------
Iteration    Energy (Eh)           Delta-E    RMSDP     MaxDP     MaxGrad    Time(sec)
--------------------------------------------------------------------------------------
    1    -687.1346725561713811     0.00e+00  6.43e-05  1.96e-03  8.45e-05     6.2
               *** Restarting incremental Fock matrix formation ***
    2    -687.1346958918704786    -2.33e-05  2.23e-05  1.10e-03  8.14e-05     6.2
    3    -687.1346970067629627    -1.11e-06  1.09e-05  6.70e-04  4.43e-05     4.5
    4    -687.1346969922551580     1.45e-08  6.31e-06  2.50e-04  3.71e-05     4.4
                 **** Energy Check signals convergence ****

               *****************************************************
               *                     SUCCESS                       *
               *           SCF CONVERGED AFTER   4 CYCLES          *
               *****************************************************


SMD CDS free energy correction energy :                 4.05981     Kcal/mol
Total Energy after SMD CDS correction =              -687.128227277 Eh
             **** ENERGY FILE WAS UPDATED (xtb_opt.en.tmp) ****

----------------
TOTAL SCF ENERGY
----------------

Total Energy       :       -687.12822727740479 Eh          -18697.70964 eV

Components:
Nuclear Repulsion  :        822.10963455869501 Eh           22370.74046 eV
Electronic Energy  :      -1509.19746974051509 Eh          -41067.35098 eV
One Electron Energy:      -2574.58445207536079 Eh          -70058.00462 eV
Two Electron Energy:       1065.38698233484570 Eh           28990.65365 eV
CPCM Dielectric    :         -0.04686181043519 Eh              -1.27517 eV
SMD CDS (Gcds)     :          0.00646971485033 Eh               0.17605 eV

Virial components:
Potential Energy   :      -1371.31366272398509 Eh          -37315.34184 eV
Kinetic Energy     :        684.18543544658030 Eh           18617.63220 eV
Virial Ratio       :          2.00430116117410

DFT components:
N(Alpha)           :       48.000020255765 electrons
N(Beta)            :       48.000020255765 electrons
N(Total)           :       96.000040511531 electrons
E(X)               :      -85.237076004715 Eh       
E(C)               :       -3.188261704150 Eh       
E(XC)              :      -88.425337708865 Eh       

CPCM Solvation Model Properties:
Surface-charge          :         -0.05094827780857
Corrected charge        :         -0.00000000000000
Outlying charge corr.   :          0.00018701676789 Eh               0.00509 eV
Free-energy (cav+disp)  :          0.00646971485033 Eh               0.17605 eV

---------------
SCF CONVERGENCE
---------------

  Last Energy change         ...   -1.4508e-08  Tolerance :   1.0000e-07
  Last MAX-Density change    ...    2.4950e-04  Tolerance :   1.0000e-07
  Last RMS-Density change    ...    6.3108e-06  Tolerance :   5.0000e-09
  Last DIIS Error            ...    1.5758e-03  Tolerance :   1.0000e-07
  Last Orbital Gradient      ...    3.7061e-05  Tolerance :   1.0000e-04
  Last Orbital Rotation      ...    3.9109e-05  Tolerance :   1.0000e-04


----------------
ORBITAL ENERGIES
----------------

  NO   OCC          E(Eh)            E(eV) 
   0   2.0000     -18.972974      -516.2809 
   1   2.0000     -18.972162      -516.2588 
   2   2.0000     -18.963571      -516.0250 
   3   2.0000     -18.962057      -515.9838 
   4   2.0000     -18.961216      -515.9609 
   5   2.0000     -18.957376      -515.8564 
   6   2.0000     -10.137741      -275.8619 
   7   2.0000     -10.091402      -274.6010 
   8   2.0000     -10.090799      -274.5846 
   9   2.0000     -10.090325      -274.5717 
  10   2.0000     -10.088915      -274.5333 
  11   2.0000     -10.078486      -274.2495 
  12   2.0000      -1.043847       -28.4045 
  13   2.0000      -1.007861       -27.4253 
  14   2.0000      -0.998862       -27.1804 
[...]
  30   2.0000      -0.426041       -11.5932 
  31   2.0000      -0.420473       -11.4417 
  32   2.0000      -0.407335       -11.0842 
  33   2.0000      -0.395120       -10.7518 
  34   2.0000      -0.381167       -10.3721 
  35   2.0000      -0.380340       -10.3496 
  36   2.0000      -0.348866        -9.4931 
  37   2.0000      -0.331960        -9.0331 
  38   2.0000      -0.328026        -8.9260 
  39   2.0000      -0.323231        -8.7956 
  40   2.0000      -0.317327        -8.6349 
  41   2.0000      -0.304313        -8.2808 
  42   2.0000      -0.281640        -7.6638 
  43   2.0000      -0.266679        -7.2567 
  44   2.0000      -0.258744        -7.0408 
  45   2.0000      -0.252525        -6.8716 
  46   2.0000      -0.246774        -6.7151 
  47   2.0000      -0.235140        -6.3985 
  48   0.0000       0.034455         0.9376 
  49   0.0000       0.055296         1.5047 
  50   0.0000       0.078839         2.1453 
  51   0.0000       0.081973         2.2306 
  52   0.0000       0.094049         2.5592 
  53   0.0000       0.095035         2.5860 
  54   0.0000       0.114570         3.1176 
  55   0.0000       0.125103         3.4042 
  56   0.0000       0.133052         3.6205 
  57   0.0000       0.143237         3.8977 
  58   0.0000       0.151807         4.1309 
*Only the first 10 virtual orbitals were printed.
Total SCF time: 0 days 0 hours 0 min 13 sec 
Finished LeanSCF after  13.5 sec

Maximum memory used throughout the entire LEANSCF-calculation: 42.9 MB


-------------------------------------------------------------------------------
                          DFT DISPERSION CORRECTION                            
                                                                               
                                DFTD4 V3.4.0                                   
-------------------------------------------------------------------------------
-------------------------   ----------------
Dispersion correction           -0.007924702
-------------------------   ----------------

------------------   -----------------
gCP correction             0.018850120
------------------   -----------------

-------------------------   --------------------
FINAL SINGLE POINT ENERGY      -687.117340299777
-------------------------   --------------------

------------------------------------------------------------------------------
                         ORCA SCF GRADIENT CALCULATION
------------------------------------------------------------------------------

Nuc. rep. gradient        (SHARK) ... done (  0.0 sec)
HCore & Overlap gradient  (SHARK) ... done (  0.6 sec)
Split-RIJ-J gradient      (SHARK) ... done (  3.5 sec)
XC gradient                       ... done ( 11.9 sec)
CPCM gradient                     ... done (  1.7 sec)
SMD gradient                      ... done (  0.0 sec)
Dispersion correction             ... done (  0.0 sec)

-------------------
DISPERSION GRADIENT
-------------------

   1   C   :   -0.000110121   -0.000025225   -0.000020259
   2   C   :   -0.000048199   -0.000020828    0.000012378
   3   H   :   -0.000037332   -0.000008577    0.000024912
   4   C   :   -0.000033347    0.000057978   -0.000017065
   5   H   :   -0.000018135    0.000033293   -0.000026157
   6   C   :    0.000035677    0.000057168    0.000008740
   7   H   :    0.000018093    0.000039200    0.000018621
   8   C   :    0.000077029   -0.000005068   -0.000007708
   9   H   :    0.000042980   -0.000003031   -0.000021064
  10   C   :    0.000041985   -0.000046651    0.000020867
  11   H   :    0.000030563   -0.000037170    0.000019032
  12   O   :   -0.000008767   -0.000069596   -0.000001430
  13   O   :    0.000067047   -0.000106896    0.000009684
  14   O   :    0.000114292   -0.000002884    0.000005067
  15   O   :    0.000055377    0.000106254   -0.000010114
  16   O   :   -0.000054422    0.000112127    0.000001188
  17   O   :   -0.000078991   -0.000070028   -0.000001187
  18   H   :   -0.000048042   -0.000020570   -0.000018045
  19   H   :   -0.000044792   -0.000009443    0.000000568
  20   H   :    0.000025069   -0.000036520   -0.000004941
  21   H   :    0.000035310    0.000003967    0.000007231
  22   H   :    0.000013483    0.000035751   -0.000010754
  23   H   :   -0.000023928    0.000032850    0.000005167
  24   H   :   -0.000050829   -0.000016100    0.000005267

Difference to translation invariance:
           :   -0.0000000000    0.0000000000   -0.0000000000

Difference to rotation invariance:
           :   -0.0000000000   -0.0000000000    0.0000000000

Norm of the Dispersion gradient    ...    0.0003701481
RMS gradient                       ...    0.0000436224
MAX gradient                       ...    0.0001142917
gCP correction                   ... done

------------------
CARTESIAN GRADIENT
------------------

   1   C   :    0.000023064   -0.000035860    0.000024940
   2   C   :    0.000005126    0.000003934   -0.000050700
   3   H   :   -0.000004390   -0.000002487    0.000030481
   4   C   :    0.000019289   -0.000024493    0.000019085
   5   H   :   -0.000001822   -0.000013445   -0.000006770
   6   C   :    0.000009018   -0.000055106    0.000002690
   7   H   :   -0.000023577    0.000003507    0.000011493
   8   C   :   -0.000001835    0.000016228   -0.000008235
   9   H   :   -0.000000162    0.000006008    0.000010879
  10   C   :    0.000002036    0.000014186   -0.000088800
  11   H   :    0.000011911   -0.000005912    0.000055743
  12   O   :   -0.000041498    0.000013063    0.000025708
  13   O   :   -0.000021439   -0.000186732    0.000128766
  14   O   :   -0.000106299    0.000137185    0.000120752
  15   O   :   -0.000156013   -0.000002639   -0.000047442
  16   O   :   -0.000012721    0.000007671    0.000011055
  17   O   :   -0.000059888    0.000045825    0.000021478
  18   H   :    0.000013698    0.000011295   -0.000025778
  19   H   :   -0.000024403    0.000011512    0.000007854
  20   H   :    0.000045001    0.000156726   -0.000166758
  21   H   :    0.000131021   -0.000082961   -0.000097520
  22   H   :    0.000164245    0.000033833    0.000044471
  23   H   :   -0.000025663    0.000019700   -0.000004267
  24   H   :    0.000055301   -0.000071041   -0.000019126

Difference to translation invariance:
           :   -0.0000000000    0.0000000000    0.0000000000

Difference to rotation invariance:
           :    0.0003858795    0.0001185338    0.0007045254

Norm of the Cartesian gradient     ...    0.0005337346
RMS gradient                       ...    0.0000629012
MAX gradient                       ...    0.0001867325

-------
TIMINGS
-------

Total SCF gradient time     ....       18.973 sec

Densities                   ....       0.001 sec  (  0.0%)
One electron gradient       ....       0.642 sec  (  3.4%)
RI-J Coulomb gradient       ....       3.464 sec  ( 18.3%)
XC gradient                 ....      11.858 sec  ( 62.5%)
CPCM gradient               ....       1.655 sec  (  8.7%)
   A-Matrix (El+Nuc)        ....       0.084 sec  (  0.4%)
   Potential                ....       1.571 sec  (  8.3%)
SMD gradient                ....       0.013 sec  (  0.1%)

Maximum memory used throughout the entire SCFGRAD-calculation: 46.0 MB

------------------------------------------------------------------------------
                              ORCA PROPERTY CALCULATIONS
------------------------------------------------------------------------------

GBWName                                 ... xtb_opt.gbw
Number of atoms                         ...     24
Number of basis functions               ...    318
Max core memory                         ...   1024 MB

Electric properties:
Dipole moment                           ... YES
Quadrupole moment                       ...  NO
Static polarizability (Dipole/Dipole)   ...  NO
Static polarizability (Dipole/Quad.)    ...  NO
Static polarizability (Quad./Quad.)     ...  NO
Static polarizability (Velocity)        ...  NO

Atomic electric properties:
Dipole moment                           ...  NO
Quadrupole moment                       ...  NO
Static polarizability                   ...  NO

Choice of electric origin               ... Center of mass
Position of electric origin             ...    -0.007332    -0.026431    -0.030850

General magnetic properties:
Magnetizability                         ...  NO

EPR properties:
g-Tensor (aka g-matrix)                 ...  NO
Zero-Field splitting spin-orbit         ...  NO
Zero-field splitting spin-spin          ...  NO
Hyperfine couplings                     ...  NO (   0 nuclei)
Quadrupole couplings                    ...  NO (   0 nuclei)
Contact density                         ...  NO (   0 nuclei)

NMR properties:
Chemical shifts                         ...  NO (   0 nuclei)
Spin-rotation constants                 ...  NO (   0 nuclei)
Spin-spin couplings                     ...  NO (   0 nuclei,    0 pairs)

Choice of magnetic origin               ... GIAO
Position of magnetic origin             ...     0.000000     0.000000     0.000000

Properties with geometric perturbations:
SCF Hessian                             ...  NO
IR spectrum                             ...  NO
VCD spectrum                            ...  NO
X-ray spectroscopy properties:
SCF XES/XAS/RIXS spectra                ...  NO


-------------
DIPOLE MOMENT
-------------

Method             : SCF
Type of density    : Electron Density
Multiplicity       :   1
Irrep              :   0
Energy             :  -687.1282657172081372 Eh
Relativity type    : 
Basis              : AO
                                X                 Y                 Z
Electronic contribution:      2.280483048      -0.830410466       0.036119720
Nuclear contribution   :     -0.860828512       0.515552205       0.232368747
                        -----------------------------------------
Total Dipole Moment    :      1.419654536      -0.314858260       0.268488467
                        -----------------------------------------
Magnitude (a.u.)       :      1.478729448
Magnitude (Debye)      :      3.758631555



--------------------
Rotational spectrum 
--------------------
 
Rotational constants in cm-1:             0.038866             0.026026             0.016311 
Rotational constants in MHz :          1165.181956           780.239910           488.994986 

Dipole components along the rotational axes: 
x,y,z [a.u.] :     1.260570    -0.735703     0.237368 
x,y,z [Debye]:     3.204115    -1.870010     0.603342 

 

Dipole moment calculation done in   0.0 sec 

Maximum memory used throughout the entire PROP-calculation: 24.4 MB

--------------------------------
SUGGESTED CITATIONS FOR THIS RUN
--------------------------------

Below you find a list of papers that are relevant to this ORCA run
We neither can nor want to force you to cite these papers, but we appreciate if you do
You receive ORCA, which is the product of decades of hard work by many enthusiastic individuals, for free
The only thing we kindly ask in return is that you cite our papers,
We deeply appreciate it, if you show your appreciation for ORCA by not just citing the generic ORCA reference.

Please note that relegating all ORCA citations to the supporting information does *not* help us.
SI sections are not indexed - citations you put there will not count into any citation statistics
But we need these citations in order to attract the funding resources that allow us to do what we are doing

Therefore, if you are a happy ORCA user, please consider citing a few of the papers listed below in the main body of your paper

In addition to the list printed below, the program has created the file xtb_opt.bibtex that contains the list in bibtex format
You can import this file easily into all common literature databanks and citation aid programs


List of essential papers. We consider these as the minimum necessary citations

  1. Neese,F.
     Software update: the ORCA program system, version 5.0
     WIRES Comput. Molec. Sci., 2022 12(1)e1606
     doi.org/10.1002/wcms.1606
  2. Grimme,S.; Hansen,A.; Ehlert,S.; Mewes,J.
     r2SCAN-3c: A 'Swiss army knife' composite electronic-structure method
     J. Chem. Phys., 2021 154 064103
     doi.org/10.1063/5.0040021

List of papers to cite with high priority. The work reported in these papers was absolutely
necessary for this run to complete.
Our perspective: the developers of density functionals and basis sets usually get cited in chemistry papers
Good! But without the algorithms to do something with them, the functionals or basis sets would not do anything.
Hence, in our opinion, the algorithm design and method developments papers are equally worthy of getting cited

  1. Neese,F.
     An improvement of the resolution of the identity approximation for the formation of the Coulomb matrix
     J. Comp. Chem., 2003 24(14)1740-1747
     doi.org/10.1002/jcc.10318
  2. Garcia-Rates,M.; Neese,F.
     Effect of the Solute Cavity on the Solvation Energy and its Derivatives within the Framework of the Gaussian Charge Scheme
     J. Comput. Chem., 2020 41 922-939
     doi.org/10.1002/jcc.26139
  3. Neese,F.
     The SHARK Integral Generation and Digestion System
     J. Comp. Chem., 2022  1-16
     doi.org/10.1002/jcc.26942
  4. Lehtola,S.; Steigemann,C.; Oliveira,M.; Marques,M.
     Recent developments in Libxc - A comprehensive library of functionals for density functional theory
     Software X, 2018 7 
     doi.org/10.1016/j.softx.2017.11.002
  5. Caldeweyher,E.; Bannwarth,C.; Grimme,S.
     Extension of the D3 dispersion coefficient model
     J. Chem. Phys., 2017 147 034112-XXXX
     doi.org/10.1063/1.4993215
  6. Caldeweyher,E.; Ehlert,S.; Hansen,A.; Neugebauer,H.; Spicher,S.; Bannwarth,C.; Grimme,S.
     A generally applicable atomic-charge dependent London dispersion correction
     J. Chem. Phys., 2019 150 154122-XXXX
     doi.org/10.1063/1.5090222
  7. Caldeweyher,E.; Mewes,J.; Ehlert,S.; Grimme,S.
     Extension and evaluation of the D4 London-dispersion model for periodic systems
     Phys. Chem. Chem. Phys., 2020 22(16)8499-8512
     doi.org/10.1039/D0CP00502A

List of suggested additional citations. These are papers that are important in the 'surrounding' of 
of this run, or papers that preceded the highly important papers. If you like your results we are grateful for a citation.

  1. Neese,F.
     The ORCA program system
     WIRES Comput. Molec. Sci., 2012 2(1)73-78
     doi.org/10.1002/wcms.81
  2. Neese,F.
     Software update: the ORCA program system, version 4.0
     WIRES Comput. Molec. Sci., 2018 8(1)1-6
     doi.org/10.1002/wcms.1327
  3. Neese,F.; Wennmohs,F.; Becker,U.; Riplinger,C.
     The ORCA quantum chemistry program package
     J. Chem. Phys., 2020 152 Art. No. L224108
     doi.org/10.1063/5.0004608

List of optional additional citations

  1. Neese,F.
     Approximate second-order SCF convergence for spin unrestricted wavefunctions
     Chem. Phys. Lett., 2000 325(1-3)93-98
     doi.org/10.1016/s0009-2614(00)00662-x

Timings for individual modules:

Sum of individual times          ...       34.681 sec (=   0.578 min)
Startup calculation              ...        1.654 sec (=   0.028 min)   4.8 %
SCF iterations                   ...       13.828 sec (=   0.230 min)  39.9 %
Property calculations            ...        0.116 sec (=   0.002 min)   0.3 %
SCF Gradient evaluation          ...       19.082 sec (=   0.318 min)  55.0 %
                             ****ORCA TERMINATED NORMALLY****
TOTAL RUN TIME: 0 days 0 hours 0 minutes 35 seconds 562 msec
  ------------------------------------------------------------------------
          * successful ORCA run, taking over control again...

         :::::::::::::::::::::::::::::::::::::::::::::::::::::
         ::                  ORCA SUMMARY                   ::
         :::::::::::::::::::::::::::::::::::::::::::::::::::::
         :: total energy            -687.117340299777 Eh    ::
         :: gradient norm              0.000533734588 Eh/a0 ::
         :: HOMO-LUMO gap              0.000000000000 eV    ::
         :::::::::::::::::::::::::::::::::::::::::::::::::::::

           -------------------------------------------------
          |                Property Printout                |
           -------------------------------------------------
           -------------------------------------------------
          |                Geometry Summary                 |
           -------------------------------------------------

      molecular mass/u    :      180.1561339
   center of mass at/Å    :       -0.0038757      -0.0139886      -0.0163252
  moments of inertia/u·Å² :        0.4337385E+03   0.6477271E+03   0.1033515E+04
rotational constants/cm⁻¹ :        0.3886589E-01   0.2602583E-01   0.1631096E-01

 * 24 selected distances

     #   Z          #   Z                                           value/Å
     1   6 C        2   6 C                                       1.5154203
     2   6 C        3   1 H                                       1.1022226
     2   6 C        4   6 C                                       1.5282530 (max)
     4   6 C        5   1 H                                       1.1017551
     4   6 C        6   6 C                                       1.5230034
     6   6 C        7   1 H                                       1.1015495
     6   6 C        8   6 C                                       1.5224008
     8   6 C        9   1 H                                       1.1003259
     8   6 C       10   6 C                                       1.5258093
    10   6 C       11   1 H                                       1.1024959
     2   6 C       12   8 O                                       1.4381401
    10   6 C       12   8 O                                       1.4337084
    10   6 C       13   8 O                                       1.4025487
     8   6 C       14   8 O                                       1.4299302
     6   6 C       15   8 O                                       1.4329469
     4   6 C       16   8 O                                       1.4305467
     1   6 C       17   8 O                                       1.4322493
     1   6 C       18   1 H                                       1.0997660
     1   6 C       19   1 H                                       1.0922770
    13   8 O       20   1 H                                       0.9666061
    14   8 O       21   1 H                                       0.9663617 (min)
    15   8 O       22   1 H                                       0.9663798
    16   8 O       23   1 H                                       0.9672016
    17   8 O       24   1 H                                       0.9664642

 * 4 distinct bonds (by element types)

   Z      Z             #   av. dist./Å        max./Å        min./Å
   1 H    6 C           7     1.1000560     1.1024959     1.0922770
   6 C    6 C           5     1.5229774     1.5282530     1.5154203
   1 H    8 O           5     0.9666027     0.9672016     0.9663617
   6 C    8 O           7     1.4285815     1.4381401     1.4025487


optimized geometry written to: xtbopt.coord


           -------------------------------------------------
          | TOTAL ENERGY             -687.117340299777 Eh   |
          | GRADIENT NORM               0.000533734588 Eh/α |
           -------------------------------------------------

------------------------------------------------------------------------
 * finished run on 2025/04/06 at 18:55:19.565     
------------------------------------------------------------------------
 total:
 * wall-time:     0 d,  0 h,  5 min, 52.189 sec
 *  cpu-time:     0 d,  0 h,  0 min,  1.640 sec
 * ratio c/w:     0.005 speedup
 SCF:
 * wall-time:     0 d,  0 h,  0 min, 45.477 sec
 *  cpu-time:     0 d,  0 h,  0 min,  0.212 sec
 * ratio c/w:     0.005 speedup
 ANC optimizer:
 * wall-time:     0 d,  0 h,  5 min,  6.662 sec
 *  cpu-time:     0 d,  0 h,  0 min,  1.364 sec
 * ratio c/w:     0.004 speedup

