
                                 *****************
                                 * O   R   C   A *
                                 *****************

                                            #,                                       
                                            ###                                      
                                            ####                                     
                                            #####                                    
                                            ######                                   
                                           ########,                                 
                                     ,,################,,,,,                         
                               ,,#################################,,                 
                          ,,##########################################,,             
                       ,#########################################, ''#####,          
                    ,#############################################,,   '####,        
                  ,##################################################,,,,####,       
                ,###########''''           ''''###############################       
              ,#####''   ,,,,##########,,,,          '''####'''          '####       
            ,##' ,,,,###########################,,,                        '##       
           ' ,,###''''                  '''############,,,                           
         ,,##''                                '''############,,,,        ,,,,,,###''
      ,#''                                            '''#######################'''  
     '                                                          ''''####''''         
             ,#######,   #######,   ,#######,      ##                                
            ,#'     '#,  ##    ##  ,#'     '#,    #''#        ,####,   ,####,        
            ##       ##  ##   ,#'  ##            #'  '#       #'       #'  '#        
            ##       ##  #######   ##           ,######,      #####,   #    #        
            '#,     ,#'  ##    ##  '#,     ,#' ,#      #,     #,   #   #,  ,#        
             '#######'   ##     ##  '#######'  #'      '#     '####' # '####'        



                #########################################################
                #                        -***-                          #
                #          Department of theory and spectroscopy        #
                #                                                       #
                #                      Frank Neese                      #
                #                                                       #
                #     Directorship, Architecture, Infrastructure        #
                #                    SHARK, DRIVERS                     #
                #        Core code/Algorithms in most modules           #
                #                                                       #
                #        Max Planck Institute fuer Kohlenforschung      #
                #                Kaiser Wilhelm Platz 1                 #
                #                 D-45470 Muelheim/Ruhr                 #
                #                      Germany                          #
                #                                                       #
                #                  All rights reserved                  #
                #                        -***-                          #
                #########################################################


                         Program Version 6.0.0  -   RELEASE  -


 With contributions from (in alphabetic order):
   Daniel Aravena         : Magnetic Suceptibility
   Michael Atanasov       : Ab Initio Ligand Field Theory (pilot matlab implementation)
   Alexander A. Auer      : GIAO ZORA, VPT2 properties, NMR spectrum
   Ute Becker             : All parallelization in ORCA, NUMFREQ, NUMCALC
   Giovanni Bistoni       : ED, misc. LED, open-shell LED, HFLD
   Martin Brehm           : Molecular dynamics
   Dmytro Bykov           : pre 5.0 version of the SCF Hessian
   Marcos Casanova-Páez   : Triplet and SCS-CIS(D). UHF-(DLPNO)-IP/EA/STEOM-CCSD. UHF-CVS-IP/STEOM-CCSD
   Vijay G. Chilkuri      : MRCI spin determinant printing, contributions to CSF-ICE
   Pauline Colinet        : FMM embedding
   Dipayan Datta          : RHF DLPNO-CCSD density
   Achintya Kumar Dutta   : EOM-CC, STEOM-CC
   Nicolas Foglia         : Exact transition moments, OPA infrastructure, MCD improvements
   Dmitry Ganyushin       : Spin-Orbit,Spin-Spin,Magnetic field MRCI
   Miquel Garcia          : C-PCM and meta-GGA Hessian, CCSD/C-PCM, Gaussian charge scheme
   Tiago L. C. Gouveia    : GS-ROHF, GS-ROCIS
   Yang Guo               : DLPNO-NEVPT2, F12-NEVPT2, CIM, IAO-localization
   Andreas Hansen         : Spin unrestricted coupled pair/coupled cluster methods
   Ingolf Harden          : AUTO-CI MPn and infrastructure 
   Benjamin Helmich-Paris : MC-RPA, TRAH-(SCF,CASSCF), AVAS, COSX integrals, SCF dyn. polar.
   Lee Huntington         : MR-EOM, pCC
   Robert Izsak           : Overlap fitted RIJCOSX, COSX-SCS-MP3, EOM
   Riya Kayal             : Wick's Theorem for AUTO-CI, AUTO-CI UHF-CCSDT
   Emily Kempfer          : AUTO-CI, RHF CISDT and CCSDT
   Christian Kollmar      : KDIIS, OOCD, Brueckner-CCSD(T), CCSD density, CASPT2, CASPT2-K, improved NEVPT2
   Axel Koslowski         : Symmetry handling
   Simone Kossmann        : Meta GGA functionals, TD-DFT gradient, OOMP2, (MP2 Hessian; deprecated post 5.0)
   Lucas Lang             : DCDCAS
   Marvin Lechner         : AUTO-CI (C++ implementation), FIC-MRCC
   Spencer Leger          : CASSCF response
   Dagmar Lenk            : GEPOL surface, SMD, ORCA-2-JSON
   Dimitrios Liakos       : Extrapolation schemes; Compound Job, initial MDCI parallelization
   Dimitrios Manganas     : Further ROCIS development; embedding schemes. LFT, Crystal Embedding
   Dimitrios Pantazis     : SARC Basis sets
   Anastasios Papadopoulos: AUTO-CI, single reference methods and gradients
   Taras Petrenko         : pre 6.0 DFT Hessian and TD-DFT gradient, (ASA, deprecated), ECA, 1-Electron XAS/XES, NRVS
   Peter Pinski           : DLPNO-MP2, DLPNO-MP2 Gradient
   Christoph Reimann      : Effective Core Potentials
   Marius Retegan         : Local ZFS, SOC
   Christoph Riplinger    : Optimizer, TS searches, QM/MM, DLPNO-CCSD(T), (RO)-DLPNO pert. Triples
   Michael Roemelt        : Original ROCIS implementation
   Masaaki Saitow         : Open-shell DLPNO-CCSD energy and density
   Barbara Sandhoefer     : DKH picture change effects
   Kantharuban Sivalingam : CASSCF convergence/infrastructure, NEVPT2 and variants, FIC-MRCI
   Bernardo de Souza      : ESD, SOC TD-DFT
   Georgi Stoychev        : AutoAux, RI-MP2 NMR, DLPNO-MP2 response, X2C
   Van Anh Tran           : RI-MP2 g-tensors
   Willem Van den Heuvel  : Paramagnetic NMR
   Zikuan Wang            : NOTCH, Electric field optimization 
   Frank Wennmohs         : Technical directorship and infrastructure
   Hang Xu                : AUTO-CI-Response properties 


 We gratefully acknowledge several colleagues who have allowed us to
 interface, adapt or use parts of their codes:
   Stefan Grimme, W. Hujo, H. Kruse, P. Pracht,  : VdW corrections, initial TS optimization,
                  C. Bannwarth, S. Ehlert,         DFT functionals, gCP, sTDA/sTD-DF
                  L. Wittmann, M. Mueller
   Ed Valeev, F. Pavosevic, A. Kumar             : LibInt (2-el integral package), F12 methods
   Garnet Chan, S. Sharma, J. Yang, R. Olivares  : DMRG
   Ulf Ekstrom                                   : XCFun DFT Library
   Mihaly Kallay                                 : mrcc  (arbitrary order and MRCC methods)
   Frank Weinhold                                : gennbo (NPA and NBO analysis)
   Simon Mueller                                 : openCOSMO-RS
   Christopher J. Cramer and Donald G. Truhlar   : smd solvation model
   Lars Goerigk                                  : TD-DFT with DH, B97 family of functionals
   V. Asgeirsson, H. Jonsson                     : NEB implementation
   FAccTs GmbH                                   : IRC, NEB, NEB-TS, DLPNO-Multilevel, CI-OPT
                                                   MM, QMMM, 2- and 3-layer-ONIOM, Crystal-QMMM,
                                                   LR-CPCM, SF, NACMEs, symmetry and pop. for TD-DFT,
                                                   nearIR, NL-DFT gradient (VV10), updates on ESD,
                                                   ML-optimized integration grids, MBIS, APM,
                                                   GOAT, DOCKER, SOLVATOR, interface openCOSMO-RS
   S Lehtola, MJT Oliveira, MAL Marques          : LibXC Library
   Liviu Ungur et al                             : ANISO software


 Your calculation uses the libint2 library for the computation of 2-el integrals
 For citations please refer to: http://libint.valeyev.net

 Your ORCA version has been built with support for libXC version: 6.2.2
 For citations please refer to: https://libxc.gitlab.io

 This ORCA versions uses:
   CBLAS   interface :  Fast vector & matrix operations
   LAPACKE interface :  Fast linear algebra routines
   SCALAPACK package :  Parallel linear algebra routines
   Shared memory     :  Shared parallel matrices
   BLAS/LAPACK       :  OpenBLAS 0.3.27  USE64BITINT DYNAMIC_ARCH NO_AFFINITY SkylakeX SINGLE_THREADED
        Core in use  :  SkylakeX
   Copyright (c) 2011-2014, The OpenBLAS Project


Your calculation utilizes the geometrical counterpoise correction gCP
Please cite in your paper:
H.Kruse, S. Grimme J.Chem.Phys., 136, (2012), 154101 
   

Your calculation utilizes the DFT-NL dispersion correction.
Cite in your paper:
Vydrov, O. A.; Van Voorhis, T. J. Chem. Phys. 2010, 133, 244103
Hujo, W.; Grimme, S. J. Chem. Theory Comput. 2011, 7, 3866 
   

================================================================================

----- Orbital basis set information -----
Your calculation utilizes the basis: def2-TZVP
   F. Weigend and R. Ahlrichs, Phys. Chem. Chem. Phys. 7, 3297 (2005).

----- AuxJ basis set information -----
Your calculation utilizes the auxiliary basis: def2/J
   F. Weigend, Phys. Chem. Chem. Phys. 8, 1057 (2006).

================================================================================
                                        WARNINGS
                       Please study these warnings very carefully!
================================================================================


================================================================================
                                       INPUT FILE
================================================================================
NAME = sp_gas.inp
|  1> ! wb97x-v def2-tzvp def2/J RIJCOSX DEFGRID2 scfconv7 GCP(DFT/TZ) printgap
|  2> %output
|  3>     printlevel normal
|  4> end
|  5> * xyz 0 1
|  6> C 2.082714556447329 -0.5886057539144778 -0.6162763404557585
|  7> C 1.1937242538163033 -0.12033139645341406 0.5270477925982278
|  8> H 1.6919883524847286 -0.31198525545070416 1.4830100753407673
|  9> C 0.7522589137418177 1.3465754435853607 0.3875344517223128
| 10> C -0.6398924189156772 1.264895996310542 -0.2786753534037344
| 11> C -0.9393715780661069 -0.24056603199444687 -0.38507622118530604
| 12> H -0.6849051044076565 -0.6044516602325456 -1.3916228203154761
| 13> O -0.04691857432680588 -0.8642349637881673 0.5700675417677189
| 14> C -2.360180037184872 -0.6353969203120253 -0.05207965543056482
| 15> H 2.2653260948122678 -1.665746602059298 -0.5482346859424737
| 16> H 1.6308252856286898 -0.3683718148936418 -1.589119465752317
| 17> H 3.047587724945983 -0.07361655109219928 -0.5692027861083536
| 18> H 0.6792785597705736 1.8147049390478354 1.3724298028344255
| 19> H 1.469993004955967 1.9201741219047919 -0.20471319168925947
| 20> H -1.396974555246727 1.7529235978125202 0.34269122627572624
| 21> H -0.6616843334879345 1.7371031528549752 -1.2641286584577203
| 22> H -2.6250002493824502 -0.3004321840453858 0.9565092847071917
| 23> H -2.4930742130618055 -1.7200729201025318 -0.11249849676788218
| 24> H -3.0486664065144384 -0.1683320581139253 -0.7632528454193548
| 25> *
| 26> 
| 27>                          ****END OF INPUT****
================================================================================

                       ****************************
                       * Single Point Calculation *
                       ****************************

---------------------------------
CARTESIAN COORDINATES (ANGSTROEM)
---------------------------------
  C      2.082715   -0.588606   -0.616276
  C      1.193724   -0.120331    0.527048
  H      1.691988   -0.311985    1.483010
  C      0.752259    1.346575    0.387534
  C     -0.639892    1.264896   -0.278675
  C     -0.939372   -0.240566   -0.385076
  H     -0.684905   -0.604452   -1.391623
  O     -0.046919   -0.864235    0.570068
  C     -2.360180   -0.635397   -0.052080
  H      2.265326   -1.665747   -0.548235
  H      1.630825   -0.368372   -1.589119
  H      3.047588   -0.073617   -0.569203
  H      0.679279    1.814705    1.372430
  H      1.469993    1.920174   -0.204713
  H     -1.396975    1.752924    0.342691
  H     -0.661684    1.737103   -1.264129
  H     -2.625000   -0.300432    0.956509
  H     -2.493074   -1.720073   -0.112498
  H     -3.048666   -0.168332   -0.763253

----------------------------
CARTESIAN COORDINATES (A.U.)
----------------------------
  NO LB      ZA    FRAG     MASS         X           Y           Z
   0 C     6.0000    0    12.011    3.935760   -1.112304   -1.164594
   1 C     6.0000    0    12.011    2.255812   -0.227393    0.995976
   2 H     1.0000    0     1.008    3.197395   -0.589567    2.802483
   3 C     6.0000    0    12.011    1.421563    2.544659    0.732334
   4 C     6.0000    0    12.011   -1.209221    2.390307   -0.526620
   5 C     6.0000    0    12.011   -1.775155   -0.454604   -0.727689
   6 H     1.0000    0     1.008   -1.294283   -1.142248   -2.629786
   7 O     8.0000    0    15.999   -0.088663   -1.633167    1.077272
   8 C     6.0000    0    12.011   -4.460094   -1.200726   -0.098416
   9 H     1.0000    0     1.008    4.280846   -3.147805   -1.036013
  10 H     1.0000    0     1.008    3.081813   -0.696122   -3.003001
  11 H     1.0000    0     1.008    5.759106   -0.139115   -1.075637
  12 H     1.0000    0     1.008    1.283650    3.429295    2.593516
  13 H     1.0000    0     1.008    2.777884    3.628603   -0.386852
  14 H     1.0000    0     1.008   -2.639899    3.312546    0.647593
  15 H     1.0000    0     1.008   -1.250402    3.282649   -2.388857
  16 H     1.0000    0     1.008   -4.960532   -0.567735    1.807541
  17 H     1.0000    0     1.008   -4.711227   -3.250467   -0.212591
  18 H     1.0000    0     1.008   -5.761145   -0.318101   -1.442339

--------------------------------
INTERNAL COORDINATES (ANGSTROEM)
--------------------------------
 C      0   0   0     0.000000000000     0.00000000     0.00000000
 C      1   0   0     1.522095498072     0.00000000     0.00000000
 H      2   1   0     1.094925659448   109.64448681     0.00000000
 C      2   1   3     1.538236424001   113.13375561   125.97767691
 C      4   2   1     1.545507156105   104.31271306    95.72757630
 C      5   4   2     1.538643828213   104.88287152     3.77174161
 H      6   5   4     1.100137260925   109.99142328   262.68047244
 O      2   1   3     1.447217275787   111.40006584   243.09080531
 C      6   5   4     1.511778694346   115.03877954   138.59022015
 H      1   2   3     1.094627355512   110.70035100    61.43423515
 H      1   2   3     1.095048239766   111.37249619   182.59812001
 H      1   2   3     1.094719155688   109.74001944   302.00679677
 H      4   2   1     1.092927357710   110.23653488   214.41726220
 H      4   2   1     1.093121649492   111.16795933   334.02102063
 H      5   4   2     1.094276348699   110.78512191   122.34213985
 H      5   4   2     1.092965096732   112.56843024   243.11379524
 H      9   6   5     1.095254659656   110.49976791   303.15047234
 H      9   6   5     1.094455719932   111.14899660   182.07397683
 H      9   6   5     1.094500055921   109.67077969    62.59894959

---------------------------
INTERNAL COORDINATES (A.U.)
---------------------------
 C      0   0   0     0.000000000000     0.00000000     0.00000000
 C      1   0   0     2.876343641031     0.00000000     0.00000000
 H      2   1   0     2.069109633359   109.64448681     0.00000000
 C      2   1   3     2.906845570583   113.13375561   125.97767691
 C      4   2   1     2.920585263055   104.31271306    95.72757630
 C      5   4   2     2.907615452971   104.88287152     3.77174161
 H      6   5   4     2.078958132870   109.99142328   262.68047244
 O      2   1   3     2.734844307516   111.40006584   243.09080531
 C      6   5   4     2.856847707410   115.03877954   138.59022015
 H      1   2   3     2.068545920616   110.70035100    61.43423515
 H      1   2   3     2.069341276590   111.37249619   182.59812001
 H      1   2   3     2.068719397809   109.74001944   302.00679677
 H      4   2   1     2.065333390341   110.23653488   214.41726220
 H      4   2   1     2.065700548599   111.16795933   334.02102063
 H      5   4   2     2.067882613868   110.78512191   122.34213985
 H      5   4   2     2.065404706758   112.56843024   243.11379524
 H      9   6   5     2.069731353651   110.49976791   303.15047234
 H      9   6   5     2.068221576375   111.14899660   182.07397683
 H      9   6   5     2.068305359253   109.67077969    62.59894959

---------------------
BASIS SET INFORMATION
---------------------
There are 3 groups of distinct atoms

 Group   1 Type C   : 11s6p2d1f contracted to 5s3p2d1f pattern {62111/411/11/1}
 Group   2 Type H   : 5s1p contracted to 3s1p pattern {311/1}
 Group   3 Type O   : 11s6p2d1f contracted to 5s3p2d1f pattern {62111/411/11/1}

Atom   0C    basis set group =>   1
Atom   1C    basis set group =>   1
Atom   2H    basis set group =>   2
Atom   3C    basis set group =>   1
Atom   4C    basis set group =>   1
Atom   5C    basis set group =>   1
Atom   6H    basis set group =>   2
Atom   7O    basis set group =>   3
Atom   8C    basis set group =>   1
Atom   9H    basis set group =>   2
Atom  10H    basis set group =>   2
Atom  11H    basis set group =>   2
Atom  12H    basis set group =>   2
Atom  13H    basis set group =>   2
Atom  14H    basis set group =>   2
Atom  15H    basis set group =>   2
Atom  16H    basis set group =>   2
Atom  17H    basis set group =>   2
Atom  18H    basis set group =>   2
---------------------------------
AUXILIARY/J BASIS SET INFORMATION
---------------------------------
There are 3 groups of distinct atoms

 Group   1 Type C   : 12s5p4d2f1g contracted to 6s4p3d1f1g pattern {711111/2111/211/2/1}
 Group   2 Type H   : 5s2p1d contracted to 3s1p1d pattern {311/2/1}
 Group   3 Type O   : 12s5p4d2f1g contracted to 6s4p3d1f1g pattern {711111/2111/211/2/1}

Atom   0C    basis set group =>   1
Atom   1C    basis set group =>   1
Atom   2H    basis set group =>   2
Atom   3C    basis set group =>   1
Atom   4C    basis set group =>   1
Atom   5C    basis set group =>   1
Atom   6H    basis set group =>   2
Atom   7O    basis set group =>   3
Atom   8C    basis set group =>   1
Atom   9H    basis set group =>   2
Atom  10H    basis set group =>   2
Atom  11H    basis set group =>   2
Atom  12H    basis set group =>   2
Atom  13H    basis set group =>   2
Atom  14H    basis set group =>   2
Atom  15H    basis set group =>   2
Atom  16H    basis set group =>   2
Atom  17H    basis set group =>   2
Atom  18H    basis set group =>   2

Checking for AutoStart:
The File: sp_gas.gbw exists
Trying to determine its content:
     ... Fine, the file contains calculation information
     ... Fine, the calculation information was read
     ... Fine, the file contains a basis set
     ... Fine, the basis set was read
     ... Fine, the file contains a geometry
     ... Fine, the geometry was read
     ... Fine, the file contains a set of orbitals
     ... Fine, the orbitals can be read
     => possible old guess file was deleted
     => GBW file was renamed to GES file
     => GES file is set as startup file
     => Guess is set to MORead
     ... now leaving AutoStart

------------------------------------------------------------------------------
                             ORCA STARTUP CALCULATIONS
                           -- RI-GTO INTEGRALS CHOSEN --
------------------------------------------------------------------------------
------------------------------------------------------------------------------
                   ___                                                        
                  /   \      - P O W E R E D   B Y -                         
                 /     \                                                     
                 |  |  |   _    _      __       _____    __    __             
                 |  |  |  | |  | |    /  \     |  _  \  |  |  /  |          
                  \  \/   | |  | |   /    \    | | | |  |  | /  /          
                 / \  \   | |__| |  /  /\  \   | |_| |  |  |/  /          
                |  |  |   |  __  | /  /__\  \  |    /   |      \           
                |  |  |   | |  | | |   __   |  |    \   |  |\   \          
                \     /   | |  | | |  |  |  |  | |\  \  |  | \   \       
                 \___/    |_|  |_| |__|  |__|  |_| \__\ |__|  \__/        
                                                                              
                      - O R C A' S   B I G   F R I E N D -                    
                                      &                                       
                       - I N T E G R A L  F E E D E R -                       
                                                                              
 v1 FN, 2020, v2 2021, v3 2022-2024                                           
------------------------------------------------------------------------------


----------------------
SHARK INTEGRAL PACKAGE
----------------------

Number of atoms                             ...     19
Number of basis functions                   ...    289
Number of shells                            ...    125
Maximum angular momentum                    ...      3
Integral batch strategy                     ... SHARK/LIBINT Hybrid
RI-J (if used) integral strategy            ... SPLIT-RIJ (Revised 2003 algorithm where possible)
Printlevel                                  ...      1
Contraction scheme used                     ... SEGMENTED contraction
Prescreening option                         ... SCHWARTZ
   Thresh                                   ... 3.000e-11
   Tcut                                     ... 1.000e-12
   Tpresel                                  ... 1.000e-12 
Coulomb Range Separation                    ... NOT USED
Exchange Range Separation                   ... Long Range
   Mu parameter                             ... 3.000e-01
   Scaling (regular/separated)              ... 1.670e-01 8.330e-01
Multipole approximations                    ... NOT USED
Finite Nucleus Model                        ... NOT USED
CABS basis                                  ... NOT available
Auxiliary Coulomb fitting basis             ... AVAILABLE
   # of basis functions in Aux-J            ...    475
   # of shells in Aux-J                     ...    165
   Maximum angular momentum in Aux-J        ...      4
Auxiliary J/K fitting basis                 ... NOT available
Auxiliary Correlation fitting basis         ... NOT available
Auxiliary 'external' fitting basis          ... NOT available

Checking pre-screening integrals            ... done (  0.0 sec) Dimension = 125
Check shell pair data                       ... done (  0.0 sec)
Shell pair information
Shell pair cut-off parameter TPreSel        ...   1.0e-12
Total number of shell pairs                 ...      7875
Shell pairs after pre-screening             ...      7444
Total number of primitive shell pairs       ...     22768
Primitive shell pairs kept                  ...     16659
          la=0 lb=0:   2345 shell pairs
          la=1 lb=0:   2212 shell pairs
          la=1 lb=1:    540 shell pairs
          la=2 lb=0:    955 shell pairs
          la=2 lb=1:    453 shell pairs
          la=2 lb=2:    104 shell pairs
          la=3 lb=0:    481 shell pairs
          la=3 lb=1:    228 shell pairs
          la=3 lb=2:     98 shell pairs
          la=3 lb=3:     28 shell pairs

Calculating one electron integrals          ... done (  0.1 sec)
Calculating RI/J V-Matrix + Cholesky decomp.... done (  0.1 sec)
Calculating Nuclear repulsion               ... done (  0.0 sec) ENN=    333.175257979407 Eh

Diagonalization of the overlap matrix:
Smallest eigenvalue                        ... 5.582e-05
Time for diagonalization                   ...    0.009 sec
Threshold for overlap eigenvalues          ... 1.000e-07
Number of eigenvalues below threshold      ... 0
Time for construction of square roots      ...    0.018 sec
Total time needed                          ...    0.036 sec

-------------------
DFT GRID GENERATION
-------------------

General Integration Accuracy     IntAcc      ... 4.388
Radial Grid Type                 RadialGrid  ... OptM3 with GC (2021)
Angular Grid (max. ang.)         AngularGrid ... 4 (Lebedev-302)
Angular grid pruning method      GridPruning ... 4 (adaptive)
Weight generation scheme         WeightScheme... mBecke (2022)
Basis function cutoff            BFCut       ... 1.0000e-11
Integration weight cutoff        WCut        ... 1.0000e-14
Partially contracted basis set               ... off
Rotationally invariant grid construction     ... off
Angular grids for H and He will be reduced by one unit

Total number of grid points                  ...    80430
Total number of batches                      ...     1267
Average number of points per batch           ...       63
Average number of grid points per atom       ...     4233

--------------------
COSX GRID GENERATION
--------------------

GRIDX 1
-------
General Integration Accuracy     IntAcc      ... 3.816
Radial Grid Type                 RadialGrid  ... OptM3 with GC (2021)
Angular Grid (max. ang.)         AngularGrid ... 1 (Lebedev-50)
Angular grid pruning method      GridPruning ... 4 (adaptive)
Weight generation scheme         WeightScheme... mBecke (2022)
Basis function cutoff            BFCut       ... 1.0000e-11
Integration weight cutoff        WCut        ... 1.0000e-14
Partially contracted basis set               ... on
Rotationally invariant grid construction     ... off
Angular grids for H and He will be reduced by one unit

Total number of grid points                  ...    10328
Total number of batches                      ...       95
Average number of points per batch           ...      108
Average number of grid points per atom       ...      544
UseSFitting                                  ... on

GRIDX 2
-------
General Integration Accuracy     IntAcc      ... 4.020
Radial Grid Type                 RadialGrid  ... OptM3 with GC (2021)
Angular Grid (max. ang.)         AngularGrid ... 2 (Lebedev-110)
Angular grid pruning method      GridPruning ... 4 (adaptive)
Weight generation scheme         WeightScheme... mBecke (2022)
Basis function cutoff            BFCut       ... 1.0000e-11
Integration weight cutoff        WCut        ... 1.0000e-14
Partially contracted basis set               ... on
Rotationally invariant grid construction     ... off
Angular grids for H and He will be reduced by one unit

Total number of grid points                  ...    21522
Total number of batches                      ...      178
Average number of points per batch           ...      120
Average number of grid points per atom       ...     1133
UseSFitting                                  ... on

GRIDX 3
-------
General Integration Accuracy     IntAcc      ... 4.338
Radial Grid Type                 RadialGrid  ... OptM3 with GC (2021)
Angular Grid (max. ang.)         AngularGrid ... 3 (Lebedev-194)
Angular grid pruning method      GridPruning ... 4 (adaptive)
Weight generation scheme         WeightScheme... mBecke (2022)
Basis function cutoff            BFCut       ... 1.0000e-11
Integration weight cutoff        WCut        ... 1.0000e-14
Partially contracted basis set               ... on
Rotationally invariant grid construction     ... off
Angular grids for H and He will be reduced by one unit

Total number of grid points                  ...    47014
Total number of batches                      ...      379
Average number of points per batch           ...      124
Average number of grid points per atom       ...     2474
UseSFitting                                  ... on
Initializing property integral containers    ... done (  0.0 sec)

SHARK setup successfully completed in   2.5 seconds

Maximum memory used throughout the entire STARTUP-calculation: 46.0 MB
-------------------------------------------------------------------------------
                                 ORCA GUESS
                   Start orbitals & Density for SCF / CASSCF
-------------------------------------------------------------------------------

------------
SCF SETTINGS
------------
Hamiltonian:
 Density Functional     Method          .... DFT(GTOs)
 Exchange Functional    Exchange        .... WB97X-V
 Correlation Functional Correlation     .... WB97X-V
 Gradients option       PostSCFGGA      .... off
 Hybrid DFT is turned on
   Fraction HF Exchange ScalHFX         ....  0.167000
   Scaling of DF-GGA-X  ScalDFX         ....  0.000000
   Scaling of DF-GGA-C  ScalDFC         ....  1.000000
   Scaling of DF-LDA-C  ScalLDAC        ....  1.000000
   Perturbative correction              ....  0.000000
 Long-range corrected/Screened/Range-Separated Hybrid DFT is turned on
   Amount of maximum screened exact exchange              ....  0.833000
   Range separation parameter mu (erf(mu*r12)/r12)        ....  0.300000
   NL short-range parameter             ....  6.000000
   NL long-range parameter              ....  0.010000
 RI-approximation to the Coulomb term is turned on
   Number of AuxJ basis functions       .... 475
   RIJ-COSX (HFX calculated with COS-X)).... on


General Settings:
 Integral files         IntName         .... sp_gas
 Hartree-Fock type      HFTyp           .... RHF
 Total Charge           Charge          ....    0
 Multiplicity           Mult            ....    1
 Number of Electrons    NEL             ....   56
 Basis Dimension        Dim             ....  289
 Nuclear Repulsion      ENuc            ....    333.1752579794 Eh

Convergence Acceleration:
 AO-DIIS                CNVDIIS         .... on
   Start iteration      DIISMaxIt       ....    12
   Startup error        DIISStart       ....  0.200000
   # of expansion vecs  DIISMaxEq       ....     5
   Bias factor          DIISBfac        ....   1.050
   Max. coefficient     DIISMaxC        ....  10.000
 MO-DIIS                CNVKDIIS        .... off
 Trust-Rad. Augm. Hess. CNVTRAH         .... auto
   Auto Start mean grad. ratio tolernc. ....  1.125000
   Auto Start start iteration           ....     1
   Auto Start num. interpolation iter.  ....    10
   Max. Number of Micro iterations      ....    24
   Max. Number of Macro iterations      .... Maxiter - #DIIS iter
   Number of Davidson start vectors     ....     2
   Converg. threshold    (grad. norm)   ....   1.000e-04
   Grad. Scal. Fac. for Micro threshold ....   0.100
   Minimum threshold for Micro iter.    ....   1.000e-02
   NR start threshold (gradient norm)   ....   1.000e-04
   Initial trust radius                 ....   0.400
   Minimum AH scaling param. (alpha)    ....   1.000
   Maximum AH scaling param. (alpha)    .... 1000.000
   Quad. conv. algorithm                .... NR
   White noise on init. David. guess    .... on
   Maximum white noise                  ....   0.010
   Pseudo random numbers                .... off
   Inactive MOs                         .... canonical
   Orbital update algorithm             .... Taylor
   Preconditioner                       .... Diag
   Full preconditioner red. dimension   ....   250
 SOSCF                  CNVSOSCF        .... on
   Start iteration      SOSCFMaxIt      ....   150
   Startup grad/error   SOSCFStart      ....  0.003300
   Hessian update       SOSCFHessUp     .... L-BFGS
 Level Shifting         CNVShift        .... on
   Level shift para.    LevelShift      ....    0.2500
   Turn off err/grad.   ShiftErr        ....    0.0010
 Zerner damping         CNVZerner       .... off
 Static damping         CNVDamp         .... on
   Fraction old density DampFac         ....    0.7000
   Max. Damping (<1)    DampMax         ....    0.9800
   Min. Damping (>=0)   DampMin         ....    0.0000
   Turn off err/grad.   DampErr         ....    0.1000

SCF Procedure:
 Maximum # iterations   MaxIter         ....   125
 SCF integral mode      SCFMode         .... Direct
   Integral package                     .... SHARK and LIBINT hybrid scheme
 Reset frequency        DirectResetFreq ....    20
 Integral Threshold     Thresh          ....  3.000e-11 Eh
 Primitive CutOff       TCut            ....  1.000e-12 Eh

Convergence Tolerance:
 Convergence Check Mode ConvCheckMode   .... Total+1el-Energy
 Convergence forced     ConvForced      .... 0
 Energy Change          TolE            ....  1.000e-07 Eh
 1-El. energy change                    ....  1.000e-04 Eh
 Orbital Gradient       TolG            ....  1.000e-04
 Orbital Rotation angle TolX            ....  1.000e-04
 DIIS Error             TolErr          ....  1.000e-07

---------------------
INITIAL GUESS: MOREAD
---------------------
Guess MOs are being read from file: sp_gas.ges
Input Geometry matches current geometry (good)
Atom 0: N(Shells)= 11 and 9 - projection required
Input basis set needs projection
NBasis(read)= 198
NBasis(calc)= 289
Basis set overlap was calculated
Using GuessMode=FMatrix for the initial guess
C*T matrix was formed
Effective Fockian was calculated
Effective Fockian was diagonalized
Initial density was built
                      ------------------
                      INITIAL GUESS DONE (   0.1 sec)
                      ------------------
             **** ENERGY FILE WAS UPDATED (sp_gas.en.tmp) ****
Finished Guess after   0.3 sec
Maximum memory used throughout the entire GUESS-calculation: 25.7 MB

-------------------------------------------------------------------------------------------
                                      ORCA LEAN-SCF
                              memory conserving SCF solver
-------------------------------------------------------------------------------------------

----------------------------------------D-I-I-S--------------------------------------------
Iteration    Energy (Eh)           Delta-E    RMSDP     MaxDP     DIISErr   Damp  Time(sec)
-------------------------------------------------------------------------------------------
               ***  Starting incremental Fock matrix formation  ***
    1    -311.3112147067179194     0.00e+00  9.67e-04  2.04e-02  4.84e-02  0.700  19.8
    2    -311.3158987835432754    -4.68e-03  8.37e-04  1.67e-02  3.42e-02  0.700  10.0
                               ***Turning on AO-DIIS***
    3    -311.3193698087277426    -3.47e-03  6.82e-04  1.35e-02  2.40e-02  0.700   9.6
    4    -311.3218896447423276    -2.52e-03  1.71e-03  3.50e-02  1.62e-02  0.000   9.7
                              *** Initializing SOSCF ***
---------------------------------------S-O-S-C-F--------------------------------------
Iteration    Energy (Eh)           Delta-E    RMSDP     MaxDP     MaxGrad    Time(sec)
--------------------------------------------------------------------------------------
    5    -311.3283302376039501    -6.44e-03  9.59e-05  2.43e-03  1.13e-03    10.1
               *** Restarting incremental Fock matrix formation ***
    6    -311.3283596218225284    -2.94e-05  4.73e-05  1.01e-03  2.32e-04    19.6
    7    -311.3283625250599016    -2.90e-06  2.21e-05  5.01e-04  2.21e-04    15.2
    8    -311.3283641707528204    -1.65e-06  5.57e-06  1.33e-04  1.82e-05    14.5
                  *** Gradient check signals convergence ***

               *****************************************************
               *                     SUCCESS                       *
               *           SCF CONVERGED AFTER   8 CYCLES          *
               *****************************************************


------------------
NL GRID GENERATION
------------------

General Integration Accuracy     IntAcc      ... 4.004
Radial Grid Type                 RadialGrid  ... OptM3 with GC (2021)
Angular Grid (max. ang.)         AngularGrid ... 2 (Lebedev-110)
Angular grid pruning method      GridPruning ... 4 (adaptive)
Weight generation scheme         WeightScheme... mBecke (2022)
Basis function cutoff            BFCut       ... 1.0000e-10
Integration weight cutoff        WCut        ... 1.0000e-14
Partially contracted basis set               ... off
Rotationally invariant grid construction     ... off
Angular grids for H and He will be reduced by one unit

Total number of grid points                  ...    24009
Total number of batches                      ...      386
Average number of points per batch           ...       62
Average number of grid points per atom       ...     1264
Final grid set up in    0.2 sec

-------------------------------------------------------------------------------
                    post-SCF DFT-NL dispersion correction                      
-------------------------------------------------------------------------------

SCF Energy:     -311.328364171 
NL    Energy:      0.211277856 
SC+NL Energy:   -311.117086315 
NL done in  :              2.6 sec
-------------------------------------------------------------------------------
Recomputing exchange energy using gridx3       ... done (   34.699 sec)
Old exchange energy                            :    -14.579467976 Eh
New exchange energy                            :    -14.579477143 Eh
Exchange energy change after final integration :     -0.000009167 Eh
Total energy after final integration           :   -311.117095482 Eh
             **** ENERGY FILE WAS UPDATED (sp_gas.en.tmp) ****

----------------
TOTAL SCF ENERGY
----------------

Total Energy       :       -311.11709548163157 Eh           -8465.92657 eV

Components:
Nuclear Repulsion  :        333.17525797940698 Eh            9066.15968 eV
Electronic Energy  :       -644.50362215015980 Eh          -17537.83517 eV
One Electron Energy:      -1080.64461957025605 Eh          -29405.83506 eV
Two Electron Energy:        436.14099742009626 Eh           11867.99990 eV

Virial components:
Potential Energy   :       -620.85261988383411 Eh          -16894.25867 eV
Kinetic Energy     :        309.73552440220254 Eh            8428.33211 eV
Virial Ratio       :          2.00446048635233

DFT components:
N(Alpha)           :       27.999994554297 electrons
N(Beta)            :       27.999994554297 electrons
N(Total)           :       55.999989108593 electrons
E(X)               :      -29.010118467529 Eh       
E(C)               :       -2.273646925823 Eh       
NL Energy, E(C,NL) :        0.211277855826 Eh       
E(XC)              :      -31.072487537527 Eh       

---------------
SCF CONVERGENCE
---------------

  Last Energy change         ...    1.6457e-06  Tolerance :   1.0000e-07
  Last MAX-Density change    ...    1.3307e-04  Tolerance :   1.0000e-05
  Last RMS-Density change    ...    5.5653e-06  Tolerance :   1.0000e-06
  Last DIIS Error            ...    1.1340e-03  Tolerance :   1.0000e-07
  Last Orbital Gradient      ...    1.8236e-05  Tolerance :   1.0000e-04
  Last Orbital Rotation      ...    1.6056e-05  Tolerance :   1.0000e-04


----------------
ORBITAL ENERGIES
----------------

  NO   OCC          E(Eh)            E(eV) 
   0   2.0000     -21.660349      -589.4080 
   1   2.0000     -12.091088      -329.0152 
   2   2.0000     -12.090332      -328.9947 
   3   2.0000     -12.043481      -327.7198 
   4   2.0000     -12.042333      -327.6886 
   5   2.0000     -12.033734      -327.4545 
   6   2.0000     -12.032631      -327.4245 
   7   2.0000      -1.665389       -45.3175 
   8   2.0000      -1.304572       -35.4992 
   9   2.0000      -1.296263       -35.2731 
  10   2.0000      -1.212984       -33.0070 
  11   2.0000      -1.147623       -31.2284 
  12   2.0000      -1.089590       -29.6493 
  13   2.0000      -1.058631       -28.8068 
  14   2.0000      -0.964384       -26.2422 
  15   2.0000      -0.960941       -26.1485 
  16   2.0000      -0.925833       -25.1932 
  17   2.0000      -0.883694       -24.0465 
  18   2.0000      -0.857339       -23.3294 
  19   2.0000      -0.840398       -22.8684 
  20   2.0000      -0.835432       -22.7333 
  21   2.0000      -0.827509       -22.5177 
  22   2.0000      -0.811550       -22.0834 
  23   2.0000      -0.808460       -21.9993 
  24   2.0000      -0.786244       -21.3948 
  25   2.0000      -0.776541       -21.1308 
  26   2.0000      -0.762719       -20.7546 
  27   2.0000      -0.752340       -20.4722 
  28   0.0000      -0.152522        -4.1503 
  29   0.0000      -0.130564        -3.5528 
  30   0.0000      -0.047964        -1.3052 
  31   0.0000      -0.033508        -0.9118 
  32   0.0000      -0.021845        -0.5944 
  33   0.0000      -0.004294        -0.1169 
  34   0.0000       0.002975         0.0810 
  35   0.0000       0.018636         0.5071 
  36   0.0000       0.020246         0.5509 
  37   0.0000       0.033033         0.8989 
  38   0.0000       0.034883         0.9492 
*Only the first 10 virtual orbitals were printed.

                    ********************************
                    * MULLIKEN POPULATION ANALYSIS *
                    ********************************

-----------------------
MULLIKEN ATOMIC CHARGES
-----------------------
   0 C :   -0.391714
   1 C :    0.173193
   2 H :    0.081063
   3 C :   -0.202500
   4 C :   -0.193254
   5 C :    0.070156
   6 H :    0.059683
   7 O :   -0.314511
   8 C :   -0.335910
   9 H :    0.120264
  10 H :    0.107591
  11 H :    0.109983
  12 H :    0.096936
  13 H :    0.093660
  14 H :    0.096004
  15 H :    0.097150
  16 H :    0.107583
  17 H :    0.118988
  18 H :    0.105634
Sum of atomic charges:    0.0000000

--------------------------------
MULLIKEN REDUCED ORBITAL CHARGES
--------------------------------
  0 C s       :     3.269283  s :     3.269283
      pz      :     0.988611  p :     3.062954
      px      :     1.007852
      py      :     1.066490
      dz2     :     0.021176  d :     0.056131
      dxz     :     0.007895
      dyz     :     0.005606
      dx2y2   :     0.011500
      dxy     :     0.009954
      f0      :     0.000551  f :     0.003347
      f+1     :     0.000991
      f-1     :     0.000271
      f+2     :     0.000371
      f-2     :     0.000333
      f+3     :     0.000162
      f-3     :     0.000668

  1 C s       :     3.091112  s :     3.091112
      pz      :     0.935306  p :     2.558992
      px      :     0.770575
      py      :     0.853111
      dz2     :     0.026240  d :     0.164526
      dxz     :     0.037872
      dyz     :     0.024243
      dx2y2   :     0.039781
      dxy     :     0.036389
      f0      :     0.001784  f :     0.012178
      f+1     :     0.001455
      f-1     :     0.000798
      f+2     :     0.001325
      f-2     :     0.001697
      f+3     :     0.003099
      f-3     :     0.002019

  2 H s       :     0.898324  s :     0.898324
      pz      :     0.011584  p :     0.020613
      px      :     0.005081
      py      :     0.003948

  3 C s       :     3.177566  s :     3.177566
      pz      :     1.024736  p :     2.942162
      px      :     0.953976
      py      :     0.963450
      dz2     :     0.011553  d :     0.077195
      dxz     :     0.013445
      dyz     :     0.016800
      dx2y2   :     0.013661
      dxy     :     0.021737
      f0      :     0.000585  f :     0.005577
      f+1     :     0.000681
      f-1     :     0.000627
      f+2     :     0.000744
      f-2     :     0.000774
      f+3     :     0.000990
      f-3     :     0.001174

  4 C s       :     3.162489  s :     3.162489
      pz      :     1.034704  p :     2.948072
      px      :     0.967257
      py      :     0.946111
      dz2     :     0.011355  d :     0.077085
      dxz     :     0.011425
      dyz     :     0.016815
      dx2y2   :     0.015857
      dxy     :     0.021633
      f0      :     0.000604  f :     0.005608
      f+1     :     0.000666
      f-1     :     0.000682
      f+2     :     0.001016
      f-2     :     0.000468
      f+3     :     0.000882
      f-3     :     0.001290

  5 C s       :     3.171845  s :     3.171845
      pz      :     0.845274  p :     2.572801
      px      :     0.850002
      py      :     0.877525
      dz2     :     0.043508  d :     0.172800
      dxz     :     0.029676
      dyz     :     0.025899
      dx2y2   :     0.036369
      dxy     :     0.037347
      f0      :     0.001541  f :     0.012398
      f+1     :     0.002184
      f-1     :     0.001210
      f+2     :     0.002185
      f-2     :     0.001338
      f+3     :     0.002181
      f-3     :     0.001758

  6 H s       :     0.919667  s :     0.919667
      pz      :     0.011836  p :     0.020650
      px      :     0.004048
      py      :     0.004766

  7 O s       :     3.764391  s :     3.764391
      pz      :     1.606265  p :     4.511638
      px      :     1.268293
      py      :     1.637080
      dz2     :     0.006160  d :     0.036704
      dxz     :     0.007618
      dyz     :     0.005880
      dx2y2   :     0.005712
      dxy     :     0.011333
      f0      :     0.000217  f :     0.001778
      f+1     :     0.000276
      f-1     :     0.000172
      f+2     :     0.000197
      f-2     :     0.000312
      f+3     :     0.000260
      f-3     :     0.000345

  8 C s       :     3.235747  s :     3.235747
      pz      :     1.044686  p :     3.041813
      px      :     0.935303
      py      :     1.061824
      dz2     :     0.009691  d :     0.054962
      dxz     :     0.015781
      dyz     :     0.003787
      dx2y2   :     0.013051
      dxy     :     0.012652
      f0      :     0.000450  f :     0.003389
      f+1     :     0.000573
      f-1     :     0.000382
      f+2     :     0.000394
      f-2     :     0.000080
      f+3     :     0.000611
      f-3     :     0.000899

  9 H s       :     0.858686  s :     0.858686
      pz      :     0.004077  p :     0.021050
      px      :     0.004368
      py      :     0.012605

 10 H s       :     0.871304  s :     0.871304
      pz      :     0.011168  p :     0.021106
      px      :     0.005558
      py      :     0.004379

 11 H s       :     0.869074  s :     0.869074
      pz      :     0.004197  p :     0.020942
      px      :     0.010955
      py      :     0.005791

 12 H s       :     0.881501  s :     0.881501
      pz      :     0.011253  p :     0.021563
      px      :     0.004221
      py      :     0.006089

 13 H s       :     0.884885  s :     0.884885
      pz      :     0.006472  p :     0.021456
      px      :     0.007933
      py      :     0.007051

 14 H s       :     0.882524  s :     0.882524
      pz      :     0.006722  p :     0.021472
      px      :     0.008510
      py      :     0.006239

 15 H s       :     0.881390  s :     0.881390
      pz      :     0.011093  p :     0.021460
      px      :     0.004244
      py      :     0.006124

 16 H s       :     0.871536  s :     0.871536
      pz      :     0.011509  p :     0.020881
      px      :     0.004641
      py      :     0.004731

 17 H s       :     0.859989  s :     0.859989
      pz      :     0.004110  p :     0.021022
      px      :     0.004247
      py      :     0.012665

 18 H s       :     0.873506  s :     0.873506
      pz      :     0.007428  p :     0.020860
      px      :     0.007900
      py      :     0.005532


------------------------
MULLIKEN OVERLAP CHARGES
------------------------
B(  0-C ,  1-C ) :   0.6868 B(  0-C ,  2-H ) :  -0.1251 B(  0-C ,  3-C ) :  -0.0765 
B(  0-C ,  7-O ) :  -0.0942 B(  0-C ,  9-H ) :   0.8335 B(  0-C , 10-H ) :   0.8007 
B(  0-C , 11-H ) :   0.8097 B(  1-C ,  2-H ) :   0.8014 B(  1-C ,  3-C ) :   0.6896 
B(  1-C ,  4-C ) :  -0.1211 B(  1-C ,  5-C ) :  -0.0901 B(  1-C ,  7-O ) :   0.5951 
B(  1-C ,  9-H ) :  -0.0888 B(  1-C , 10-H ) :  -0.0815 B(  1-C , 11-H ) :  -0.0724 
B(  1-C , 12-H ) :  -0.0547 B(  1-C , 13-H ) :  -0.0537 B(  2-H ,  3-C ) :  -0.0515 
B(  2-H ,  7-O ) :  -0.0663 B(  3-C ,  4-C ) :   0.7271 B(  3-C ,  5-C ) :  -0.1275 
B(  3-C ,  7-O ) :  -0.1006 B(  3-C , 12-H ) :   0.8005 B(  3-C , 13-H ) :   0.8047 
B(  3-C , 14-H ) :  -0.0729 B(  4-C ,  5-C ) :   0.6540 B(  4-C ,  6-H ) :  -0.1770 
B(  4-C ,  7-O ) :  -0.1556 B(  4-C ,  8-C ) :  -0.0529 B(  4-C , 12-H ) :  -0.0521 
B(  4-C , 13-H ) :  -0.0624 B(  4-C , 14-H ) :   0.8177 B(  4-C , 15-H ) :   0.7681 
B(  5-C ,  6-H ) :   0.8466 B(  5-C ,  7-O ) :   0.6418 B(  5-C ,  8-C ) :   0.6334 
B(  5-C , 14-H ) :  -0.0667 B(  5-C , 16-H ) :  -0.0816 B(  5-C , 17-H ) :  -0.0768 
B(  5-C , 18-H ) :  -0.0674 B(  6-H ,  7-O ) :  -0.1077 B(  6-H ,  8-C ) :  -0.0862 
B(  7-O ,  8-C ) :  -0.1133 B(  8-C , 16-H ) :   0.8163 B(  8-C , 17-H ) :   0.8298 
B(  8-C , 18-H ) :   0.8089 B( 10-H , 11-H ) :  -0.0558 B( 12-H , 13-H ) :  -0.0577 
B( 14-H , 15-H ) :  -0.0523 


                     *******************************
                     * LOEWDIN POPULATION ANALYSIS *
                     *******************************

----------------------
LOEWDIN ATOMIC CHARGES
----------------------
   0 C :   -0.285430
   1 C :   -0.326034
   2 H :    0.135828
   3 C :   -0.229100
   4 C :   -0.227114
   5 C :   -0.329527
   6 H :    0.128813
   7 O :    0.160862
   8 C :   -0.282681
   9 H :    0.121641
  10 H :    0.118704
  11 H :    0.120723
  12 H :    0.131698
  13 H :    0.132214
  14 H :    0.133735
  15 H :    0.130476
  16 H :    0.121202
  17 H :    0.121842
  18 H :    0.122148

-------------------------------
LOEWDIN REDUCED ORBITAL CHARGES
-------------------------------
  0 C s       :     2.829941  s :     2.829941
      pz      :     1.060689  p :     3.175983
      px      :     1.048074
      py      :     1.067220
      dz2     :     0.087979  d :     0.255213
      dxz     :     0.047166
      dyz     :     0.025338
      dx2y2   :     0.051496
      dxy     :     0.043234
      f0      :     0.003118  f :     0.024293
      f+1     :     0.005232
      f-1     :     0.003680
      f+2     :     0.003300
      f-2     :     0.003978
      f+3     :     0.001212
      f-3     :     0.003773

  1 C s       :     2.755911  s :     2.755911
      pz      :     1.030062  p :     2.852175
      px      :     0.863501
      py      :     0.958613
      dz2     :     0.110604  d :     0.634725
      dxz     :     0.152132
      dyz     :     0.081934
      dx2y2   :     0.142986
      dxy     :     0.147069
      f0      :     0.010607  f :     0.083223
      f+1     :     0.008696
      f-1     :     0.006886
      f+2     :     0.008956
      f-2     :     0.012029
      f+3     :     0.020020
      f-3     :     0.016029

  2 H s       :     0.809136  s :     0.809136
      pz      :     0.029230  p :     0.055035
      px      :     0.014058
      py      :     0.011746

  3 C s       :     2.778409  s :     2.778409
      pz      :     1.028996  p :     3.043878
      px      :     1.006386
      py      :     1.008496
      dz2     :     0.056890  d :     0.367436
      dxz     :     0.062698
      dyz     :     0.082461
      dx2y2   :     0.074852
      dxy     :     0.090536
      f0      :     0.004033  f :     0.039376
      f+1     :     0.004888
      f-1     :     0.004490
      f+2     :     0.004696
      f-2     :     0.005784
      f+3     :     0.006345
      f-3     :     0.009141

  4 C s       :     2.778097  s :     2.778097
      pz      :     1.028163  p :     3.043919
      px      :     1.006431
      py      :     1.009325
      dz2     :     0.057119  d :     0.365575
      dxz     :     0.060574
      dyz     :     0.076434
      dx2y2   :     0.083131
      dxy     :     0.088317
      f0      :     0.003727  f :     0.039522
      f+1     :     0.004771
      f-1     :     0.004450
      f+2     :     0.005745
      f-2     :     0.004841
      f+3     :     0.006305
      f-3     :     0.009682

  5 C s       :     2.754628  s :     2.754628
      pz      :     0.925234  p :     2.848472
      px      :     0.949249
      py      :     0.973989
      dz2     :     0.155937  d :     0.642381
      dxz     :     0.112611
      dyz     :     0.104156
      dx2y2   :     0.138791
      dxy     :     0.130887
      f0      :     0.008574  f :     0.084047
      f+1     :     0.013781
      f-1     :     0.008522
      f+2     :     0.013947
      f-2     :     0.014197
      f+3     :     0.013897
      f-3     :     0.011129

  6 H s       :     0.815548  s :     0.815548
      pz      :     0.029843  p :     0.055640
      px      :     0.012127
      py      :     0.013670

  7 O s       :     3.301480  s :     3.301480
      pz      :     1.566689  p :     4.437511
      px      :     1.282696
      py      :     1.588126
      dz2     :     0.015741  d :     0.094075
      dxz     :     0.022205
      dyz     :     0.010398
      dx2y2   :     0.019339
      dxy     :     0.026390
      f0      :     0.000635  f :     0.006071
      f+1     :     0.000774
      f-1     :     0.000571
      f+2     :     0.000677
      f-2     :     0.001187
      f+3     :     0.001251
      f-3     :     0.000977

  8 C s       :     2.828664  s :     2.828664
      pz      :     1.064677  p :     3.172624
      px      :     1.041359
      py      :     1.066588
      dz2     :     0.048380  d :     0.256637
      dxz     :     0.070543
      dyz     :     0.017331
      dx2y2   :     0.066898
      dxy     :     0.053486
      f0      :     0.002541  f :     0.024756
      f+1     :     0.003314
      f-1     :     0.002749
      f+2     :     0.002943
      f-2     :     0.003772
      f+3     :     0.003745
      f-3     :     0.005692

  9 H s       :     0.817948  s :     0.817948
      pz      :     0.012761  p :     0.060411
      px      :     0.013043
      py      :     0.034607

 10 H s       :     0.820732  s :     0.820732
      pz      :     0.029588  p :     0.060564
      px      :     0.017124
      py      :     0.013852

 11 H s       :     0.819130  s :     0.819130
      pz      :     0.013023  p :     0.060147
      px      :     0.029270
      py      :     0.017855

 12 H s       :     0.809335  s :     0.809335
      pz      :     0.029911  p :     0.058967
      px      :     0.012788
      py      :     0.016268

 13 H s       :     0.808837  s :     0.808837
      pz      :     0.019600  p :     0.058949
      px      :     0.021314
      py      :     0.018035

 14 H s       :     0.807449  s :     0.807449
      pz      :     0.020136  p :     0.058817
      px      :     0.022201
      py      :     0.016480

 15 H s       :     0.810457  s :     0.810457
      pz      :     0.029754  p :     0.059067
      px      :     0.012792
      py      :     0.016522

 16 H s       :     0.818844  s :     0.818844
      pz      :     0.031926  p :     0.059953
      px      :     0.013294
      py      :     0.014733

 17 H s       :     0.817854  s :     0.817854
      pz      :     0.012843  p :     0.060304
      px      :     0.012618
      py      :     0.034843

 18 H s       :     0.817888  s :     0.817888
      pz      :     0.022139  p :     0.059964
      px      :     0.020608
      py      :     0.017217


---------------------------------
LOEWDIN BOND ORDERS (THRESH 0.050000)
---------------------------------
B(  0-C ,  1-C ) :   1.2484 B(  0-C ,  2-H ) :   0.0751 B(  0-C ,  3-C ) :   0.1383 
B(  0-C ,  7-O ) :   0.1060 B(  0-C ,  9-H ) :   0.9039 B(  0-C , 10-H ) :   0.8977 
B(  0-C , 11-H ) :   0.8991 B(  1-C ,  2-H ) :   0.8338 B(  1-C ,  3-C ) :   1.1440 
B(  1-C ,  4-C ) :   0.1518 B(  1-C ,  5-C ) :   0.1782 B(  1-C ,  7-O ) :   1.3742 
B(  1-C ,  9-H ) :   0.0806 B(  1-C , 10-H ) :   0.0776 B(  1-C , 11-H ) :   0.0832 
B(  1-C , 12-H ) :   0.0746 B(  1-C , 13-H ) :   0.0703 B(  2-H ,  3-C ) :   0.0668 
B(  3-C ,  4-C ) :   1.1696 B(  3-C ,  5-C ) :   0.1501 B(  3-C ,  7-O ) :   0.1153 
B(  3-C , 12-H ) :   0.8584 B(  3-C , 13-H ) :   0.8569 B(  3-C , 14-H ) :   0.0710 
B(  3-C , 15-H ) :   0.0680 B(  4-C ,  5-C ) :   1.1416 B(  4-C ,  6-H ) :   0.0689 
B(  4-C ,  7-O ) :   0.1104 B(  4-C ,  8-C ) :   0.1364 B(  4-C , 12-H ) :   0.0715 
B(  4-C , 13-H ) :   0.0675 B(  4-C , 14-H ) :   0.8519 B(  4-C , 15-H ) :   0.8619 
B(  5-C ,  6-H ) :   0.8264 B(  5-C ,  7-O ) :   1.3634 B(  5-C ,  8-C ) :   1.2644 
B(  5-C , 14-H ) :   0.0711 B(  5-C , 15-H ) :   0.0749 B(  5-C , 16-H ) :   0.0816 
B(  5-C , 17-H ) :   0.0828 B(  5-C , 18-H ) :   0.0855 B(  6-H ,  8-C ) :   0.0754 
B(  7-O ,  8-C ) :   0.1137 B(  8-C , 16-H ) :   0.8992 B(  8-C , 17-H ) :   0.9027 
B(  8-C , 18-H ) :   0.8974 

------------------------------------------
LOEWDIN REDUCED ORBITAL POPULATIONS PER MO
-------------------------------------------
THRESHOLD FOR PRINTING IS 0.1%%
                      0         1         2         3         4         5   
                 -21.66035 -12.09109 -12.09033 -12.04348 -12.04233 -12.03373
                   2.00000   2.00000   2.00000   2.00000   2.00000   2.00000
                  --------  --------  --------  --------  --------  --------
 0 C  s               0.0       0.0       0.0       0.0       0.0      99.5
 1 C  s               0.0      96.1       3.3       0.0       0.0       0.0
 3 C  s               0.0       0.0       0.0      51.8      47.6       0.0
 4 C  s               0.0       0.0       0.0      47.6      51.8       0.0
 5 C  s               0.0       3.3      96.1       0.0       0.0       0.0
 7 O  s              99.8       0.0       0.0       0.0       0.0       0.0

                      6         7         8         9        10        11   
                 -12.03263  -1.66539  -1.30457  -1.29626  -1.21298  -1.14762
                   2.00000   2.00000   2.00000   2.00000   2.00000   2.00000
                  --------  --------  --------  --------  --------  --------
 0 C  s               0.0       0.3       2.9       6.9      17.0       9.5
 0 C  pz              0.0       0.4       0.5       1.2       0.2       0.7
 0 C  px              0.0       0.6       0.3       0.6       0.1       0.3
 0 C  py              0.0       0.0       0.5       0.2       0.0       0.2
 0 C  dxz             0.0       0.2       0.1       0.3       0.0       0.1
 0 C  dyz             0.0       0.0       0.1       0.1       0.0       0.0
 1 C  s               0.0       5.3       6.1      12.9       2.2       2.2
 1 C  pz              0.0       0.0       0.9       0.2       2.2       4.3
 1 C  px              0.0       6.9       0.3       0.8       5.0       1.9
 1 C  py              0.0       2.0       4.8       0.1       2.5       1.7
 1 C  dz2             0.0       1.0       0.0       0.0       0.5       0.2
 1 C  dxz             0.0       0.0       0.0       0.4       0.5       0.1
 1 C  dyz             0.0       0.0       0.0       0.0       0.3       0.2
 1 C  dx2y2           0.0       0.7       0.3       0.1       0.1       0.6
 1 C  dxy             0.0       1.9       1.4       0.0       0.0       0.1
 1 C  f+1             0.0       0.2       0.0       0.1       0.0       0.0
 1 C  f-3             0.0       0.4       0.0       0.1       0.0       0.0
 2 H  s               0.0       0.6       1.0       2.5       0.6       1.0
 2 H  pz              0.0       0.0       0.1       0.2       0.1       0.0
 2 H  px              0.0       0.0       0.0       0.1       0.0       0.1
 3 C  s               0.0       0.5      17.5       1.7       4.3       3.7
 3 C  pz              0.0       0.0       0.5       0.2       0.1       1.2
 3 C  px              0.0       0.1       1.0       1.7       1.9       1.4
 3 C  py              0.0       1.3       0.9       1.5       0.7       0.2
 3 C  dz2             0.0       0.1       0.1       0.1       0.0       0.0
 3 C  dxz             0.0       0.0       0.3       0.1       0.1       0.1
 3 C  dyz             0.0       0.0       0.0       0.0       0.0       0.2
 3 C  dx2y2           0.0       0.2       0.1       0.6       0.2       0.4
 3 C  dxy             0.0       0.0       0.0       0.3       0.2       0.0
 4 C  s               0.0       0.5      16.9       2.4       4.6       3.3
 4 C  pz              0.0       0.1       0.3       0.2       0.2       0.6
 4 C  px              0.0       0.1       1.5       1.6       1.4       0.8
 4 C  py              0.0       1.1       0.5       1.9       0.8       0.4
 4 C  dz2             0.0       0.1       0.1       0.1       0.0       0.0
 4 C  dxz             0.0       0.0       0.3       0.1       0.1       0.2
 4 C  dx2y2           0.0       0.1       0.1       0.6       0.2       0.5
 4 C  dxy             0.0       0.0       0.0       0.3       0.1       0.0
 5 C  s               0.0       5.3       5.0      14.7       1.7       1.4
 5 C  pz              0.0       3.9       0.2       0.2       0.0       0.3
 5 C  px              0.1       3.6       0.3       2.4       5.0       6.3
 5 C  py              0.0       1.3       5.0       0.0       2.5       1.4
 5 C  dz2             0.0       0.0       0.5       0.0       0.0       0.1
 5 C  dxz             0.0       2.0       0.1       0.1       0.3       0.0
 5 C  dyz             0.0       0.8       0.3       0.0       0.0       0.0
 5 C  dx2y2           0.1       0.2       0.1       0.0       0.9       1.5
 5 C  dxy             0.0       0.7       0.8       0.0       0.0       0.3
 5 C  f+1             0.0       0.1       0.0       0.0       0.0       0.0
 5 C  f-2             0.0       0.3       0.0       0.0       0.0       0.0
 6 H  s               0.0       0.5       0.9       2.5       0.5       0.6
 6 H  pz              0.0       0.0       0.0       0.3       0.0       0.1
 7 O  s               0.0      52.9       4.1       0.0       0.4       0.0
 7 O  pz              0.0       0.4       0.6       1.9       0.4       2.5
 7 O  px              0.0       0.1       0.1      12.3       0.0       3.7
 7 O  py              0.0       0.8       2.2       0.0       0.0       0.0
 7 O  dxz             0.0       0.0       0.0       0.2       0.0       0.0
 7 O  dx2y2           0.0       0.0       0.0       0.0       0.1       0.0
 7 O  dxy             0.0       0.0       0.0       0.4       0.0       0.2
 8 C  s              99.5       0.3       2.0       9.3      12.8      13.1
 8 C  pz              0.0       0.0       0.1       0.1       0.1       0.0
 8 C  px              0.0       1.0       0.5       2.4       0.2       1.1
 8 C  py              0.0       0.0       0.3       0.2       0.0       0.1
 8 C  dz2             0.0       0.1       0.0       0.1       0.0       0.1
 8 C  dx2y2           0.0       0.2       0.0       0.4       0.0       0.1
 8 C  dxy             0.0       0.0       0.1       0.1       0.0       0.1
 9 H  s               0.0       0.0       0.5       1.3       4.1       3.2
 9 H  py              0.0       0.0       0.0       0.1       0.4       0.3
10 H  s               0.0       0.0       0.6       1.1       4.1       3.4
10 H  pz              0.0       0.0       0.0       0.1       0.3       0.2
11 H  s               0.0       0.0       0.6       1.3       4.2       3.2
11 H  px              0.0       0.0       0.0       0.1       0.4       0.2
12 H  s               0.0       0.1       3.1       0.3       1.1       1.4
12 H  pz              0.0       0.0       0.2       0.0       0.1       0.1
13 H  s               0.0       0.1       3.1       0.3       0.9       1.1
13 H  px              0.0       0.0       0.2       0.0       0.1       0.0
14 H  s               0.0       0.1       3.0       0.5       1.0       0.9
14 H  px              0.0       0.0       0.2       0.0       0.1       0.0
15 H  s               0.0       0.1       2.9       0.4       1.0       1.2
15 H  pz              0.0       0.0       0.2       0.0       0.1       0.1
16 H  s               0.0       0.0       0.3       1.7       2.9       4.2
16 H  pz              0.0       0.0       0.0       0.1       0.3       0.4
17 H  s               0.0       0.1       0.3       1.7       3.1       4.2
17 H  py              0.0       0.0       0.0       0.1       0.3       0.4
18 H  s               0.0       0.0       0.4       1.7       3.1       4.4
18 H  pz              0.0       0.0       0.0       0.0       0.1       0.2
18 H  px              0.0       0.0       0.0       0.1       0.2       0.1

                     12        13        14        15        16        17   
                  -1.08959  -1.05863  -0.96438  -0.96094  -0.92583  -0.88369
                   2.00000   2.00000   2.00000   2.00000   2.00000   2.00000
                  --------  --------  --------  --------  --------  --------
 0 C  s               0.5       3.1       0.3       0.0       0.7       0.0
 0 C  pz              0.4       1.9       1.6       3.6       7.9       0.7
 0 C  px              0.2       1.4       0.6       1.0       3.4       0.2
 0 C  py              0.3       0.4       0.0       0.4       1.9       6.6
 0 C  dz2             0.1       0.1       0.1       0.3       0.1       0.0
 0 C  dxz             0.2       0.2       0.1       0.0       0.3       0.0
 0 C  dyz             0.1       0.1       0.0       0.2       0.2       0.0
 0 C  dx2y2           0.1       0.0       0.0       0.2       0.0       0.0
 1 C  s               1.0       4.3       0.2       1.9       1.6       0.0
 1 C  pz              1.1       0.3       0.1       9.5       2.4       2.2
 1 C  px              1.2       0.1       2.5       9.9       6.4       0.2
 1 C  py              9.1       0.5       1.6       1.0       0.0       4.1
 1 C  dz2             0.1       0.1       0.0       0.2       0.1       0.0
 1 C  dxz             0.0       0.9       0.1       0.2       0.8       0.5
 1 C  dyz             0.1       0.0       0.0       0.1       0.0       1.4
 1 C  dx2y2           0.3       0.1       1.3       0.1       0.0       0.0
 1 C  dxy             0.3       0.1       0.6       0.2       0.1       0.2
 1 C  f+3             0.0       0.0       0.2       0.0       0.0       0.0
 2 H  s               0.8       1.8       0.8       9.8       0.7       1.5
 2 H  pz              0.1       0.1       0.1       0.4       0.1       0.0
 3 C  s               8.2       1.3       0.6       0.3       0.6       0.1
 3 C  pz              0.4       0.4       0.1       2.0       2.6      14.1
 3 C  px              3.8       1.7       1.5       0.8       0.0       3.3
 3 C  py              0.6       5.9       3.3       0.8       1.1       4.6
 3 C  dz2             0.1       0.1       0.2       0.0       0.2       0.0
 3 C  dxz             0.3       0.0       0.0       0.0       0.1       0.0
 3 C  dyz             0.0       0.0       0.0       0.2       0.0       0.1
 3 C  dx2y2           0.0       0.7       0.0       0.1       0.1       0.0
 3 C  dxy             0.0       0.0       0.1       0.5       0.9       0.0
 4 C  s               7.0       2.8       0.1       0.1       0.9       0.0
 4 C  pz              1.2       0.4       3.1       0.2       0.2      11.9
 4 C  px              5.0       0.2       0.0       3.8       0.0       2.2
 4 C  py              0.0       7.9       0.9       0.0       4.4       1.9
 4 C  dz2             0.1       0.2       0.0       0.0       0.0       0.0
 4 C  dxz             0.2       0.0       0.0       0.1       0.3       0.0
 4 C  dyz             0.0       0.0       0.5       0.1       0.3       0.3
 4 C  dx2y2           0.1       0.8       0.0       0.0       0.0       0.0
 4 C  dxy             0.0       0.0       0.2       0.0       0.7       0.0
 5 C  s               0.3       5.9       1.2       0.2       1.5       0.1
 5 C  pz              1.3       2.8      13.7       2.8       3.9       0.9
 5 C  px              1.3       1.3       1.0       2.8       3.4       0.1
 5 C  py              8.7       0.0       2.7       0.3       1.6       1.4
 5 C  dz2             0.4       0.0       0.1       0.6       0.6       0.2
 5 C  dxz             0.1       0.0       0.3       0.0       0.0       0.0
 5 C  dyz             0.1       0.4       0.1       0.2       0.4       0.5
 5 C  dx2y2           0.1       0.2       0.2       0.8       0.1       0.0
 5 C  dxy             0.1       0.0       0.3       0.0       0.2       0.3
 6 H  s               0.1       4.5       7.6       0.6       2.8       0.1
 6 H  pz              0.1       0.4       0.3       0.0       0.0       0.0
 6 H  px              0.0       0.0       0.1       0.0       0.1       0.0
 7 O  s               0.0       4.5       0.9       0.7       0.1       0.7
 7 O  pz              3.4       6.8       1.0      15.9      16.6      12.3
 7 O  px             18.6       0.8       2.9      13.3       3.0       1.5
 7 O  py              0.2      10.9      32.6       0.8       1.6       0.3
 7 O  dz2             0.1       0.0       0.1       0.0       0.0       0.0
 7 O  dxz             0.1       0.1       0.0       0.1       0.0       0.1
 7 O  dx2y2           0.0       0.0       0.0       0.0       0.0       0.1
 7 O  dxy             0.1       0.0       0.0       0.1       0.0       0.0
 8 C  s               0.5       2.1       0.2       0.6       0.3       0.0
 8 C  pz              0.0       0.6       3.0       0.2       2.3       0.1
 8 C  px              0.5       2.3       2.0       4.4       3.1       0.6
 8 C  py              0.4       0.2       0.1       0.6       1.5       0.0
 8 C  dxz             0.0       0.2       0.5       0.0       0.2       0.0
 8 C  dx2y2           0.3       0.2       0.0       0.1       0.0       0.0
 8 C  dxy             0.1       0.1       0.0       0.1       0.2       0.0
 9 H  s               0.1       1.9       0.2       0.1       2.1       2.8
 9 H  py              0.0       0.1       0.0       0.0       0.1       0.1
10 H  s               0.4       1.6       0.6       1.2       2.1       0.7
10 H  px              0.0       0.1       0.0       0.0       0.1       0.0
11 H  s               0.4       1.8       0.3       0.2       1.2       0.1
11 H  pz              0.0       0.0       0.0       0.0       0.1       0.0
12 H  s               3.9       0.9       0.6       0.0       2.8       9.1
12 H  pz              0.3       0.1       0.1       0.0       0.1       0.3
13 H  s               4.7       1.0       2.2       0.4       0.3       1.5
13 H  pz              0.2       0.0       0.1       0.0       0.0       0.0
13 H  px              0.1       0.1       0.1       0.1       0.0       0.0
13 H  py              0.1       0.0       0.0       0.0       0.0       0.2
14 H  s               3.7       2.4       0.0       1.1       1.3       5.3
14 H  pz              0.2       0.1       0.0       0.0       0.1       0.0
14 H  px              0.1       0.2       0.0       0.0       0.0       0.2
15 H  s               3.8       1.7       1.3       0.0       2.1       2.5
15 H  pz              0.3       0.2       0.1       0.0       0.1       0.0
15 H  py              0.1       0.0       0.0       0.0       0.0       0.1
16 H  s               0.2       1.6       1.7       0.3       1.3       0.0
16 H  pz              0.0       0.1       0.1       0.0       0.1       0.0
17 H  s               0.1       1.3       0.1       1.1       1.3       0.0
18 H  s               0.4       1.2       0.1       1.1       0.0       0.4

                     18        19        20        21        22        23   
                  -0.85734  -0.84040  -0.83543  -0.82751  -0.81155  -0.80846
                   2.00000   2.00000   2.00000   2.00000   2.00000   2.00000
                  --------  --------  --------  --------  --------  --------
 0 C  pz              0.1       4.4       2.6       3.1       9.7       0.6
 0 C  px              7.9       0.3       3.5       3.5       3.6      18.2
 0 C  py              1.9       5.0       1.3       7.8       2.1      10.0
 0 C  dz2             0.0       0.1       0.1       0.0       0.4       0.4
 0 C  dxz             0.1       0.1       0.0       0.1       0.2       0.1
 0 C  dx2y2           0.0       0.1       0.0       0.3       0.1       0.8
 0 C  dxy             0.1       0.0       0.0       0.3       0.1       0.9
 1 C  s               0.0       0.1       0.3       0.0       0.1       0.1
 1 C  pz              9.2       0.1       0.7       0.9       2.7       0.1
 1 C  px              0.1       0.6       1.4       0.5       0.3       0.8
 1 C  py              0.0       5.9       0.2       2.3       0.8       0.1
 1 C  dz2             0.0       0.0       0.2       0.0       0.4       0.4
 1 C  dxz             0.2       0.0       0.3       0.0       0.4       0.0
 1 C  dyz             0.0       0.0       0.0       0.0       0.2       0.5
 1 C  dx2y2           0.7       0.2       0.0       0.0       0.7       0.2
 1 C  dxy             0.3       0.1       0.1       1.2       0.0       0.3
 1 C  f-2             0.0       0.0       0.0       0.2       0.0       0.0
 1 C  f+3             0.0       0.3       0.1       0.0       0.0       0.1
 2 H  s               3.9       0.2       0.6       0.0       1.2       0.1
 3 C  s               0.1       0.1       0.1       0.2       0.0       0.0
 3 C  pz              0.1       4.4       0.3       5.4       2.9       0.7
 3 C  px              1.3       6.5       1.0      10.0       0.8       0.5
 3 C  py              0.0      13.8       0.3       0.3       0.6       0.0
 3 C  dz2             0.1       0.0       0.1       0.0       0.3       0.0
 3 C  dxz             0.5       0.1       0.2       0.1       0.2       0.0
 3 C  dyz             0.4       0.2       0.2       0.0       0.0       0.0
 3 C  dx2y2           0.0       0.0       0.1       0.2       0.1       0.0
 3 C  dxy             0.0       1.0       0.2       0.0       0.0       0.0
 3 C  f-3             0.0       0.0       0.2       0.0       0.0       0.0
 4 C  s               0.1       0.1       0.1       0.1       0.0       0.0
 4 C  pz              4.4       6.3       0.1       2.8       4.5       0.5
 4 C  px              3.2       0.1       2.3      13.2       0.3       0.5
 4 C  py              2.0       0.2      14.2       1.2       0.4       0.1
 4 C  dz2             0.4       0.1       0.1       0.1       0.2       0.0
 4 C  dxz             0.1       0.1       0.1       0.2       0.0       0.0
 4 C  dyz             0.1       0.2       0.2       0.0       0.1       0.0
 4 C  dx2y2           0.1       0.1       0.1       0.2       0.1       0.0
 4 C  dxy             0.2       0.8       0.1       0.3       0.0       0.0
 5 C  s               0.1       0.2       0.0       0.1       0.0       0.1
 5 C  pz              3.2       1.5       0.4       0.5       0.1       0.2
 5 C  px              5.2       0.1       5.6       1.5       1.0       0.4
 5 C  py              2.7       0.6       7.9       0.5       0.2       0.1
 5 C  dz2             0.5       0.1       0.0       0.0       0.1       0.1
 5 C  dxz             0.1       0.0       0.0       0.1       1.4       0.6
 5 C  dyz             0.0       0.2       0.0       0.0       0.4       0.0
 5 C  dx2y2           0.1       0.2       0.3       0.0       0.4       0.0
 5 C  dxy             0.5       0.0       0.2       2.1       0.0       0.2
 5 C  f+1             0.1       0.0       0.1       0.0       0.1       0.1
 5 C  f+2             0.0       0.2       0.1       0.0       0.0       0.0
 5 C  f+3             0.0       0.0       0.2       0.0       0.0       0.0
 6 H  s               3.0       0.7       0.0       0.0       0.3       0.1
 6 H  py              0.0       0.0       0.1       0.0       0.0       0.0
 7 O  s               0.1       0.2       0.3       0.1       0.0       0.0
 7 O  pz              0.2       0.0       0.4       3.3       0.1       1.2
 7 O  px              1.3       0.1       0.1       0.1       0.0       4.7
 7 O  py              4.6       9.7       8.3       0.8       1.7       0.5
 7 O  dxz             0.2       0.0       0.0       0.0       0.0       0.0
 7 O  dx2y2           0.0       0.2       0.2       0.0       0.0       0.0
 8 C  pz              1.5       2.7       0.8       0.7      24.5      10.5
 8 C  px              3.3       0.3      14.1       5.8       0.1       4.8
 8 C  py             14.2       2.3       5.9       4.4       0.5       1.5
 8 C  dz2             0.0       0.0       0.3       0.0       0.2       0.0
 8 C  dxz             0.0       0.0       0.1       0.1       0.7       0.8
 8 C  dyz             0.0       0.0       0.0       0.0       0.3       0.2
 8 C  dx2y2           0.1       0.1       0.0       0.0       0.1       0.1
 8 C  dxy             0.1       0.0       0.1       0.1       0.0       0.2
 9 H  s               1.7       2.8       1.2       3.3       0.5       3.3
 9 H  pz              0.0       0.0       0.0       0.0       0.1       0.0
 9 H  px              0.1       0.0       0.0       0.1       0.1       0.3
10 H  s               0.6       3.2       2.8       0.9       6.3       2.1
10 H  px              0.0       0.0       0.0       0.1       0.0       0.1
10 H  py              0.0       0.0       0.0       0.1       0.1       0.2
11 H  s               1.8       0.2       0.8       4.7       3.4      16.4
11 H  pz              0.0       0.1       0.0       0.1       0.1       0.0
11 H  px              0.0       0.0       0.0       0.1       0.1       0.2
11 H  py              0.1       0.0       0.1       0.0       0.0       0.0
12 H  s               0.0       0.0       0.1       2.1       0.9       0.3
12 H  px              0.0       0.1       0.0       0.2       0.0       0.0
12 H  py              0.0       0.2       0.0       0.0       0.0       0.0
13 H  s               0.6      13.5       0.5       0.6       0.4       0.0
13 H  pz              0.0       0.1       0.0       0.1       0.0       0.0
13 H  px              0.0       0.2       0.0       0.1       0.0       0.0
14 H  s               1.1       1.4       3.6       2.5       0.5       0.0
14 H  pz              0.0       0.0       0.1       0.2       0.0       0.0
14 H  py              0.1       0.0       0.0       0.0       0.0       0.0
15 H  s               4.1       2.3       2.5       2.4       1.9       0.4
15 H  pz              0.1       0.0       0.1       0.0       0.0       0.0
15 H  px              0.0       0.0       0.0       0.2       0.0       0.0
16 H  s               1.0       1.6       3.2       0.1      10.2       2.6
16 H  pz              0.0       0.0       0.2       0.0       0.1       0.0
16 H  px              0.1       0.0       0.1       0.1       0.1       0.1
16 H  py              0.1       0.0       0.0       0.0       0.1       0.1
17 H  s               7.8       1.4       1.6       1.3       0.2       0.4
17 H  pz              0.0       0.0       0.0       0.0       0.3       0.1
17 H  px              0.0       0.0       0.2       0.1       0.0       0.1
17 H  py              0.2       0.0       0.0       0.0       0.0       0.0
18 H  s               0.2       0.3       4.6       4.5       7.5       9.6
18 H  pz              0.0       0.0       0.3       0.1       0.0       0.0
18 H  px              0.0       0.0       0.0       0.0       0.2       0.1
[...]
 0 C  s               0.0       0.1       0.1       0.1       0.0       0.0
 0 C  pz              0.0       0.1       0.0       0.0       0.0       0.1
 0 C  px              0.0       0.0       0.1       0.1       0.0       0.0
 1 C  s               0.7       0.2       0.5       0.0       0.2       1.2
 1 C  pz              0.1       0.1       0.0       0.3       0.2       0.0
 1 C  px              0.6       0.1       0.7       0.2       0.2       2.3
 1 C  py              0.0       0.1       0.1       0.1       0.4       0.7
 1 C  dz2             0.2       0.2       0.1       0.0       0.1       0.3
 1 C  dxz             0.7       0.5       0.0       0.3       0.2       0.2
 1 C  dyz             0.1       0.0       0.1       0.3       0.2       0.1
 1 C  dx2y2           1.2       0.0       0.3       0.6       0.3       0.3
 1 C  dxy             0.4       0.1       0.4       0.1       0.4       0.7
 1 C  f0              0.7       0.2       0.0       0.2       0.1       0.0
 1 C  f+1             1.0       0.0       0.0       0.0       0.1       0.0
 1 C  f+2             0.0       0.1       0.0       0.0       0.0       0.0
 1 C  f-2             0.8       0.2       0.0       0.2       0.1       0.1
 1 C  f+3             1.8       0.1       0.1       0.5       0.2       0.1
 1 C  f-3             0.9       0.0       0.0       0.0       0.0       0.1
 2 H  s               0.4       0.0       0.0       0.0       0.0       0.0
 3 C  s               0.1       0.1       0.0       0.0       0.0       0.0
 3 C  px              0.2       0.0       0.0       0.0       0.1       0.2
 3 C  dx2y2           0.1       0.0       0.0       0.0       0.0       0.0
 3 C  f-3             0.3       0.0       0.0       0.0       0.0       0.0
 4 C  s               0.2       0.1       0.0       0.0       0.1       0.0
 4 C  pz              0.0       0.0       0.0       0.0       0.0       0.1
 4 C  px              0.1       0.0       0.0       0.0       0.0       0.1
 4 C  f-2             0.2       0.0       0.0       0.0       0.0       0.0
 5 C  s               0.9       0.0       0.4       0.0       0.8       0.9
 5 C  pz              0.2       0.1       0.4       0.1       0.8       0.6
 5 C  px              0.2       0.3       0.3       0.0       0.3       1.3
 5 C  py              0.0       0.1       0.1       0.1       0.9       0.1
 5 C  dz2             0.2       0.3       0.1       1.1       0.1       0.1
 5 C  dxz             0.6       0.1       0.4       0.0       0.5       0.5
 5 C  dyz             0.0       0.0       0.1       0.0       0.7       0.3
 5 C  dx2y2           1.2       0.1       0.1       0.0       0.1       0.3
 5 C  dxy             0.2       0.1       0.5       0.2       0.3       0.2
 5 C  f0              0.3       0.0       0.0       0.1       0.0       0.0
 5 C  f+1             0.2       0.3       0.1       0.2       0.0       0.0
 5 C  f-1             0.4       0.0       0.0       0.2       0.0       0.2
 5 C  f+2             3.5       0.0       0.0       0.0       0.1       0.2
 5 C  f-2             0.0       0.0       0.1       0.1       0.0       0.1
 5 C  f+3             0.5       0.1       0.1       0.0       0.0       0.1
 5 C  f-3             0.9       0.0       0.1       0.1       0.0       0.0
 7 O  s               0.1       0.4       1.5       0.0       3.8       0.2
 7 O  pz              0.2       1.3       0.1       0.0       0.1       0.5
 7 O  px              1.4       0.3       0.0       0.0       0.1       3.4
 7 O  py              0.0       0.0       2.4       0.1       0.0       0.0
 7 O  dz2             2.9      20.3      34.4      12.9       2.8      11.5
 7 O  dxz             2.8       5.4       2.4      26.6      32.6      10.3
 7 O  dyz             1.0      45.2      31.4       1.1       0.1       6.9
 7 O  dx2y2           0.7       9.2      14.0      11.4      41.7       5.8
 7 O  dxy             8.9       7.2       1.5      28.7       0.2      38.9
 7 O  f0              3.6       0.2       2.5       4.2       0.0       0.0
 7 O  f+1             0.2       1.4       0.3       2.3       1.9       0.1
 7 O  f-1             8.4       2.2       0.4       0.1       0.0       2.5
 7 O  f+2            11.7       0.1       0.9       0.5       1.4       0.6
 7 O  f-2            11.1       1.5       1.0       0.4       2.6       3.5
 7 O  f+3            21.7       0.4       0.1       5.0       0.3       1.8
 7 O  f-3             3.1       0.4       1.1       0.2       3.9       1.9
 8 C  s               0.2       0.1       0.0       0.0       0.0       0.0
 8 C  px              0.2       0.0       0.0       0.0       0.0       0.0
 8 C  dx2y2           0.1       0.0       0.0       0.0       0.0       0.0
 8 C  f-2             0.1       0.0       0.0       0.0       0.0       0.0

                    282       283       284       285       286       287   
                  20.72996  20.77072  20.80897  20.90691  20.97081  21.09457
                   0.00000   0.00000   0.00000   0.00000   0.00000   0.00000
                  --------  --------  --------  --------  --------  --------
 0 C  s               0.5       1.5      95.6       0.7       0.1       0.0
 1 C  s              16.7       3.5       1.2      34.2       2.7      40.2
 3 C  s              16.6       9.3       0.3      19.7      51.0       1.9
 4 C  s              17.7      16.8       0.1      18.5      42.7       2.8
 5 C  s              16.7       2.3       0.7      23.4       2.0      53.3
 6 H  s               0.1       0.0       0.0       0.1       0.0       0.2
 7 O  s               0.2       0.0       0.0       0.1       0.0       0.0
 7 O  px              0.0       0.0       0.0       0.0       0.0       0.3
 7 O  dxy             0.0       0.0       0.0       0.0       0.0       0.1
 8 C  s              30.1      65.1       0.5       2.2       0.2       0.2
 9 H  s               0.0       0.0       0.2       0.0       0.0       0.0
 9 H  py              0.0       0.0       0.1       0.0       0.0       0.0
10 H  s               0.0       0.0       0.2       0.0       0.0       0.0
11 H  s               0.0       0.0       0.2       0.0       0.0       0.0
12 H  s               0.0       0.0       0.0       0.0       0.1       0.0
13 H  s               0.1       0.0       0.0       0.1       0.1       0.0
14 H  s               0.1       0.0       0.0       0.1       0.1       0.0
15 H  s               0.0       0.1       0.0       0.0       0.1       0.0
16 H  s               0.1       0.1       0.0       0.0       0.0       0.0
17 H  s               0.1       0.1       0.0       0.0       0.0       0.0
18 H  s               0.1       0.1       0.0       0.0       0.0       0.0

                    288   
                  41.88859
                   0.00000
                  --------
 7 O  s              99.7


                      *****************************
                      * MAYER POPULATION ANALYSIS *
                      *****************************

  NA   - Mulliken gross atomic population
  ZA   - Total nuclear charge
  QA   - Mulliken gross atomic charge
  VA   - Mayer's total valence
  BVA  - Mayer's bonded valence
  FA   - Mayer's free valence

  ATOM       NA         ZA         QA         VA         BVA        FA
  0 C      6.3917     6.0000    -0.3917     3.9349     3.9349     0.0000
  1 C      5.8268     6.0000     0.1732     3.9271     3.9271     0.0000
  2 H      0.9189     1.0000     0.0811     0.9618     0.9618    -0.0000
  3 C      6.2025     6.0000    -0.2025     3.9948     3.9948     0.0000
  4 C      6.1933     6.0000    -0.1933     3.9063     3.9063     0.0000
  5 C      5.9298     6.0000     0.0702     4.0072     4.0072    -0.0000
  6 H      0.9403     1.0000     0.0597     0.9582     0.9582    -0.0000
  7 O      8.3145     8.0000    -0.3145     2.0124     2.0124    -0.0000
  8 C      6.3359     6.0000    -0.3359     3.9179     3.9179     0.0000
  9 H      0.8797     1.0000     0.1203     0.9825     0.9825     0.0000
 10 H      0.8924     1.0000     0.1076     0.9695     0.9695    -0.0000
 11 H      0.8900     1.0000     0.1100     0.9745     0.9745     0.0000
 12 H      0.9031     1.0000     0.0969     0.9746     0.9746     0.0000
 13 H      0.9063     1.0000     0.0937     0.9766     0.9766     0.0000
 14 H      0.9040     1.0000     0.0960     0.9793     0.9793     0.0000
 15 H      0.9028     1.0000     0.0972     0.9784     0.9784    -0.0000
 16 H      0.8924     1.0000     0.1076     0.9888     0.9888     0.0000
 17 H      0.8810     1.0000     0.1190     0.9793     0.9793     0.0000
 18 H      0.8944     1.0000     0.1056     0.9728     0.9728    -0.0000

  Mayer bond orders larger than 0.100000
B(  0-C ,  1-C ) :   0.9525 B(  0-C ,  9-H ) :   0.9862 B(  0-C , 10-H ) :   0.9737 
B(  0-C , 11-H ) :   0.9759 B(  1-C ,  2-H ) :   0.9623 B(  1-C ,  3-C ) :   0.9948 
B(  1-C ,  7-O ) :   0.9909 B(  3-C ,  4-C ) :   1.0252 B(  3-C , 12-H ) :   0.9662 
B(  3-C , 13-H ) :   0.9660 B(  4-C ,  5-C ) :   0.9808 B(  4-C , 14-H ) :   0.9734 
B(  4-C , 15-H ) :   0.9602 B(  5-C ,  6-H ) :   0.9697 B(  5-C ,  7-O ) :   1.0211 
B(  5-C ,  8-C ) :   0.9729 B(  8-C , 16-H ) :   0.9802 B(  8-C , 17-H ) :   0.9828 
B(  8-C , 18-H ) :   0.9757 

-------
TIMINGS
-------

Total SCF time: 0 days 0 hours 2 min 26 sec 

Total time                  ....     146.580 sec
Sum of individual times     ....     143.533 sec  ( 97.9%)

SCF preparation             ....       0.238 sec  (  0.2%)
Fock matrix formation       ....     142.049 sec  ( 96.9%)
  Startup                   ....       0.054 sec  (  0.0% of F)
  Split-RI-J                ....       5.415 sec  (  3.8% of F)
  Chain of spheres X        ....     122.004 sec  ( 85.9% of F)
  XC integration            ....      16.641 sec  ( 11.7% of F)
    Basis function eval.    ....       3.706 sec  ( 22.3% of XC)
    Density eval.           ....       3.415 sec  ( 20.5% of XC)
    XC-Functional eval.     ....       3.472 sec  ( 20.9% of XC)
    XC-Potential eval.      ....       5.273 sec  ( 31.7% of XC)
Diagonalization             ....       0.000 sec  (  0.0%)
Density matrix formation    ....       0.181 sec  (  0.1%)
Total Energy calculation    ....       0.050 sec  (  0.0%)
Population analysis         ....       0.192 sec  (  0.1%)
Orbital Transformation      ....       0.073 sec  (  0.0%)
Orbital Orthonormalization  ....       0.000 sec  (  0.0%)
DIIS solution               ....       0.381 sec  (  0.3%)
  MO trafo                  ....       0.000 sec  (  0.0 % of DIIS)
  Orb grad                  ....       0.000 sec  (  0.0 % of DIIS)
  Energy W gradient         ....       0.000 sec  (  0.0 % of DIIS)
  DIIS error                ....       0.014 sec  (  3.7 % of DIIS)
  DIIS work                 ....       0.315 sec  ( 82.9 % of DIIS)
  Form Q                    ....       0.000 sec  (  0.0 % of DIIS)
  Form QpQm                 ....       0.000 sec  (  0.0 % of DIIS)
  Exp/Cayley                ....       0.000 sec  (  0.0 % of DIIS)
  Orb update                ....       0.000 sec  (  0.0 % of DIIS)
  Wake-sleep                ....       0.012 sec  (  3.2 % of DIIS)
SOSCF solution              ....       0.151 sec  (  0.1%)
  MO trafo                  ....       0.077 sec  ( 50.8 % of SOSCF)
  Orb grad                  ....       0.002 sec  (  1.3 % of SOSCF)
  Rot update                ....       0.022 sec  ( 14.7 % of SOSCF)
  Step                      ....       0.050 sec  ( 33.2 % of SOSCF)
Grid generation             ....       0.219 sec  (  0.1%)
Finished LeanSCF after 146.7 sec

Maximum memory used throughout the entire LEANSCF-calculation: 39.0 MB
------------------   -----------------
gCP correction             0.013386085
------------------   -----------------

-------------------------   --------------------
FINAL SINGLE POINT ENERGY      -311.103709396232
-------------------------   --------------------


------------------------------------------------------------------------------
                              ORCA PROPERTY CALCULATIONS
------------------------------------------------------------------------------

GBWName                                 ... sp_gas.gbw
Number of atoms                         ...     19
Number of basis functions               ...    289
Max core memory                         ...   1024 MB

Electric properties:
Dipole moment                           ... YES
Quadrupole moment                       ...  NO
Static polarizability (Dipole/Dipole)   ...  NO
Static polarizability (Dipole/Quad.)    ...  NO
Static polarizability (Quad./Quad.)     ...  NO
Static polarizability (Velocity)        ...  NO

Atomic electric properties:
Dipole moment                           ...  NO
Quadrupole moment                       ...  NO
Static polarizability                   ...  NO

Choice of electric origin               ... Center of mass
Position of electric origin             ...     0.003680     0.010023     0.033945

General magnetic properties:
Magnetizability                         ...  NO

EPR properties:
g-Tensor (aka g-matrix)                 ...  NO
Zero-Field splitting spin-orbit         ...  NO
Zero-field splitting spin-spin          ...  NO
Hyperfine couplings                     ...  NO (   0 nuclei)
Quadrupole couplings                    ...  NO (   0 nuclei)
Contact density                         ...  NO (   0 nuclei)

NMR properties:
Chemical shifts                         ...  NO (   0 nuclei)
Spin-rotation constants                 ...  NO (   0 nuclei)
Spin-spin couplings                     ...  NO (   0 nuclei,    0 pairs)

Choice of magnetic origin               ... GIAO
Position of magnetic origin             ...     0.000000     0.000000     0.000000

Properties with geometric perturbations:
SCF Hessian                             ...  NO
IR spectrum                             ...  NO
VCD spectrum                            ...  NO
X-ray spectroscopy properties:
SCF XES/XAS/RIXS spectra                ...  NO


-------------
DIPOLE MOMENT
-------------

Method             : SCF
Type of density    : Electron Density
Multiplicity       :   1
Irrep              :   0
Energy             :  -311.1170954816315657 Eh
Relativity type    : 
Basis              : AO
                                X                 Y                 Z
Electronic contribution:      0.260356959      -1.312190270       2.020046052
Nuclear contribution   :     -0.140207307       1.814942171      -2.340734550
                        -----------------------------------------
Total Dipole Moment    :      0.120149651       0.502751901      -0.320688498
                        -----------------------------------------
Magnitude (a.u.)       :      0.608306276
Magnitude (Debye)      :      1.546191677



--------------------
Rotational spectrum 
--------------------
 
Rotational constants in cm-1:             0.150489             0.071013             0.058279 
Rotational constants in MHz :          4511.540953          2128.905594          1747.158852 

Dipole components along the rotational axes: 
x,y,z [a.u.] :     0.150863    -0.483143    -0.337417 
x,y,z [Debye]:     0.383463    -1.228051    -0.857646 

 

Dipole moment calculation done in   0.0 sec 

Maximum memory used throughout the entire PROP-calculation: 23.5 MB

--------------------------------
SUGGESTED CITATIONS FOR THIS RUN
--------------------------------

Below you find a list of papers that are relevant to this ORCA run
We neither can nor want to force you to cite these papers, but we appreciate if you do
You receive ORCA, which is the product of decades of hard work by many enthusiastic individuals, for free
The only thing we kindly ask in return is that you cite our papers,
We deeply appreciate it, if you show your appreciation for ORCA by not just citing the generic ORCA reference.

Please note that relegating all ORCA citations to the supporting information does *not* help us.
SI sections are not indexed - citations you put there will not count into any citation statistics
But we need these citations in order to attract the funding resources that allow us to do what we are doing

Therefore, if you are a happy ORCA user, please consider citing a few of the papers listed below in the main body of your paper

In addition to the list printed below, the program has created the file sp_gas.bibtex that contains the list in bibtex format
You can import this file easily into all common literature databanks and citation aid programs


List of essential papers. We consider these as the minimum necessary citations

  1. Neese,F.
     Software update: the ORCA program system, version 5.0
     WIRES Comput. Molec. Sci., 2022 12(1)e1606
     doi.org/10.1002/wcms.1606

List of papers to cite with high priority. The work reported in these papers was absolutely
necessary for this run to complete.
Our perspective: the developers of density functionals and basis sets usually get cited in chemistry papers
Good! But without the algorithms to do something with them, the functionals or basis sets would not do anything.
Hence, in our opinion, the algorithm design and method developments papers are equally worthy of getting cited

  1. Neese,F.
     An improvement of the resolution of the identity approximation for the formation of the Coulomb matrix
     J. Comp. Chem., 2003 24(14)1740-1747
     doi.org/10.1002/jcc.10318
  2. Neese,F.; Wennmohs,F.; Hansen,A.; Becker,U.
     Efficient, approximate and parallel Hartree-Fock and hybrid DFT calculations. A 'chain-of-spheres' algorithm for the Hartree-Fock exchange
     Chem. Phys., 2009 356(1-3)98-109
     doi.org/10.1016/j.chemphys.2008.10.036
  3. Helmich-Paris,B.; de Souza,B.; Neese,F.; Izsák,R.
     An improved chain of spheres for exchange algorithm
     J. Chem. Phys., 2021 155 104109
     doi.org/doi: 10.1063/5.0058766.
  4. Neese,F.
     The SHARK Integral Generation and Digestion System
     J. Comp. Chem., 2022  1-16
     doi.org/10.1002/jcc.26942

List of suggested additional citations. These are papers that are important in the 'surrounding' of 
of this run, or papers that preceded the highly important papers. If you like your results we are grateful for a citation.

  1. Izsak,R.; Neese,F.
     An overlap fitted chain of spheres exchange method
     J. Chem. Phys., 2011 135 144105
     doi.org/10.1063/1.3646921
  2. Izsak,R.; Hansen,A.; Neese,F.
     The resolution of identity and chain of spheres approximations for the LPNO-CCSD singles Fock term
     Molec. Phys., 2012 110 2413-2417
     doi.org/10.1080/00268976.2012.687466
  3. Neese,F.
     The ORCA program system
     WIRES Comput. Molec. Sci., 2012 2(1)73-78
     doi.org/10.1002/wcms.81
  4. Izsak,R.; Neese,F.; Klopper,W.
     Robust fitting techniques in the chain of spheres approximation to the Fock exchange: The role of the complementary space
     J. Chem. Phys., 2013 139 
     doi.org/10.1063/1.4819264
  5. Neese,F.
     Software update: the ORCA program system, version 4.0
     WIRES Comput. Molec. Sci., 2018 8(1)1-6
     doi.org/10.1002/wcms.1327
  6. Neese,F.; Wennmohs,F.; Becker,U.; Riplinger,C.
     The ORCA quantum chemistry program package
     J. Chem. Phys., 2020 152 Art. No. L224108
     doi.org/10.1063/5.0004608

List of optional additional citations

  1. Neese,F.
     Approximate second-order SCF convergence for spin unrestricted wavefunctions
     Chem. Phys. Lett., 2000 325(1-3)93-98
     doi.org/10.1016/s0009-2614(00)00662-x

Timings for individual modules:

Sum of individual times          ...      149.678 sec (=   2.495 min)
Startup calculation              ...        2.509 sec (=   0.042 min)   1.7 %
SCF iterations                   ...      147.055 sec (=   2.451 min)  98.2 %
Property calculations            ...        0.114 sec (=   0.002 min)   0.1 %
                             ****ORCA TERMINATED NORMALLY****
TOTAL RUN TIME: 0 days 0 hours 2 minutes 30 seconds 370 msec
