
                                 *****************
                                 * O   R   C   A *
                                 *****************

                                            #,                                       
                                            ###                                      
                                            ####                                     
                                            #####                                    
                                            ######                                   
                                           ########,                                 
                                     ,,################,,,,,                         
                               ,,#################################,,                 
                          ,,##########################################,,             
                       ,#########################################, ''#####,          
                    ,#############################################,,   '####,        
                  ,##################################################,,,,####,       
                ,###########''''           ''''###############################       
              ,#####''   ,,,,##########,,,,          '''####'''          '####       
            ,##' ,,,,###########################,,,                        '##       
           ' ,,###''''                  '''############,,,                           
         ,,##''                                '''############,,,,        ,,,,,,###''
      ,#''                                            '''#######################'''  
     '                                                          ''''####''''         
             ,#######,   #######,   ,#######,      ##                                
            ,#'     '#,  ##    ##  ,#'     '#,    #''#        ,####,   ,####,        
            ##       ##  ##   ,#'  ##            #'  '#       #'       #'  '#        
            ##       ##  #######   ##           ,######,      #####,   #    #        
            '#,     ,#'  ##    ##  '#,     ,#' ,#      #,     #,   #   #,  ,#        
             '#######'   ##     ##  '#######'  #'      '#     '####' # '####'        



                #########################################################
                #                        -***-                          #
                #          Department of theory and spectroscopy        #
                #                                                       #
                #                      Frank Neese                      #
                #                                                       #
                #     Directorship, Architecture, Infrastructure        #
                #                    SHARK, DRIVERS                     #
                #        Core code/Algorithms in most modules           #
                #                                                       #
                #        Max Planck Institute fuer Kohlenforschung      #
                #                Kaiser Wilhelm Platz 1                 #
                #                 D-45470 Muelheim/Ruhr                 #
                #                      Germany                          #
                #                                                       #
                #                  All rights reserved                  #
                #                        -***-                          #
                #########################################################


                         Program Version 6.0.0  -   RELEASE  -


 With contributions from (in alphabetic order):
   Daniel Aravena         : Magnetic Suceptibility
   Michael Atanasov       : Ab Initio Ligand Field Theory (pilot matlab implementation)
   Alexander A. Auer      : GIAO ZORA, VPT2 properties, NMR spectrum
   Ute Becker             : All parallelization in ORCA, NUMFREQ, NUMCALC
   Giovanni Bistoni       : ED, misc. LED, open-shell LED, HFLD
   Martin Brehm           : Molecular dynamics
   Dmytro Bykov           : pre 5.0 version of the SCF Hessian
   Marcos Casanova-Páez   : Triplet and SCS-CIS(D). UHF-(DLPNO)-IP/EA/STEOM-CCSD. UHF-CVS-IP/STEOM-CCSD
   Vijay G. Chilkuri      : MRCI spin determinant printing, contributions to CSF-ICE
   Pauline Colinet        : FMM embedding
   Dipayan Datta          : RHF DLPNO-CCSD density
   Achintya Kumar Dutta   : EOM-CC, STEOM-CC
   Nicolas Foglia         : Exact transition moments, OPA infrastructure, MCD improvements
   Dmitry Ganyushin       : Spin-Orbit,Spin-Spin,Magnetic field MRCI
   Miquel Garcia          : C-PCM and meta-GGA Hessian, CCSD/C-PCM, Gaussian charge scheme
   Tiago L. C. Gouveia    : GS-ROHF, GS-ROCIS
   Yang Guo               : DLPNO-NEVPT2, F12-NEVPT2, CIM, IAO-localization
   Andreas Hansen         : Spin unrestricted coupled pair/coupled cluster methods
   Ingolf Harden          : AUTO-CI MPn and infrastructure 
   Benjamin Helmich-Paris : MC-RPA, TRAH-(SCF,CASSCF), AVAS, COSX integrals, SCF dyn. polar.
   Lee Huntington         : MR-EOM, pCC
   Robert Izsak           : Overlap fitted RIJCOSX, COSX-SCS-MP3, EOM
   Riya Kayal             : Wick's Theorem for AUTO-CI, AUTO-CI UHF-CCSDT
   Emily Kempfer          : AUTO-CI, RHF CISDT and CCSDT
   Christian Kollmar      : KDIIS, OOCD, Brueckner-CCSD(T), CCSD density, CASPT2, CASPT2-K, improved NEVPT2
   Axel Koslowski         : Symmetry handling
   Simone Kossmann        : Meta GGA functionals, TD-DFT gradient, OOMP2, (MP2 Hessian; deprecated post 5.0)
   Lucas Lang             : DCDCAS
   Marvin Lechner         : AUTO-CI (C++ implementation), FIC-MRCC
   Spencer Leger          : CASSCF response
   Dagmar Lenk            : GEPOL surface, SMD, ORCA-2-JSON
   Dimitrios Liakos       : Extrapolation schemes; Compound Job, initial MDCI parallelization
   Dimitrios Manganas     : Further ROCIS development; embedding schemes. LFT, Crystal Embedding
   Dimitrios Pantazis     : SARC Basis sets
   Anastasios Papadopoulos: AUTO-CI, single reference methods and gradients
   Taras Petrenko         : pre 6.0 DFT Hessian and TD-DFT gradient, (ASA, deprecated), ECA, 1-Electron XAS/XES, NRVS
   Peter Pinski           : DLPNO-MP2, DLPNO-MP2 Gradient
   Christoph Reimann      : Effective Core Potentials
   Marius Retegan         : Local ZFS, SOC
   Christoph Riplinger    : Optimizer, TS searches, QM/MM, DLPNO-CCSD(T), (RO)-DLPNO pert. Triples
   Michael Roemelt        : Original ROCIS implementation
   Masaaki Saitow         : Open-shell DLPNO-CCSD energy and density
   Barbara Sandhoefer     : DKH picture change effects
   Kantharuban Sivalingam : CASSCF convergence/infrastructure, NEVPT2 and variants, FIC-MRCI
   Bernardo de Souza      : ESD, SOC TD-DFT
   Georgi Stoychev        : AutoAux, RI-MP2 NMR, DLPNO-MP2 response, X2C
   Van Anh Tran           : RI-MP2 g-tensors
   Willem Van den Heuvel  : Paramagnetic NMR
   Zikuan Wang            : NOTCH, Electric field optimization 
   Frank Wennmohs         : Technical directorship and infrastructure
   Hang Xu                : AUTO-CI-Response properties 


 We gratefully acknowledge several colleagues who have allowed us to
 interface, adapt or use parts of their codes:
   Stefan Grimme, W. Hujo, H. Kruse, P. Pracht,  : VdW corrections, initial TS optimization,
                  C. Bannwarth, S. Ehlert,         DFT functionals, gCP, sTDA/sTD-DF
                  L. Wittmann, M. Mueller
   Ed Valeev, F. Pavosevic, A. Kumar             : LibInt (2-el integral package), F12 methods
   Garnet Chan, S. Sharma, J. Yang, R. Olivares  : DMRG
   Ulf Ekstrom                                   : XCFun DFT Library
   Mihaly Kallay                                 : mrcc  (arbitrary order and MRCC methods)
   Frank Weinhold                                : gennbo (NPA and NBO analysis)
   Simon Mueller                                 : openCOSMO-RS
   Christopher J. Cramer and Donald G. Truhlar   : smd solvation model
   Lars Goerigk                                  : TD-DFT with DH, B97 family of functionals
   V. Asgeirsson, H. Jonsson                     : NEB implementation
   FAccTs GmbH                                   : IRC, NEB, NEB-TS, DLPNO-Multilevel, CI-OPT
                                                   MM, QMMM, 2- and 3-layer-ONIOM, Crystal-QMMM,
                                                   LR-CPCM, SF, NACMEs, symmetry and pop. for TD-DFT,
                                                   nearIR, NL-DFT gradient (VV10), updates on ESD,
                                                   ML-optimized integration grids, MBIS, APM,
                                                   GOAT, DOCKER, SOLVATOR, interface openCOSMO-RS
   S Lehtola, MJT Oliveira, MAL Marques          : LibXC Library
   Liviu Ungur et al                             : ANISO software


 Your calculation uses the libint2 library for the computation of 2-el integrals
 For citations please refer to: http://libint.valeyev.net

 Your ORCA version has been built with support for libXC version: 6.2.2
 For citations please refer to: https://libxc.gitlab.io

 This ORCA versions uses:
   CBLAS   interface :  Fast vector & matrix operations
   LAPACKE interface :  Fast linear algebra routines
   SCALAPACK package :  Parallel linear algebra routines
   Shared memory     :  Shared parallel matrices
   BLAS/LAPACK       :  OpenBLAS 0.3.27  USE64BITINT DYNAMIC_ARCH NO_AFFINITY SkylakeX SINGLE_THREADED
        Core in use  :  SkylakeX
   Copyright (c) 2011-2014, The OpenBLAS Project


Your calculation utilizes the geometrical counterpoise correction gCP
Please cite in your paper:
H.Kruse, S. Grimme J.Chem.Phys., 136, (2012), 154101 
   

Your calculation utilizes the atom-pairwise dispersion correction
based on EEQ partial charges (D4)


================================================================================

----- Orbital basis set information -----
Your calculation utilizes the basis: def2-SV(P)
   F. Weigend and R. Ahlrichs, Phys. Chem. Chem. Phys. 7, 3297 (2005).

----- AuxJ basis set information -----
Your calculation utilizes the auxiliary basis: def2/J
   F. Weigend, Phys. Chem. Chem. Phys. 8, 1057 (2006).

================================================================================
                                        WARNINGS
                       Please study these warnings very carefully!
================================================================================


================================================================================
                                       INPUT FILE
================================================================================
NAME = sp.inp
|  1> ! pbe def2-sv(p) def2/J RI DEFGRID1 loosescf d4 GCP(DFT/SV(P)) printgap
|  2> %output
|  3>     printlevel normal
|  4> end
|  5> * xyz 0 1
|  6> C -2.8138197542 -1.2672105767 0.0255969421
|  7> O -1.6603759364 -0.664281512 -0.5636296752
|  8> C -1.0606683351 0.3025656125 0.1211840731
|  9> O -1.4571480178 0.6768334979 1.2064262066
| 10> C 0.1074116263 0.9074018778 -0.6340037305
| 11> C 0.8431748343 -0.1346298113 -1.4795219369
| 12> C 1.423379276 -1.2497830449 -0.6005047471
| 13> C 1.7915515467 -0.7265099976 0.7923153827
| 14> C 2.254041364 0.7234330882 0.7026881259
| 15> C 1.0742788947 1.6242731408 0.321332544
| 16> H -2.5410266717 -1.7645011275 0.9574031856
| 17> H -3.1765553981 -1.9824980996 -0.7057441312
| 18> H -3.5659892963 -0.5065905235 0.2386820497
| 19> H -0.3546322487 1.6446380013 -1.300947533
| 20> H 0.1683786333 -0.5579791554 -2.2225676653
| 21> H 1.6460882834 0.3798439142 -2.0078445468
| 22> H 0.7009206666 -2.061552626 -0.5034628576
| 23> H 2.3108801046 -1.6569809904 -1.0869538256
| 24> H 0.923924604 -0.7738178831 1.4555506844
| 25> H 2.5716791073 -1.3508552683 1.2297492798
| 26> H 2.6663377437 1.0499531019 1.6578991132
| 27> H 3.0454635738 0.798841817 -0.0443961275
| 28> H 0.5167455352 1.9034066596 1.2181436237
| 29> H 1.444077136 2.539286094 -0.1407336099
| 30> *
| 31> 
| 32>                          ****END OF INPUT****
================================================================================

                       ****************************
                       * Single Point Calculation *
                       ****************************

---------------------------------
CARTESIAN COORDINATES (ANGSTROEM)
---------------------------------
  C     -2.813820   -1.267211    0.025597
  O     -1.660376   -0.664282   -0.563630
  C     -1.060668    0.302566    0.121184
  O     -1.457148    0.676833    1.206426
  C      0.107412    0.907402   -0.634004
  C      0.843175   -0.134630   -1.479522
  C      1.423379   -1.249783   -0.600505
  C      1.791552   -0.726510    0.792315
  C      2.254041    0.723433    0.702688
  C      1.074279    1.624273    0.321333
  H     -2.541027   -1.764501    0.957403
  H     -3.176555   -1.982498   -0.705744
  H     -3.565989   -0.506591    0.238682
  H     -0.354632    1.644638   -1.300948
  H      0.168379   -0.557979   -2.222568
  H      1.646088    0.379844   -2.007845
  H      0.700921   -2.061553   -0.503463
  H      2.310880   -1.656981   -1.086954
  H      0.923925   -0.773818    1.455551
  H      2.571679   -1.350855    1.229749
  H      2.666338    1.049953    1.657899
  H      3.045464    0.798842   -0.044396
  H      0.516746    1.903407    1.218144
  H      1.444077    2.539286   -0.140734

----------------------------
CARTESIAN COORDINATES (A.U.)
----------------------------
  NO LB      ZA    FRAG     MASS         X           Y           Z
   0 C     6.0000    0    12.011   -5.317349   -2.394681    0.048371
   1 O     8.0000    0    15.999   -3.137656   -1.255310   -1.065106
   2 C     6.0000    0    12.011   -2.004373    0.571766    0.229005
   3 O     8.0000    0    15.999   -2.753611    1.279030    2.279815
   4 C     6.0000    0    12.011    0.202979    1.714741   -1.198093
   5 C     6.0000    0    12.011    1.593370   -0.254413   -2.795891
   6 C     6.0000    0    12.011    2.689797   -2.361748   -1.134790
   7 C     6.0000    0    12.011    3.385542   -1.372905    1.497259
   8 C     6.0000    0    12.011    4.259521    1.367090    1.327888
   9 C     6.0000    0    12.011    2.030093    3.069431    0.607231
  10 H     1.0000    0     1.008   -4.801845   -3.334424    1.809230
  11 H     1.0000    0     1.008   -6.002820   -3.746378   -1.333663
  12 H     1.0000    0     1.008   -6.738743   -0.957317    0.451044
  13 H     1.0000    0     1.008   -0.670158    3.107915   -2.458435
  14 H     1.0000    0     1.008    0.318190   -1.054428   -4.200044
  15 H     1.0000    0     1.008    3.110656    0.717801   -3.794276
  16 H     1.0000    0     1.008    1.324548   -3.895770   -0.951407
  17 H     1.0000    0     1.008    4.366931   -3.131240   -2.054045
  18 H     1.0000    0     1.008    1.745964   -1.462304    2.750592
  19 H     1.0000    0     1.008    4.859769   -2.552747    2.323889
  20 H     1.0000    0     1.008    5.038648    1.984124    3.132975
  21 H     1.0000    0     1.008    5.755092    1.509592   -0.083897
  22 H     1.0000    0     1.008    0.976508    3.596917    2.301958
  23 H     1.0000    0     1.008    2.728910    4.798555   -0.265948

--------------------------------
INTERNAL COORDINATES (ANGSTROEM)
--------------------------------
 C      0   0   0     0.000000000000     0.00000000     0.00000000
 O      1   0   0     1.428686146225     0.00000000     0.00000000
 C      2   1   0     1.327935404706   117.33424562     0.00000000
 O      3   2   1     1.214505280828   122.53067775     0.00000000
 C      3   2   1     1.516755195393   112.41826618   182.73772566
 C      5   3   2     1.530385107314   111.95082675   325.43991435
 C      6   5   3     1.533908455072   111.11598836   298.93406827
 C      7   6   5     1.532747016607   111.30943619   329.64579852
 C      8   7   6     1.524553976849   110.12895075   327.21907752
 C      9   8   7     1.532574423701   109.88498650    68.23428195
 H      1   2   3     1.090860592927   110.04644426   297.00483747
 H      1   2   3     1.085390783666   105.66629481   177.07701877
 H      1   2   3     1.090736974927   110.06119461    56.99331997
 H      5   3   2     1.096273542466   104.27034901    83.04716916
 H      6   5   3     1.089353723327   110.09949766    61.10623086
 H      6   5   3     1.090173381214   107.48810162   178.51594554
 H      7   6   5     1.091024025131   109.96335065    91.05328594
 H      7   6   5     1.090917317471   108.87792897   208.58659107
 H      8   7   6     1.093112808977   110.23794299    86.93251879
 H      8   7   6     1.090758654417   109.92620986   205.18000027
 H      9   8   7     1.090427280619   110.36447854   189.03231772
 H      9   8   7     1.090949344480   109.03037411   307.19995061
 H     10   9   8     1.092258706052   109.80623239    85.11650444
 H     10   9   8     1.089726834749   109.74516150   203.52208431

---------------------------
INTERNAL COORDINATES (A.U.)
---------------------------
 C      0   0   0     0.000000000000     0.00000000     0.00000000
 O      1   0   0     2.699825547693     0.00000000     0.00000000
 C      2   1   0     2.509434238432   117.33424562     0.00000000
 O      3   2   1     2.295082368966   122.53067775     0.00000000
 C      3   2   1     2.866251931495   112.41826618   182.73772566
 C      5   3   2     2.892008732255   111.95082675   325.43991435
 C      6   5   3     2.898666894592   111.11598836   298.93406827
 C      7   6   5     2.896472093973   111.30943619   329.64579852
 C      8   7   6     2.880989492626   110.12895075   327.21907752
 C      9   8   7     2.896145940648   109.88498650    68.23428195
 H      1   2   3     2.061427770918   110.04644426   297.00483747
 H      1   2   3     2.051091329411   105.66629481   177.07701877
 H      1   2   3     2.061194166755   110.06119461    56.99331997
 H      5   3   2     2.071656763125   104.27034901    83.04716916
 H      6   5   3     2.058580200056   110.09949766    61.10623086
 H      6   5   3     2.060129128985   107.48810162   178.51594554
 H      7   6   5     2.061736613026   109.96335065    91.05328594
 H      7   6   5     2.061534964773   108.87792897   208.58659107
 H      8   7   6     2.065683842449   110.23794299    86.93251879
 H      8   7   6     2.061235135052   109.92620986   205.18000027
 H      9   8   7     2.060608929327   110.36447854   189.03231772
 H      9   8   7     2.061595487049   109.03037411   307.19995061
 H     10   9   8     2.064069821829   109.80623239    85.11650444
 H     10   9   8     2.059285278461   109.74516150   203.52208431

---------------------
BASIS SET INFORMATION
---------------------
There are 3 groups of distinct atoms

 Group   1 Type C   : 7s4p1d contracted to 3s2p1d pattern {511/31/1}
 Group   2 Type O   : 7s4p1d contracted to 3s2p1d pattern {511/31/1}
 Group   3 Type H   : 4s contracted to 2s pattern {31}

Atom   0C    basis set group =>   1
Atom   1O    basis set group =>   2
Atom   2C    basis set group =>   1
Atom   3O    basis set group =>   2
Atom   4C    basis set group =>   1
Atom   5C    basis set group =>   1
Atom   6C    basis set group =>   1
Atom   7C    basis set group =>   1
Atom   8C    basis set group =>   1
Atom   9C    basis set group =>   1
Atom  10H    basis set group =>   3
Atom  11H    basis set group =>   3
Atom  12H    basis set group =>   3
Atom  13H    basis set group =>   3
Atom  14H    basis set group =>   3
Atom  15H    basis set group =>   3
Atom  16H    basis set group =>   3
Atom  17H    basis set group =>   3
Atom  18H    basis set group =>   3
Atom  19H    basis set group =>   3
Atom  20H    basis set group =>   3
Atom  21H    basis set group =>   3
Atom  22H    basis set group =>   3
Atom  23H    basis set group =>   3
---------------------------------
AUXILIARY/J BASIS SET INFORMATION
---------------------------------
There are 3 groups of distinct atoms

 Group   1 Type C   : 12s5p4d2f1g contracted to 6s4p3d1f1g pattern {711111/2111/211/2/1}
 Group   2 Type O   : 12s5p4d2f1g contracted to 6s4p3d1f1g pattern {711111/2111/211/2/1}
 Group   3 Type H   : 5s2p1d contracted to 3s1p1d pattern {311/2/1}

Atom   0C    basis set group =>   1
Atom   1O    basis set group =>   2
Atom   2C    basis set group =>   1
Atom   3O    basis set group =>   2
Atom   4C    basis set group =>   1
Atom   5C    basis set group =>   1
Atom   6C    basis set group =>   1
Atom   7C    basis set group =>   1
Atom   8C    basis set group =>   1
Atom   9C    basis set group =>   1
Atom  10H    basis set group =>   3
Atom  11H    basis set group =>   3
Atom  12H    basis set group =>   3
Atom  13H    basis set group =>   3
Atom  14H    basis set group =>   3
Atom  15H    basis set group =>   3
Atom  16H    basis set group =>   3
Atom  17H    basis set group =>   3
Atom  18H    basis set group =>   3
Atom  19H    basis set group =>   3
Atom  20H    basis set group =>   3
Atom  21H    basis set group =>   3
Atom  22H    basis set group =>   3
Atom  23H    basis set group =>   3
------------------------------------------------------------------------------
                             ORCA STARTUP CALCULATIONS
                           -- RI-GTO INTEGRALS CHOSEN --
------------------------------------------------------------------------------
------------------------------------------------------------------------------
                   ___                                                        
                  /   \      - P O W E R E D   B Y -                         
                 /     \                                                     
                 |  |  |   _    _      __       _____    __    __             
                 |  |  |  | |  | |    /  \     |  _  \  |  |  /  |          
                  \  \/   | |  | |   /    \    | | | |  |  | /  /          
                 / \  \   | |__| |  /  /\  \   | |_| |  |  |/  /          
                |  |  |   |  __  | /  /__\  \  |    /   |      \           
                |  |  |   | |  | | |   __   |  |    \   |  |\   \          
                \     /   | |  | | |  |  |  |  | |\  \  |  | \   \       
                 \___/    |_|  |_| |__|  |__|  |_| \__\ |__|  \__/        
                                                                              
                      - O R C A' S   B I G   F R I E N D -                    
                                      &                                       
                       - I N T E G R A L  F E E D E R -                       
                                                                              
 v1 FN, 2020, v2 2021, v3 2022-2024                                           
------------------------------------------------------------------------------


----------------------
SHARK INTEGRAL PACKAGE
----------------------

Number of atoms                             ...     24
Number of basis functions                   ...    168
Number of shells                            ...     88
Maximum angular momentum                    ...      2
Integral batch strategy                     ... SHARK/LIBINT Hybrid
RI-J (if used) integral strategy            ... SPLIT-RIJ (Revised 2003 algorithm where possible)
Printlevel                                  ...      1
Contraction scheme used                     ... SEGMENTED contraction
Prescreening option                         ... SCHWARTZ
   Thresh                                   ... 1.000e-09
   Tcut                                     ... 1.000e-10
   Tpresel                                  ... 1.000e-10 
Coulomb Range Separation                    ... NOT USED
Exchange Range Separation                   ... NOT USED
Multipole approximations                    ... NOT USED
Finite Nucleus Model                        ... NOT USED
CABS basis                                  ... NOT available
Auxiliary Coulomb fitting basis             ... AVAILABLE
   # of basis functions in Aux-J            ...    644
   # of shells in Aux-J                     ...    220
   Maximum angular momentum in Aux-J        ...      4
Auxiliary J/K fitting basis                 ... NOT available
Auxiliary Correlation fitting basis         ... NOT available
Auxiliary 'external' fitting basis          ... NOT available

Checking pre-screening integrals            ... done (  0.0 sec) Dimension = 88
Check shell pair data                       ... done (  0.0 sec)
Shell pair information
Shell pair cut-off parameter TPreSel        ...   1.0e-10
Total number of shell pairs                 ...      3916
Shell pairs after pre-screening             ...      3691
Total number of primitive shell pairs       ...     15748
Primitive shell pairs kept                  ...     10219
          la=0 lb=0:   1586 shell pairs
          la=1 lb=0:   1119 shell pairs
          la=1 lb=1:    209 shell pairs
          la=2 lb=0:    529 shell pairs
          la=2 lb=1:    197 shell pairs
          la=2 lb=2:     51 shell pairs

Calculating one electron integrals          ... done (  0.0 sec)
Calculating RI/J V-Matrix + Cholesky decomp.... done (  0.1 sec)
Calculating Nuclear repulsion               ... done (  0.0 sec) ENN=    585.921308598763 Eh

Diagonalization of the overlap matrix:
Smallest eigenvalue                        ... 6.616e-04
Time for diagonalization                   ...    0.003 sec
Threshold for overlap eigenvalues          ... 1.000e-07
Number of eigenvalues below threshold      ... 0
Time for construction of square roots      ...    0.014 sec
Total time needed                          ...    0.027 sec

-------------------
DFT GRID GENERATION
-------------------

General Integration Accuracy     IntAcc      ... 4.159
Radial Grid Type                 RadialGrid  ... OptM3 with GC (2021)
Angular Grid (max. ang.)         AngularGrid ... 3 (Lebedev-194)
Angular grid pruning method      GridPruning ... 4 (adaptive)
Weight generation scheme         WeightScheme... mBecke (2022)
Basis function cutoff            BFCut       ... 1.0000e-10
Integration weight cutoff        WCut        ... 1.0000e-14
Partially contracted basis set               ... off
Rotationally invariant grid construction     ... off
Angular grids for H and He will be reduced by one unit

Total number of grid points                  ...    51816
Total number of batches                      ...      822
Average number of points per batch           ...       63
Average number of grid points per atom       ...     2159
Initializing property integral containers    ... done (  0.0 sec)

SHARK setup successfully completed in   1.0 seconds

Maximum memory used throughout the entire STARTUP-calculation: 26.2 MB
-------------------------------------------------------------------------------
                                 ORCA GUESS
                   Start orbitals & Density for SCF / CASSCF
-------------------------------------------------------------------------------

------------
SCF SETTINGS
------------
Hamiltonian:
 Density Functional     Method          .... DFT(GTOs)
 Exchange Functional    Exchange        .... PBE
   PBE kappa parameter   XKappa         ....  0.804000
   PBE mue parameter    XMuePBE         ....  0.219520
 Correlation Functional Correlation     .... PBE
   PBE beta parameter  CBetaPBE         ....  0.066725
 LDA part of GGA corr.  LDAOpt          .... PW91-LDA
 Gradients option       PostSCFGGA      .... off
   NL short-range parameter             ....  6.400000
 RI-approximation to the Coulomb term is turned on
   Number of AuxJ basis functions       .... 644


General Settings:
 Integral files         IntName         .... sp
 Hartree-Fock type      HFTyp           .... RHF
 Total Charge           Charge          ....    0
 Multiplicity           Mult            ....    1
 Number of Electrons    NEL             ....   78
 Basis Dimension        Dim             ....  168
 Nuclear Repulsion      ENuc            ....    585.9213085988 Eh

Convergence Acceleration:
 AO-DIIS                CNVDIIS         .... on
   Start iteration      DIISMaxIt       ....    12
   Startup error        DIISStart       ....  0.200000
   # of expansion vecs  DIISMaxEq       ....     5
   Bias factor          DIISBfac        ....   1.050
   Max. coefficient     DIISMaxC        ....  10.000
 MO-DIIS                CNVKDIIS        .... off
 Trust-Rad. Augm. Hess. CNVTRAH         .... auto
   Auto Start mean grad. ratio tolernc. ....  1.125000
   Auto Start start iteration           ....    50
   Auto Start num. interpolation iter.  ....    10
   Max. Number of Micro iterations      ....    24
   Max. Number of Macro iterations      .... Maxiter - #DIIS iter
   Number of Davidson start vectors     ....     2
   Converg. threshold    (grad. norm)   ....   1.000e-04
   Grad. Scal. Fac. for Micro threshold ....   0.100
   Minimum threshold for Micro iter.    ....   1.000e-02
   NR start threshold (gradient norm)   ....   1.000e-04
   Initial trust radius                 ....   0.400
   Minimum AH scaling param. (alpha)    ....   1.000
   Maximum AH scaling param. (alpha)    .... 1000.000
   Quad. conv. algorithm                .... NR
   White noise on init. David. guess    .... on
   Maximum white noise                  ....   0.010
   Pseudo random numbers                .... off
   Inactive MOs                         .... canonical
   Orbital update algorithm             .... Taylor
   Preconditioner                       .... Diag
   Full preconditioner red. dimension   ....   250
 SOSCF                  CNVSOSCF        .... on
   Start iteration      SOSCFMaxIt      ....   150
   Startup grad/error   SOSCFStart      ....  0.003300
   Hessian update       SOSCFHessUp     .... L-BFGS
 Level Shifting         CNVShift        .... on
   Level shift para.    LevelShift      ....    0.2500
   Turn off err/grad.   ShiftErr        ....    0.0010
 Zerner damping         CNVZerner       .... off
 Static damping         CNVDamp         .... on
   Fraction old density DampFac         ....    0.7000
   Max. Damping (<1)    DampMax         ....    0.9800
   Min. Damping (>=0)   DampMin         ....    0.0000
   Turn off err/grad.   DampErr         ....    0.1000

SCF Procedure:
 Maximum # iterations   MaxIter         ....   125
 SCF integral mode      SCFMode         .... Direct
   Integral package                     .... SHARK and LIBINT hybrid scheme
 Reset frequency        DirectResetFreq ....    20
 Integral Threshold     Thresh          ....  1.000e-09 Eh
 Primitive CutOff       TCut            ....  1.000e-10 Eh

Convergence Tolerance:
 Convergence Check Mode ConvCheckMode   .... Total+1el-Energy
 Convergence forced     ConvForced      .... 0
 Energy Change          TolE            ....  1.000e-05 Eh
 1-El. energy change                    ....  1.000e-02 Eh
 Orbital Gradient       TolG            ....  1.000e-04
 Orbital Rotation angle TolX            ....  1.000e-04
 DIIS Error             TolErr          ....  5.000e-04

------------------------------
INITIAL GUESS: MODEL POTENTIAL
------------------------------
Loading Hartree-Fock densities                     ... done
Calculating cut-offs                               ... done
Initializing the effective Hamiltonian             ... done
Setting up the integral package (SHARK)            ... done
Starting the Coulomb interaction                   ... done (   0.2 sec)
Making the grid                                    ... done (   0.3 sec)
Mapping shells                                     ... done
Starting the XC term evaluation                    ... done (   0.2 sec)
  promolecular density results
     # of electrons  =     77.992418062
     EX              =    -61.406637947
     EC              =     -2.604542066
     EX+EC           =    -64.011180013
Transforming the Hamiltonian                       ... done (   0.0 sec)
Diagonalizing the Hamiltonian                      ... done (   0.0 sec)
Back transforming the eigenvectors                 ... done (   0.0 sec)
Now organizing SCF variables                       ... done
                      ------------------
                      INITIAL GUESS DONE (   0.7 sec)
                      ------------------
             **** ENERGY FILE WAS UPDATED (sp.en.tmp) ****
Finished Guess after   0.9 sec
Maximum memory used throughout the entire GUESS-calculation: 20.2 MB

-------------------------------------------------------------------------------------------
                                      ORCA LEAN-SCF
                              memory conserving SCF solver
-------------------------------------------------------------------------------------------

----------------------------------------D-I-I-S--------------------------------------------
Iteration    Energy (Eh)           Delta-E    RMSDP     MaxDP     DIISErr   Damp  Time(sec)
-------------------------------------------------------------------------------------------
               ***  Starting incremental Fock matrix formation  ***
    1    -462.5210258333646607     0.00e+00  4.37e-03  1.05e-01  2.41e-01  0.700   1.0
    2    -462.6545462155085033    -1.34e-01  2.83e-03  7.17e-02  6.96e-02  0.700   1.1
                               ***Turning on AO-DIIS***
    3    -462.6955286942310295    -4.10e-02  1.22e-03  2.30e-02  1.94e-02  0.700   1.1
    4    -462.7222600701487636    -2.67e-02  1.95e-03  2.76e-02  1.16e-02  0.000   1.0
    5    -462.7849478342908469    -6.27e-02  5.72e-04  2.07e-02  1.05e-02  0.000   1.0
    6    -462.7857103887073436    -7.63e-04  2.14e-04  2.66e-03  3.99e-03  0.000   1.0
                              *** Initializing SOSCF ***
---------------------------------------S-O-S-C-F--------------------------------------
Iteration    Energy (Eh)           Delta-E    RMSDP     MaxDP     MaxGrad    Time(sec)
--------------------------------------------------------------------------------------
    7    -462.7858067585419803    -9.64e-05  7.61e-05  1.01e-03  7.84e-04     1.0
               *** Restarting incremental Fock matrix formation ***
    8    -462.7858112443403797    -4.49e-06  6.35e-05  1.67e-03  1.46e-04     1.1
    9    -462.7858072458858487     4.00e-06  3.41e-05  1.00e-03  3.30e-04     0.9
                 **** Energy Check signals convergence ****

               *****************************************************
               *                     SUCCESS                       *
               *           SCF CONVERGED AFTER   9 CYCLES          *
               *****************************************************

             **** ENERGY FILE WAS UPDATED (sp.en.tmp) ****

----------------
TOTAL SCF ENERGY
----------------

Total Energy       :       -462.78580724588585 Eh          -12593.04203 eV

Components:
Nuclear Repulsion  :        585.92130859876318 Eh           15943.72937 eV
Electronic Energy  :      -1048.70711584464880 Eh          -28536.77140 eV
One Electron Energy:      -1790.76888508682850 Eh          -48729.29871 eV
Two Electron Energy:        742.06176924217959 Eh           20192.52731 eV

Virial components:
Potential Energy   :       -921.65519715615460 Eh          -25079.51293 eV
Kinetic Energy     :        458.86938991026881 Eh           12486.47090 eV
Virial Ratio       :          2.00853492828620

DFT components:
N(Alpha)           :       39.000335035860 electrons
N(Beta)            :       39.000335035860 electrons
N(Total)           :       78.000670071721 electrons
E(X)               :      -62.655754261675 Eh       
E(C)               :       -2.612015604464 Eh       
E(XC)              :      -65.267769866139 Eh       

---------------
SCF CONVERGENCE
---------------

  Last Energy change         ...   -3.9985e-06  Tolerance :   1.0000e-05
  Last MAX-Density change    ...    1.0026e-03  Tolerance :   1.0000e-03
  Last RMS-Density change    ...    3.4117e-05  Tolerance :   1.0000e-04
  Last DIIS Error            ...    7.8450e-04  Tolerance :   5.0000e-04
  Last Orbital Gradient      ...    3.2999e-04  Tolerance :   1.0000e-04
  Last Orbital Rotation      ...    3.6183e-04  Tolerance :   1.0000e-04


----------------
ORBITAL ENERGIES
----------------

  NO   OCC          E(Eh)            E(eV) 
   0   2.0000     -18.800192      -511.5792 
   1   2.0000     -18.735387      -509.8158 
   2   2.0000     -10.004365      -272.2326 
   3   2.0000      -9.942742      -270.5558 
   4   2.0000      -9.904037      -269.5026 
   5   2.0000      -9.885079      -268.9867 
   6   2.0000      -9.880963      -268.8747 
   7   2.0000      -9.879516      -268.8353 
   8   2.0000      -9.879295      -268.8293 
   9   2.0000      -9.879255      -268.8282 
  10   2.0000      -1.008102       -27.4318 
  11   2.0000      -0.910302       -24.7706 
  12   2.0000      -0.760694       -20.6995 
  13   2.0000      -0.689246       -18.7553 
  14   2.0000      -0.663457       -18.0536 
  15   2.0000      -0.650001       -17.6874 
  16   2.0000      -0.566839       -15.4245 
  17   2.0000      -0.542676       -14.7670 
  18   2.0000      -0.509730       -13.8705 
  19   2.0000      -0.475800       -12.9472 
  20   2.0000      -0.460540       -12.5319 
  21   2.0000      -0.442345       -12.0368 
  22   2.0000      -0.425014       -11.5652 
  23   2.0000      -0.412024       -11.2117 
  24   2.0000      -0.406178       -11.0527 
  25   2.0000      -0.382455       -10.4071 
  26   2.0000      -0.362375        -9.8607 
  27   2.0000      -0.354677        -9.6513 
  28   2.0000      -0.334219        -9.0946 
  29   2.0000      -0.332690        -9.0529 
  30   2.0000      -0.327273        -8.9055 
  31   2.0000      -0.321394        -8.7456 
  32   2.0000      -0.309893        -8.4326 
  33   2.0000      -0.303177        -8.2499 
  34   2.0000      -0.268281        -7.3003 
  35   2.0000      -0.262041        -7.1305 
  36   2.0000      -0.260384        -7.0854 
  37   2.0000      -0.255785        -6.9603 
  38   2.0000      -0.218256        -5.9390 
  39   0.0000      -0.022120        -0.6019 
  40   0.0000       0.029316         0.7977 
  41   0.0000       0.044776         1.2184 
  42   0.0000       0.070744         1.9250 
  43   0.0000       0.074685         2.0323 
  44   0.0000       0.079511         2.1636 
  45   0.0000       0.089079         2.4240 
  46   0.0000       0.092530         2.5179 
  47   0.0000       0.102863         2.7990 
  48   0.0000       0.108497         2.9524 
  49   0.0000       0.116589         3.1726 
*Only the first 10 virtual orbitals were printed.

                    ********************************
                    * MULLIKEN POPULATION ANALYSIS *
                    ********************************

-----------------------
MULLIKEN ATOMIC CHARGES
-----------------------
   0 C :   -0.107766
   1 O :   -0.234998
   2 C :    0.138634
   3 O :   -0.201921
   4 C :   -0.235800
   5 C :   -0.068715
   6 C :   -0.174804
   7 C :   -0.167479
   8 C :   -0.154405
   9 C :   -0.110172
  10 H :    0.119574
  11 H :    0.121028
  12 H :    0.120559
  13 H :    0.102051
  14 H :    0.091214
  15 H :    0.076129
  16 H :    0.082837
  17 H :    0.080459
  18 H :    0.095550
  19 H :    0.085561
  20 H :    0.087650
  21 H :    0.073847
  22 H :    0.104776
  23 H :    0.076189
Sum of atomic charges:   -0.0000000

--------------------------------
MULLIKEN REDUCED ORBITAL CHARGES
--------------------------------
  0 C s       :     3.125854  s :     3.125854
      pz      :     1.028735  p :     2.930374
      px      :     0.866292
      py      :     1.035346
      dz2     :     0.007688  d :     0.051538
      dxz     :     0.010159
      dyz     :     0.011051
      dx2y2   :     0.008402
      dxy     :     0.014239

  1 O s       :     3.733225  s :     3.733225
      pz      :     1.622291  p :     4.485294
      px      :     1.405567
      py      :     1.457436
      dz2     :     0.002459  d :     0.016478
      dxz     :     0.004090
      dyz     :     0.004012
      dx2y2   :     0.003242
      dxy     :     0.002677

  2 C s       :     3.045586  s :     3.045586
      pz      :     0.914952  p :     2.686231
      px      :     0.921958
      py      :     0.849321
      dz2     :     0.027870  d :     0.129549
      dxz     :     0.033348
      dyz     :     0.033469
      dx2y2   :     0.019410
      dxy     :     0.015452

  3 O s       :     3.744852  s :     3.744852
      pz      :     1.326290  p :     4.439600
      px      :     1.575403
      py      :     1.537907
      dz2     :     0.006501  d :     0.017469
      dxz     :     0.004443
      dyz     :     0.004463
      dx2y2   :     0.000820
      dxy     :     0.001241

  4 C s       :     3.082058  s :     3.082058
      pz      :     1.042118  p :     3.113644
      px      :     1.003701
      py      :     1.067824
      dz2     :     0.005050  d :     0.040098
      dxz     :     0.009874
      dyz     :     0.009758
      dx2y2   :     0.006419
      dxy     :     0.008997

  5 C s       :     2.951432  s :     2.951432
      pz      :     1.070523  p :     3.081352
      px      :     1.019338
      py      :     0.991491
      dz2     :     0.004068  d :     0.035931
      dxz     :     0.009517
      dyz     :     0.008300
      dx2y2   :     0.004712
      dxy     :     0.009333

  6 C s       :     3.045427  s :     3.045427
      pz      :     0.989525  p :     3.093624
      px      :     1.036237
      py      :     1.067862
      dz2     :     0.007781  d :     0.035753
      dxz     :     0.007965
      dyz     :     0.006768
      dx2y2   :     0.003630
      dxy     :     0.009609

  7 C s       :     3.022693  s :     3.022693
      pz      :     1.058041  p :     3.108264
      px      :     1.035041
      py      :     1.015183
      dz2     :     0.005487  d :     0.036521
      dxz     :     0.010161
      dyz     :     0.007268
      dx2y2   :     0.005989
      dxy     :     0.007617

  8 C s       :     3.013763  s :     3.013763
      pz      :     1.024535  p :     3.104101
      px      :     1.074260
      py      :     1.005307
      dz2     :     0.005295  d :     0.036542
      dxz     :     0.010292
      dyz     :     0.005732
      dx2y2   :     0.007955
      dxy     :     0.007269

  9 C s       :     3.007789  s :     3.007789
      pz      :     1.035865  p :     3.067555
      px      :     0.998533
      py      :     1.033157
      dz2     :     0.004733  d :     0.034828
      dxz     :     0.009770
      dyz     :     0.006527
      dx2y2   :     0.006611
      dxy     :     0.007186

 10 H s       :     0.880426  s :     0.880426

 11 H s       :     0.878972  s :     0.878972

 12 H s       :     0.879441  s :     0.879441

 13 H s       :     0.897949  s :     0.897949

 14 H s       :     0.908786  s :     0.908786

 15 H s       :     0.923871  s :     0.923871

 16 H s       :     0.917163  s :     0.917163

 17 H s       :     0.919541  s :     0.919541

 18 H s       :     0.904450  s :     0.904450

 19 H s       :     0.914439  s :     0.914439

 20 H s       :     0.912350  s :     0.912350

 21 H s       :     0.926153  s :     0.926153

 22 H s       :     0.895224  s :     0.895224

 23 H s       :     0.923811  s :     0.923811


------------------------
MULLIKEN OVERLAP CHARGES
------------------------
B(  0-C ,  1-O ) :   0.5475 B(  0-C ,  2-C ) :  -0.0676 B(  0-C , 10-H ) :   0.7700 
B(  0-C , 11-H ) :   0.7587 B(  0-C , 12-H ) :   0.7671 B(  1-O ,  2-C ) :   0.7601 
B(  1-O ,  3-O ) :  -0.1709 B(  1-O ,  4-C ) :  -0.2967 B(  1-O , 10-H ) :  -0.0600 
B(  1-O , 11-H ) :  -0.0529 B(  1-O , 12-H ) :  -0.0575 B(  2-C ,  3-O ) :   1.3797 
B(  2-C ,  4-C ) :   0.2509 B(  3-O ,  4-C ) :  -0.2468 B(  3-O , 22-H ) :   0.0572 
B(  4-C ,  5-C ) :   0.5538 B(  4-C ,  8-C ) :  -0.0637 B(  4-C ,  9-C ) :   0.5722 
B(  4-C , 13-H ) :   0.5266 B(  4-C , 22-H ) :  -0.0740 B(  5-C ,  6-C ) :   0.7892 
B(  5-C ,  7-C ) :  -0.1201 B(  5-C , 14-H ) :   0.6456 B(  5-C , 15-H ) :   0.6269 
B(  6-C ,  7-C ) :   0.8026 B(  6-C ,  9-C ) :  -0.1288 B(  6-C , 16-H ) :   0.6566 
B(  6-C , 17-H ) :   0.6626 B(  7-C ,  8-C ) :   0.8519 B(  7-C ,  9-C ) :  -0.0522 
B(  7-C , 18-H ) :   0.6852 B(  7-C , 19-H ) :   0.6668 B(  7-C , 21-H ) :  -0.0502 
B(  8-C ,  9-C ) :   0.7860 B(  8-C , 20-H ) :   0.6741 B(  8-C , 21-H ) :   0.6755 
B(  9-C , 22-H ) :   0.6671 B(  9-C , 23-H ) :   0.6364 B( 10-H , 11-H ) :  -0.0501 
B( 10-H , 12-H ) :  -0.0640 B( 14-H , 15-H ) :  -0.0559 B( 16-H , 17-H ) :  -0.0596 
B( 18-H , 19-H ) :  -0.0547 B( 20-H , 21-H ) :  -0.0646 B( 22-H , 23-H ) :  -0.0502 



                     *******************************
                     * LOEWDIN POPULATION ANALYSIS *
                     *******************************

----------------------
LOEWDIN ATOMIC CHARGES
----------------------
   0 C :   -0.202861
   1 O :   -0.065852
   2 C :    0.040647
   3 O :   -0.164980
   4 C :   -0.168068
   5 C :   -0.218979
   6 C :   -0.232201
   7 C :   -0.233874
   8 C :   -0.224614
   9 C :   -0.219540
  10 H :    0.119661
  11 H :    0.120215
  12 H :    0.120171
  13 H :    0.144359
  14 H :    0.122000
  15 H :    0.118358
  16 H :    0.115518
  17 H :    0.116991
  18 H :    0.119244
  19 H :    0.117707
  20 H :    0.119579
  21 H :    0.112133
  22 H :    0.127247
  23 H :    0.117140

-------------------------------
LOEWDIN REDUCED ORBITAL CHARGES
-------------------------------
  0 C s       :     2.965769  s :     2.965769
      pz      :     1.100237  p :     3.123492
      px      :     0.935206
      py      :     1.088049
      dz2     :     0.016887  d :     0.113600
      dxz     :     0.022098
      dyz     :     0.026310
      dx2y2   :     0.016873
      dxy     :     0.031431

  1 O s       :     3.446112  s :     3.446112
      pz      :     1.653046  p :     4.586377
      px      :     1.437786
      py      :     1.495545
      dz2     :     0.004032  d :     0.033363
      dxz     :     0.007575
      dyz     :     0.008066
      dx2y2   :     0.006442
      dxy     :     0.007248

  2 C s       :     2.851544  s :     2.851544
      pz      :     0.986728  p :     2.813485
      px      :     0.944605
      py      :     0.882151
      dz2     :     0.063334  d :     0.294325
      dxz     :     0.076488
      dyz     :     0.079733
      dx2y2   :     0.042090
      dxy     :     0.032679

  3 O s       :     3.549379  s :     3.549379
      pz      :     1.444485  p :     4.584708
      px      :     1.588852
      py      :     1.551371
      dz2     :     0.011855  d :     0.030893
      dxz     :     0.008107
      dyz     :     0.007874
      dx2y2   :     0.001291
      dxy     :     0.001767

  4 C s       :     2.882241  s :     2.882241
      pz      :     1.070315  p :     3.185232
      px      :     1.043426
      py      :     1.071491
      dz2     :     0.009661  d :     0.100596
      dxz     :     0.027854
      dyz     :     0.025167
      dx2y2   :     0.013850
      dxy     :     0.024064

  5 C s       :     2.903514  s :     2.903514
      pz      :     1.076308  p :     3.227407
      px      :     1.088451
      py      :     1.062649
      dz2     :     0.008270  d :     0.088058
      dxz     :     0.024226
      dyz     :     0.023466
      dx2y2   :     0.010086
      dxy     :     0.022009

  6 C s       :     2.906738  s :     2.906738
      pz      :     1.063172  p :     3.238323
      px      :     1.098836
      py      :     1.076315
      dz2     :     0.019602  d :     0.087139
      dxz     :     0.017383
      dyz     :     0.018762
      dx2y2   :     0.007539
      dxy     :     0.023853

  7 C s       :     2.905398  s :     2.905398
      pz      :     1.073265  p :     3.240598
      px      :     1.102137
      py      :     1.065196
      dz2     :     0.015479  d :     0.087878
      dxz     :     0.023520
      dyz     :     0.016266
      dx2y2   :     0.015206
      dxy     :     0.017407

  8 C s       :     2.903936  s :     2.903936
      pz      :     1.097982  p :     3.232209
      px      :     1.073882
      py      :     1.060345
      dz2     :     0.013294  d :     0.088469
      dxz     :     0.024466
      dyz     :     0.011846
      dx2y2   :     0.019585
      dxy     :     0.019278

  9 C s       :     2.907017  s :     2.907017
      pz      :     1.093202  p :     3.226528
      px      :     1.062096
      py      :     1.071230
      dz2     :     0.011142  d :     0.085995
      dxz     :     0.023463
      dyz     :     0.016221
      dx2y2   :     0.014678
      dxy     :     0.020491

 10 H s       :     0.880339  s :     0.880339

 11 H s       :     0.879785  s :     0.879785

 12 H s       :     0.879829  s :     0.879829

 13 H s       :     0.855641  s :     0.855641

 14 H s       :     0.878000  s :     0.878000

 15 H s       :     0.881642  s :     0.881642

 16 H s       :     0.884482  s :     0.884482

 17 H s       :     0.883009  s :     0.883009

 18 H s       :     0.880756  s :     0.880756

 19 H s       :     0.882293  s :     0.882293

 20 H s       :     0.880421  s :     0.880421

 21 H s       :     0.887867  s :     0.887867

 22 H s       :     0.872753  s :     0.872753

 23 H s       :     0.882860  s :     0.882860


---------------------------------
LOEWDIN BOND ORDERS (THRESH 0.050000)
---------------------------------
B(  0-C ,  1-O ) :   1.1071 B(  0-C ,  2-C ) :   0.0791 B(  0-C , 10-H ) :   0.9461 
B(  0-C , 11-H ) :   0.9523 B(  0-C , 12-H ) :   0.9449 B(  1-O ,  2-C ) :   1.3937 
B(  1-O ,  3-O ) :   0.2013 B(  1-O ,  4-C ) :   0.0670 B(  2-C ,  3-O ) :   2.1847 
B(  2-C ,  4-C ) :   1.0189 B(  2-C ,  5-C ) :   0.0573 B(  2-C ,  9-C ) :   0.0602 
B(  3-O ,  4-C ) :   0.0928 B(  4-C ,  5-C ) :   1.0525 B(  4-C ,  9-C ) :   1.0430 
B(  4-C , 13-H ) :   0.8476 B(  5-C ,  6-C ) :   1.0826 B(  5-C , 14-H ) :   0.9024 
B(  5-C , 15-H ) :   0.8988 B(  6-C ,  7-C ) :   1.0888 B(  6-C ,  8-C ) :   0.0512 
B(  6-C , 16-H ) :   0.9077 B(  6-C , 17-H ) :   0.9082 B(  7-C ,  8-C ) :   1.0943 
B(  7-C ,  9-C ) :   0.0513 B(  7-C , 18-H ) :   0.8978 B(  7-C , 19-H ) :   0.9060 
B(  8-C ,  9-C ) :   1.0862 B(  8-C , 20-H ) :   0.9065 B(  8-C , 21-H ) :   0.9051 
B(  9-C , 22-H ) :   0.8913 B(  9-C , 23-H ) :   0.9047 

------------------------------------------
LOEWDIN REDUCED ORBITAL POPULATIONS PER MO
-------------------------------------------
THRESHOLD FOR PRINTING IS 0.1%%
                      0         1         2         3         4         5   
                 -18.80019 -18.73539 -10.00437  -9.94274  -9.90404  -9.88508
                   2.00000   2.00000   2.00000   2.00000   2.00000   2.00000
                  --------  --------  --------  --------  --------  --------
 0 C  s               0.0       0.0       0.0      99.7       0.0       0.0
 1 O  s              99.9       0.0       0.0       0.0       0.0       0.0
 2 C  s               0.0       0.0      99.4       0.0       0.0       0.0
 3 O  s               0.0      99.9       0.0       0.0       0.0       0.0
 3 O  pz              0.0       0.0       0.2       0.0       0.0       0.0
 4 C  s               0.0       0.0       0.0       0.0      99.6       0.0
 5 C  s               0.0       0.0       0.0       0.0       0.0      99.6

                      6         7         8         9        10        11   
                  -9.88096  -9.87952  -9.87930  -9.87926  -1.00810  -0.91030
                   2.00000   2.00000   2.00000   2.00000   2.00000   2.00000
                  --------  --------  --------  --------  --------  --------
 0 C  s               0.0       0.0       0.0       0.0       4.8       2.2
 0 C  pz              0.0       0.0       0.0       0.0       0.5       0.6
 0 C  px              0.0       0.0       0.0       0.0       3.7       1.0
 0 C  py              0.0       0.0       0.0       0.0       1.4       0.2
 0 C  dxz             0.0       0.0       0.0       0.0       0.1       0.1
 0 C  dxy             0.0       0.0       0.0       0.0       0.2       0.1
 1 O  s               0.0       0.0       0.0       0.0      41.8      15.2
 1 O  pz              0.0       0.0       0.0       0.0       2.4       0.2
 1 O  px              0.0       0.0       0.0       0.0       0.0       0.3
 1 O  py              0.0       0.0       0.0       0.0       0.9       0.2
 2 C  s               0.0       0.0       0.0       0.0      18.2       5.2
 2 C  pz              0.0       0.0       0.0       0.0       0.0      17.4
 2 C  px              0.0       0.0       0.0       0.0       3.1       0.1
 2 C  py              0.0       0.0       0.0       0.0       2.3       6.5
 2 C  dz2             0.0       0.0       0.0       0.0       0.1       0.9
 2 C  dxz             0.0       0.0       0.0       0.0       0.0       0.8
 2 C  dyz             0.0       0.0       0.0       0.0       0.7       0.0
 2 C  dxy             0.0       0.0       0.0       0.0       0.3       0.3
 3 O  s               0.0       0.0       0.0       0.0      10.9      42.0
 3 O  pz              0.0       0.0       0.0       0.0       2.1       3.5
 3 O  px              0.0       0.0       0.0       0.0       0.1       0.6
 3 O  py              0.0       0.0       0.0       0.0       0.4       0.3
 4 C  s               0.0       0.0       0.0       0.0       0.9       0.3
 4 C  pz              0.0       0.0       0.0       0.0       0.3       0.5
 4 C  px              0.0       0.0       0.0       0.0       1.1       0.1
 4 C  py              0.0       0.0       0.0       0.0       0.4       0.0
 5 C  px              0.0       0.0       0.0       0.0       0.1       0.0
 6 C  s              99.6       0.0       0.0       0.0       0.0       0.0
 7 C  s               0.0       0.2      87.5      11.9       0.0       0.0
 8 C  s               0.0      98.6       0.0       1.1       0.0       0.0
 8 C  py              0.0       0.0       0.1       0.0       0.0       0.0
 9 C  s               0.0       0.9      12.1      86.7       0.1       0.1
10 H  s               0.0       0.0       0.0       0.0       0.6       0.2
11 H  s               0.0       0.0       0.0       0.0       0.5       0.3
12 H  s               0.0       0.0       0.0       0.0       0.7       0.1
13 H  s               0.0       0.0       0.0       0.0       0.1       0.0
22 H  s               0.0       0.0       0.0       0.0       0.1       0.1

                     12        13        14        15        16        17   
                  -0.76069  -0.68925  -0.66346  -0.65000  -0.56684  -0.54268
                   2.00000   2.00000   2.00000   2.00000   2.00000   2.00000
                  --------  --------  --------  --------  --------  --------
 0 C  s               0.7      10.7       1.2      17.7       3.9       1.0
 0 C  pz              0.0       0.1       0.0       0.0       0.2       0.3
 0 C  px              0.1       0.1       0.0       0.2       1.3       0.8
 0 C  py              0.0       0.0       0.0       0.2       0.4       0.1
 1 O  s               0.1       0.0       0.0       0.8       1.1       0.5
 1 O  px              0.8       7.8       0.7       7.4       0.0       0.2
 1 O  py              0.3       5.3       0.3       5.8       0.1       0.3
 2 C  s               1.0       4.5       0.0       1.0       2.3       0.2
 2 C  pz              1.9       5.1       0.0       0.7       1.6       0.3
 2 C  px              3.2       1.9       0.4       0.9       4.1       0.0
 2 C  py              0.2       0.3       0.5       2.1       1.7       0.0
 2 C  dxz             0.0       0.0       0.0       0.1       0.0       0.0
 2 C  dyz             0.0       0.0       0.0       0.1       0.1       0.0
 3 O  s               0.8       1.0       0.1       0.2       1.0       0.0
 3 O  pz              0.0       0.2       0.0       0.1       0.3       0.0
 3 O  px              0.0       0.1       0.0       0.0       0.4       0.1
 3 O  py              0.0       0.0       0.0       0.1       0.1       0.0
 4 C  s              14.8       8.0       2.2       5.1       4.8       0.2
 4 C  pz              0.0       0.1       2.6       0.9       1.1       5.0
 4 C  px              1.1       1.6       0.2       0.8       6.3       0.5
 4 C  py              0.4       0.3       4.0       0.0       0.1       3.7
 4 C  dxz             0.0       0.0       0.1       0.0       0.0       0.1
 4 C  dyz             0.0       0.0       0.0       0.0       0.1       0.0
 5 C  s              11.6       0.8       7.0       8.6       7.8       4.2
 5 C  pz              2.1       0.0       0.0       0.0       1.4       1.3
 5 C  px              0.0       1.6       0.5       0.1       1.3       0.9
 5 C  py              0.1       1.3       3.4       0.4       0.4       2.8
 6 C  s               8.6       3.4      17.0       0.1       0.0       9.5
 6 C  pz              0.1       1.6       0.1       2.8       6.7       0.1
 6 C  px              0.1       0.5       0.1       0.5       0.2       0.1
 6 C  py              1.8       0.0       0.1       0.2       0.5       3.4
 6 C  dyz             0.0       0.0       0.0       0.1       0.1       0.0
 7 C  s               8.2      11.3       1.8       6.2       8.5       0.4
 7 C  pz              1.1       0.1       1.9       0.2       0.5       2.4
 7 C  px              0.1       0.1       0.3       0.2       0.2       1.5
 7 C  py              0.6       0.3       3.2       0.5       1.6       4.2
 7 C  dz2             0.0       0.0       0.1       0.0       0.0       0.1
 8 C  s               8.4       8.0       6.4       6.0       2.8       6.3
 8 C  pz              0.3       0.0       0.0       0.2       0.4       0.4
 8 C  px              1.4       0.0       0.7       0.0       0.1       3.0
 8 C  py              0.2       1.2       3.1       0.8       4.6       2.0
 9 C  s               9.7       0.1      17.7       0.1       2.1      10.4
 9 C  pz              0.4       0.9       0.0       1.2       0.2       0.0
 9 C  px              0.0       2.4       0.1       1.8       4.2       1.7
 9 C  py              1.7       0.1       0.1       0.1       0.2       2.6
10 H  s               0.1       2.2       0.2       4.2       1.5       0.6
11 H  s               0.1       2.6       0.3       5.2       1.8       0.4
12 H  s               0.1       2.1       0.3       4.1       1.6       0.6
13 H  s               2.4       2.1       0.6       1.3       2.1       0.2
14 H  s               1.8       0.3       1.7       1.8       2.6       1.9
15 H  s               2.1       0.1       1.3       2.1       3.9       1.9
16 H  s               1.4       0.5       3.9       0.0       0.0       4.6
17 H  s               1.3       0.8       3.8       0.0       0.1       3.9
18 H  s               1.6       2.0       0.3       1.4       3.5       0.1
19 H  s               1.2       2.3       0.5       1.6       3.3       0.2
20 H  s               1.2       1.6       1.5       1.5       1.0       2.8
21 H  s               1.5       1.6       1.1       1.2       1.5       2.7
22 H  s               1.5       0.0       3.9       0.0       0.3       4.6
23 H  s               1.5       0.0       4.0       0.0       1.2       4.4

                     18        19        20        21        22        23   
                  -0.50973  -0.47580  -0.46054  -0.44235  -0.42501  -0.41202
                   2.00000   2.00000   2.00000   2.00000   2.00000   2.00000
                  --------  --------  --------  --------  --------  --------
 0 C  s               5.3       0.1       0.0       0.1       0.0       0.2
 0 C  pz              7.5       6.6       0.1       1.5       6.4       2.8
 0 C  px              8.7       0.5       0.8       2.7       8.9       5.4
 0 C  py              0.7       0.4       4.9       0.0      10.4       5.9
 0 C  dxz             0.4       0.1       0.0       0.0       0.1       0.0
 0 C  dyz             0.0       0.0       0.0       0.0       0.0       0.1
 0 C  dx2y2           0.1       0.0       0.0       0.0       0.1       0.0
 0 C  dxy             0.2       0.0       0.0       0.0       0.0       0.0
 1 O  s               3.9       0.9       0.2       0.2       0.0       1.3
 1 O  pz              2.8       6.6       0.1       5.5       4.0      11.7
 1 O  px              6.7       1.3       3.7       0.1       6.8       7.6
 1 O  py              9.6       3.5       6.4       1.0       8.9       0.4
 2 C  s               3.0       0.4       0.1       0.0       0.1       1.3
 2 C  pz              1.4       0.9       1.1       1.2       0.7       1.6
 2 C  px              0.1       3.9       9.0       0.3       0.7       0.2
 2 C  py              1.3       6.4       2.0       1.1       2.6       1.2
 2 C  dz2             0.0       0.0       0.0       0.1       0.0       0.2
 2 C  dyz             0.0       0.0       0.0       0.0       0.0       0.3
 2 C  dx2y2           0.0       0.0       0.0       0.0       0.2       0.0
 2 C  dxy             0.0       0.0       0.0       0.0       0.0       0.1
 3 O  s               1.2       0.0       0.0       0.4       0.3       9.6
 3 O  pz              0.7       0.1       0.6       0.2       1.3      13.2
 3 O  px              0.0       1.2       3.3       0.1       0.1       2.4
 3 O  py              0.5       2.1       0.1       1.5       1.0       1.3
 4 C  s               1.1       0.5       1.0       1.2       0.5       0.0
 4 C  pz              1.0       0.5       5.9       0.8       3.1       1.6
 4 C  px              1.2       7.9       0.2       4.1       0.2       1.3
 4 C  py              0.8       0.0      10.2       0.2       1.8       0.2
 4 C  dyz             0.0       0.1       0.0       0.0       0.0       0.0
 5 C  s               0.3       1.4       0.3       1.2       0.1       0.4
 5 C  pz              0.2       0.6       0.6      10.1       0.9       1.9
 5 C  px              0.1       0.2       1.2       2.5       1.3       0.4
 5 C  py              2.7       2.1       1.9       2.4       0.2       0.9
 6 C  s               2.1       2.3       0.5       0.1       0.0       0.0
 6 C  pz              1.3       1.4       0.0       0.5       0.0       2.1
 6 C  px              0.0       0.1       6.1       0.6       0.0       0.0
 6 C  py              0.7       1.8       0.9       2.5       3.7       0.2
 7 C  s               3.3       3.4       0.1       0.8       0.0       0.0
 7 C  pz              1.5       2.2       0.7       7.6       0.5       1.5
 7 C  px              0.0       1.2       5.0       0.1       1.7       0.0
 7 C  py              0.2       0.8       1.3       1.7       1.9       0.2
 8 C  s               1.2       4.3       0.0       0.1       0.1       0.1
 8 C  pz              0.0       0.0       0.9       8.1       0.3       4.7
 8 C  px              0.3       5.2       3.4       0.0       4.0       0.0
 8 C  py              2.3       0.5       0.1       0.8       0.3       0.0
 9 C  s               0.2       2.2       0.0       1.0       0.0       0.1
 9 C  pz              0.8       0.3       4.6       5.6       0.9       2.7
 9 C  px              1.4       0.1       0.1       0.0       0.1       1.8
 9 C  py              0.1       0.8       2.0       6.5       2.5       0.2
10 H  s               5.8       1.5       0.5       0.4       7.6       0.1
11 H  s               1.6       0.6       0.7       1.2       0.1       6.8
12 H  s               5.8       1.0       1.4       0.5       5.8       0.1
13 H  s               1.0       0.5       7.6       0.2       2.9       0.0
14 H  s               0.1       0.2       0.5       7.9       0.2       0.5
15 H  s               0.4       1.8       0.5       0.2       0.0       0.4
16 H  s               1.2       1.7       0.0       0.6       1.1       0.0
17 H  s               1.3       2.2       2.7       0.0       0.4       0.3
18 H  s               1.7       3.7       1.6       1.8       0.1       0.1
19 H  s               1.7       1.5       1.2       2.6       1.3       0.0
20 H  s               0.7       3.2       0.0       1.9       1.0       1.7
21 H  s               0.8       3.9       1.5       1.4       0.8       0.5
22 H  s               0.1       0.5       0.9       4.6       0.1       0.7
23 H  s               0.1       1.7       1.1       1.6       1.0       1.2

                     24        25        26        27        28        29   
                  -0.40618  -0.38246  -0.36237  -0.35468  -0.33422  -0.33269
                   2.00000   2.00000   2.00000   2.00000   2.00000   2.00000
                  --------  --------  --------  --------  --------  --------
 0 C  pz              1.5       7.2       0.9       6.4       1.9       0.2
 0 C  px              0.1       0.4       0.3       4.9       0.2       1.4
 0 C  py              7.9       1.4      12.3       1.4       0.8       0.9
 0 C  dyz             0.0       0.1       0.0       0.2       0.1       0.0
 0 C  dxy             0.0       0.0       0.1       0.0       0.0       0.1
 1 O  s               0.2       0.3       0.0       0.0       0.2       0.5
 1 O  pz              0.6       0.0       0.0       0.8       1.1       0.7
 1 O  px              2.1       0.2       0.2       0.6       0.1       1.8
 1 O  py              0.1       0.0       1.0       0.0       0.1       0.3
 2 C  s               1.5       1.7       0.0       0.0       0.5       0.1
 2 C  pz              0.1       3.6       0.3       2.6       0.7       0.5
 2 C  px              0.8       0.7       6.7       2.0       3.0       0.6
 2 C  py              0.1       0.4       0.4       8.0       1.3       0.4
 2 C  dxz             0.1       0.0       0.0       0.0       0.0       0.1
 3 O  s               1.4       6.8       0.1       0.0       0.1       0.0
 3 O  pz              2.6      21.1       2.2       2.2       0.8       0.8
 3 O  px              3.2       1.9       2.2       2.0       1.4       1.4
 3 O  py              0.0       3.9       0.0       7.5       2.2       0.4
 3 O  dz2             0.0       0.1       0.0       0.0       0.0       0.0
 4 C  s               1.1       0.3       0.0       1.1       0.1       0.1
 4 C  pz              4.0       0.6       2.5       0.0       0.0       2.9
 4 C  px              0.1       0.2       0.0       5.0       2.0       0.0
 4 C  py              0.1       0.1       5.4       0.1       0.9      10.4
 4 C  dxz             0.1       0.0       0.1       0.0       0.3       0.2
 4 C  dyz             0.0       0.0       0.1       0.0       0.1       0.0
 4 C  dx2y2           0.1       0.0       0.0       0.0       0.2       0.0
 4 C  dxy             0.1       0.0       0.1       0.0       0.0       0.1
 5 C  s               0.2       0.0       0.2       0.1       0.0       0.6
 5 C  pz              3.2       0.0       0.1       0.2       1.9      10.3
 5 C  px              9.7       1.1       3.7       0.5       9.0       0.3
 5 C  py              0.1       0.1       0.7       5.1       6.9       3.9
 5 C  dxz             0.0       0.0       0.0       0.2       0.3       0.1
 5 C  dxy             0.1       0.0       0.0       0.0       0.1       0.2
 6 C  s               0.4       0.0       0.4       0.0       0.0       0.2
 6 C  pz              1.4       2.4       0.5       0.9       1.6       3.1
 6 C  px             13.2       4.1       0.0       1.4       0.9       1.1
 6 C  py              2.7       0.3       0.2       6.0       0.9       3.7
 6 C  dxz             0.0       0.0       0.1       0.1       0.2       0.0
 7 C  s               0.3       0.1       0.0       0.6       0.1       0.0
 7 C  pz              0.1       0.1       0.1       2.7       0.5       2.5
 7 C  px              6.6       1.6       6.8       0.8      11.3       1.3
 7 C  py              0.1       2.1       4.6       1.0       4.8       5.2
 7 C  dz2             0.0       0.0       0.0       0.0       0.0       0.1
 7 C  dxz             0.0       0.0       0.1       0.0       0.1       0.2
 8 C  s               0.6       0.0       0.2       0.0       0.0       0.3
 8 C  pz              1.3       2.5       4.4       6.6       0.6       6.2
 8 C  px              0.0       0.7       6.9       0.3       0.0       0.1
 8 C  py              1.7       1.9       0.0       0.8      10.6       4.2
 8 C  dyz             0.0       0.0       0.0       0.0       0.0       0.1
 9 C  s               0.2       0.0       0.1       0.0       0.3       0.0
 9 C  pz              0.1       4.0       0.4       0.1       0.1       6.9
 9 C  px              1.2       5.5       0.0       0.7       5.6       1.0
 9 C  py              0.6       1.8       3.2       2.1       0.1       2.6
 9 C  dxz             0.1       0.0       0.1       0.1       0.0       0.0
10 H  s               0.1       1.9       0.4       6.0       0.7       0.1
11 H  s               3.8       4.1       4.6       1.8       2.1       0.2
12 H  s               1.5       0.5       5.0       1.7       0.3       1.7
13 H  s               1.9       0.1       4.3       0.1       0.2       0.7
14 H  s               0.0       0.3       1.5       2.1       2.5       3.5
15 H  s               6.0       0.0       0.9       0.6      10.8       0.4
16 H  s               6.9       1.3       0.3       0.6       0.0       2.2
17 H  s               2.0       2.4       0.6       3.5       0.2       0.1
18 H  s               0.9       0.8       1.4       0.1       5.9       2.5
19 H  s               2.2       0.0       5.2       1.0       0.6       1.3
20 H  s               1.5       0.2       0.8       4.2       0.1       4.1
21 H  s               0.1       1.2       4.0       0.7       0.9       2.1
22 H  s               0.8       3.1       0.2       0.1       0.6       2.3
23 H  s               0.2       3.9       2.2       1.4       0.0       0.1

                     30        31        32        33        34        35   
                  -0.32727  -0.32139  -0.30989  -0.30318  -0.26828  -0.26204
                   2.00000   2.00000   2.00000   2.00000   2.00000   2.00000
                  --------  --------  --------  --------  --------  --------
 0 C  s               0.0       0.0       0.0       0.2       0.0       0.0
 0 C  pz              0.6       1.0       0.6       7.0       0.8       0.1
 0 C  px              0.3       0.5       0.0       2.2       0.1       0.9
 0 C  py              0.1       1.3       0.6       0.6       1.0       0.4
 0 C  dz2             0.0       0.0       0.0       0.0       0.1       0.1
 0 C  dyz             0.0       0.1       0.0       0.1       0.1       0.1
 0 C  dxy             0.0       0.0       0.1       0.4       0.0       0.1
 1 O  s               0.0       0.1       0.1       4.4       0.2       0.1
 1 O  pz              0.9       1.2       2.2      23.4       8.0       0.7
 1 O  px              0.1       0.2       0.0       6.0       2.8       6.5
 1 O  py              0.1       1.1       1.0       2.2       5.9       7.2
 1 O  dxy             0.0       0.0       0.0       0.1       0.0       0.0
 2 C  s               0.0       0.0       0.1       0.5       0.6       0.1
 2 C  pz              0.2       1.1       0.3       4.2       0.8       0.1
 2 C  px              0.5       1.3       0.8       0.3       1.1       0.3
 2 C  py              0.5       2.6       0.4       0.6       0.3       0.0
 2 C  dz2             0.0       0.2       0.1       0.4       0.3       0.1
 2 C  dxz             0.0       0.0       0.1       0.0       0.1       0.1
 2 C  dyz             0.0       0.2       0.0       0.4       0.0       0.0
 2 C  dx2y2           0.0       0.0       0.0       0.1       0.2       0.2
 2 C  dxy             0.0       0.0       0.1       0.2       0.0       0.0
 3 O  s               0.1       0.0       0.0       1.2       0.1       0.0
 3 O  pz              1.7       1.3       0.1       8.2       0.1       0.9
 3 O  px              0.3       3.6       0.2       2.7       0.6       2.1
 3 O  py              0.1       6.1       0.6       0.2       7.0       0.1
 4 C  s               0.0       0.2       0.0       0.2       0.2       0.0
 4 C  pz              0.1       7.2       0.6       1.0       0.0       0.1
 4 C  px              1.0       6.5       0.4       2.5       1.8       1.0
 4 C  py              2.6       0.2       1.0       1.1       0.2       4.8
 4 C  dz2             0.1       0.1       0.1       0.0       0.0       0.0
 4 C  dxz             0.0       0.0       0.0       0.0       0.1       0.2
 4 C  dyz             0.1       0.1       0.1       0.0       0.1       0.1
 4 C  dxy             0.0       0.1       0.0       0.0       0.0       0.1
 5 C  s               0.1       0.2       0.1       0.0       0.0       0.0
 5 C  pz              4.0       2.7       2.8       0.4       0.9       0.8
 5 C  px              9.3       1.8       0.4       0.2       2.1       1.9
 5 C  py              2.6       0.2       2.4       1.8       1.1       6.3
 5 C  dxz             0.0       0.1       0.0       0.0       0.1       0.1
 5 C  dyz             0.4       0.0       0.0       0.0       0.1       0.1
 5 C  dxy             0.0       0.0       0.2       0.0       0.1       0.0
 6 C  s               0.3       0.1       0.0       0.1       0.0       0.0
 6 C  pz              0.8       3.9       9.8       2.3       0.9       0.7
 6 C  px              4.1       5.1       5.5       0.3       3.3       0.7
 6 C  py             11.4       1.1       1.1       0.1       1.4       6.5
 6 C  dyz             0.1       0.2       0.0       0.0       0.0       0.2
 6 C  dxy             0.0       0.0       0.4       0.0       0.3       0.0
 7 C  s               0.0       0.2       0.0       0.0       0.1       0.0
 7 C  pz              0.3      10.9       3.7       2.3       0.8       0.5
 7 C  px              2.5       2.0       0.0       0.3       5.3       0.4
 7 C  py              1.1       1.4       1.5       0.2       2.9       8.9
 7 C  dxz             0.0       0.0       0.1       0.1       0.2       0.1
 7 C  dyz             0.0       0.1       0.0       0.1       0.0       0.1
 7 C  dx2y2           0.1       0.0       0.0       0.0       0.2       0.0
 7 C  dxy             0.1       0.0       0.1       0.0       0.0       0.3
 8 C  s               0.2       0.1       0.0       0.0       0.2       0.0
 8 C  pz              3.1       0.7       1.5       3.2       1.0       1.5
 8 C  px              9.9       1.7       5.4       0.0       6.1       1.0
 8 C  py              0.9       0.1       0.1       0.6       2.8      10.1
 8 C  dz2             0.1       0.1       0.0       0.0       0.0       0.0
 8 C  dxz             0.0       0.0       0.1       0.0       0.1       0.0
 8 C  dx2y2           0.0       0.0       0.2       0.0       0.3       0.1
 8 C  dxy             0.2       0.0       0.0       0.0       0.0       0.2
 9 C  s               0.7       0.1       0.0       0.0       0.0       0.1
 9 C  pz              1.0       7.5       5.0       0.0       0.4       1.9
 9 C  px              2.6       0.8      12.0       1.2       4.3       1.0
 9 C  py             13.5       1.6       0.9       0.1       0.6       6.8
 9 C  dyz             0.0       0.0       0.3       0.0       0.1       0.0
 9 C  dx2y2           0.0       0.0       0.1       0.0       0.1       0.3
 9 C  dxy             0.1       0.1       0.0       0.0       0.0       0.2
10 H  s               0.6       1.6       0.1       1.8       2.1       1.1
11 H  s               0.1       0.0       0.9       3.6       0.0       0.0
12 H  s               0.1       0.7       0.3       3.2       1.1       1.6
13 H  s               1.2       5.7       0.1       0.1       0.0       4.9
14 H  s               4.2       1.3       0.1       0.5       0.7       0.1
15 H  s               0.4       0.1       3.6       0.2       3.8       0.3
16 H  s               0.4       2.1       4.8       0.5       4.9       1.3
17 H  s               2.7       0.4       6.2       0.8       2.2       1.4
18 H  s               1.8       0.0       1.0       1.7       5.9       0.0
19 H  s               1.5       5.1       0.1       0.2       0.2       5.5
20 H  s               3.3       0.9       0.0       1.7       0.1       0.2
21 H  s               0.5       0.0       5.1       1.0       5.6       0.1
22 H  s               0.2       2.1       7.7       0.2       1.5       0.0
23 H  s               3.7       0.0       6.5       0.1       2.5       5.6

                     36        37        38        39        40        41   
                  -0.26038  -0.25578  -0.21826  -0.02212   0.02932   0.04478
                   2.00000   2.00000   2.00000   0.00000   0.00000   0.00000
                  --------  --------  --------  --------  --------  --------
 0 C  s               0.0       0.0       0.2       0.0       2.4       7.5
 0 C  pz              0.0       0.2       0.1       0.0       0.8       1.5
 0 C  px              0.0       0.5       0.6       0.0       2.9       1.8
 0 C  py              0.0       0.5       0.3       0.1       0.6       1.2
 0 C  dz2             0.0       0.1       0.1       0.1       0.0       0.1
 0 C  dyz             0.0       0.2       0.0       0.2       0.0       0.0
 0 C  dx2y2           0.0       0.1       0.0       0.1       0.0       0.0
 0 C  dxy             0.0       0.1       0.0       0.1       0.2       0.1
 1 O  s               0.0       0.0       0.3       0.0       1.7       0.7
 1 O  pz              0.5       3.3       5.7       1.9       0.1       0.1
 1 O  px              0.1       7.6       0.1       3.3       0.3       0.1
 1 O  py              0.0      10.0       2.6       4.1       0.0       0.1
 1 O  dxz             0.0       0.0       0.0       0.1       0.0       0.0
 1 O  dx2y2           0.0       0.0       0.0       0.3       0.0       0.0
 2 C  s               0.0       0.1       0.5       0.1       1.1       0.7
 2 C  pz              0.2       0.0       0.4       8.9       0.4       0.5
 2 C  px              0.1       0.6       0.6      15.4       1.8       0.6
 2 C  py              0.0       0.1       0.5      20.7       0.5       0.3
 2 C  dz2             0.2       0.6       0.0       0.4       0.0       0.0
 2 C  dxz             0.0       0.4       1.8       0.0       0.1       0.0
 2 C  dyz             0.0       0.2       1.7       0.3       0.1       0.1
 2 C  dx2y2           0.0       0.1       0.8       0.2       0.0       0.0
 2 C  dxy             0.0       0.2       0.1       0.3       0.2       0.1
 3 O  s               0.1       0.0       0.0       0.0       0.5       0.4
 3 O  pz              0.2       7.3       0.1       4.7       0.2       0.1
 3 O  px              0.9      10.0      38.7       8.5       0.5       0.0
 3 O  py              0.4      10.5      30.9      11.8       0.0       0.9
 3 O  dz2             0.0       0.0       0.0       0.2       0.0       0.0
 3 O  dyz             0.0       0.0       0.0       0.1       0.0       0.0
 4 C  s               0.1       0.1       0.4       0.2       2.0       0.3
 4 C  pz              8.0       0.1       2.9       0.0       0.3       0.5
 4 C  px              0.6       1.3       2.9       0.4       0.5       0.0
 4 C  py              2.1       1.4       1.0       0.1       0.5       0.5
 4 C  dz2             0.0       0.0       0.0       0.2       0.0       0.0
 4 C  dxz             0.0       0.0       0.0       0.0       0.1       0.1
 4 C  dyz             0.0       0.2       0.0       1.2       0.1       0.0
 4 C  dx2y2           0.0       0.0       0.0       0.6       0.0       0.0
 4 C  dxy             0.2       0.0       0.0       0.0       0.0       0.0
 5 C  s               0.0       0.0       0.1       1.0       2.9       1.1
 5 C  pz              6.6       0.1       0.5       0.4       1.9       0.4
 5 C  px              0.6       2.7       1.0       0.0       0.1       1.8
 5 C  py              1.9       1.4       0.0       0.4       0.0       0.5
[...]
 8 C  px              0.9       0.2       0.1       0.1       0.0       0.0
 8 C  py              0.1       0.5       0.0       2.1       0.1       0.0
 8 C  dz2             3.8       0.3       0.0       0.4       0.1       0.0
 8 C  dxz             0.3       0.9       0.1       0.5       0.0       0.0
 8 C  dyz             3.7       0.4       0.0       0.2       0.0       0.0
 8 C  dx2y2           0.5      10.2       0.1       5.1       0.2       0.0
 8 C  dxy             6.1       0.7       0.0       7.7       0.2       0.0
 9 C  pz              0.4       0.2       0.1       0.5       0.0       0.0
 9 C  px              1.3       0.8       0.1       1.2       0.0       0.0
 9 C  dz2             3.6       0.0       0.1       0.6       0.0       0.1
 9 C  dxz             0.3       3.2       0.3       0.3       0.0       0.1
 9 C  dyz             4.6       1.5       0.0       1.8       0.0       0.1
 9 C  dx2y2           3.3       5.5       0.0       0.0       0.0       0.0
 9 C  dxy             8.1       5.0       0.6       8.4       0.2       0.1
11 H  s               0.0       0.0       0.1       0.0       0.0       0.0
13 H  s               0.1       0.4       0.0       0.0       0.1       0.0
14 H  s               0.4       0.1       0.0       0.0       0.0       0.0
16 H  s               0.1       0.0       0.0       0.0       0.0       0.0
19 H  s               0.1       0.5       0.0       0.0       0.0       0.0
20 H  s               0.4       0.1       0.0       0.0       0.0       0.0
21 H  s               0.1       0.1       0.0       0.0       0.0       0.0
22 H  s               0.1       0.0       0.2       0.0       0.0       0.0
23 H  s               0.0       0.1       0.0       0.0       0.0       0.0

                    162       163       164       165       166       167   
                   2.87055   3.06998   3.11197   3.32099   3.50361   3.56247
                   0.00000   0.00000   0.00000   0.00000   0.00000   0.00000
                  --------  --------  --------  --------  --------  --------
 0 C  s               0.6       0.5       0.0       1.0       0.3       0.0
 0 C  pz              0.0       0.2       0.0       0.3       0.0       0.0
 0 C  px              0.5       0.5       0.0       1.1       0.2       0.0
 0 C  py              0.2       0.1       0.0       0.3       0.2       0.0
 0 C  dz2             0.7       0.0       0.2       0.2       0.4       0.0
 0 C  dxz             0.0       1.6       0.1       2.2       0.0       0.5
 0 C  dyz             0.0       0.3       0.1       0.7       0.1       0.0
 0 C  dx2y2           0.0       0.3       0.4       1.0       0.0       0.1
 0 C  dxy             3.6       0.6       0.0       1.2       0.5       0.0
 1 O  s               0.6       7.6       0.6       0.0       1.0       0.3
 1 O  pz              1.2       0.8       0.0       0.1       0.2       0.2
 1 O  px              0.7       0.1       0.0       1.2       1.8       0.1
 1 O  py              0.4       0.3       0.1       1.3       1.8       0.0
 1 O  dz2            22.4       0.8       0.5       8.1       1.4       4.4
 1 O  dxz             7.2       0.4       2.6      10.2      12.2       0.2
 1 O  dyz             2.4       8.4       0.0      20.0      11.3       0.2
 1 O  dx2y2          12.0       1.8      10.1       8.8       3.8       0.2
 1 O  dxy             2.9      34.1       2.8       5.6       7.6       7.1
 2 C  s               0.2       1.0       0.1       3.8       0.2       6.2
 2 C  pz              0.4       1.2       0.0       0.2       2.2       3.4
 2 C  px              0.4       0.6       0.0       1.0       0.1       0.7
 2 C  py              0.0       1.1       0.6       0.5       1.5       0.3
 2 C  dz2             3.3       0.0      10.3       2.1       0.3       5.2
 2 C  dxz             0.1       6.0       1.8       0.4       9.3       0.0
 2 C  dyz             0.6       0.1       3.4       1.2       6.5       6.3
 2 C  dx2y2           2.2       0.4       1.3       0.6       3.4       0.8
 2 C  dxy             6.8       0.0       3.1       3.0       1.2       0.6
 3 O  s               1.1       0.5       0.1       1.6       1.0       4.5
 3 O  pz              0.2       0.2       0.3       0.5       0.6       2.6
 3 O  px              0.4       0.6       0.2       0.0       0.1       0.8
 3 O  py              0.0       0.0       0.5       0.3       0.6       0.1
 3 O  dz2             1.2       0.7      28.9       5.5       5.3      22.2
 3 O  dxz            14.5      17.3       2.9       0.0       2.2      24.3
 3 O  dyz             0.0       2.0      18.2      12.5      15.2       4.1
 3 O  dx2y2           0.0       4.5       0.1       1.6       3.9       1.0
 3 O  dxy             0.5       1.9       8.6       0.0       0.4       2.1
 4 C  s               0.1       0.3       0.0       0.2       0.1       0.0
 4 C  px              0.1       0.1       0.0       0.1       0.2       0.1
 4 C  dz2             0.9       0.5       0.0       0.1       0.7       0.1
 4 C  dxz             4.7       0.0       0.3       0.7       0.0       0.4
 4 C  dyz             0.0       0.3       0.0       0.2       0.4       0.1
 4 C  dx2y2           0.5       0.0       0.7       0.1       0.0       0.1
 4 C  dxy             1.7       1.3       0.4       0.0       1.0       0.0
 5 C  dz2             0.1       0.0       0.0       0.0       0.0       0.0
 5 C  dxz             0.0       0.0       0.1       0.0       0.0       0.0
 5 C  dyz             0.2       0.1       0.0       0.0       0.0       0.0
 5 C  dx2y2           1.0       0.0       0.0       0.0       0.0       0.0
 5 C  dxy             0.4       0.1       0.0       0.0       0.1       0.0
 6 C  dz2             0.2       0.0       0.0       0.0       0.0       0.0
 8 C  dyz             0.1       0.0       0.0       0.0       0.0       0.0
 9 C  px              0.1       0.0       0.0       0.0       0.0       0.0
 9 C  dz2             0.2       0.1       0.0       0.0       0.1       0.0
 9 C  dxz             0.4       0.0       0.0       0.1       0.0       0.1
 9 C  dyz             0.2       0.0       0.1       0.0       0.0       0.0
 9 C  dxy             0.3       0.0       0.0       0.0       0.0       0.0



                      *****************************
                      * MAYER POPULATION ANALYSIS *
                      *****************************

  NA   - Mulliken gross atomic population
  ZA   - Total nuclear charge
  QA   - Mulliken gross atomic charge
  VA   - Mayer's total valence
  BVA  - Mayer's bonded valence
  FA   - Mayer's free valence

  ATOM       NA         ZA         QA         VA         BVA        FA
  0 C      6.1078     6.0000    -0.1078     3.8825     3.8825    -0.0000
  1 O      8.2350     8.0000    -0.2350     2.2822     2.2822     0.0000
  2 C      5.8614     6.0000     0.1386     4.3070     4.3070    -0.0000
  3 O      8.2019     8.0000    -0.2019     2.3014     2.3014    -0.0000
  4 C      6.2358     6.0000    -0.2358     4.1236     4.1236     0.0000
  5 C      6.0687     6.0000    -0.0687     4.1410     4.1410    -0.0000
  6 C      6.1748     6.0000    -0.1748     4.1795     4.1795     0.0000
  7 C      6.1675     6.0000    -0.1675     4.1811     4.1811    -0.0000
  8 C      6.1544     6.0000    -0.1544     4.2346     4.2346    -0.0000
  9 C      6.1102     6.0000    -0.1102     4.0736     4.0736    -0.0000
 10 H      0.8804     1.0000     0.1196     0.9627     0.9627    -0.0000
 11 H      0.8790     1.0000     0.1210     0.9558     0.9558     0.0000
 12 H      0.8794     1.0000     0.1206     0.9665     0.9665     0.0000
 13 H      0.8979     1.0000     0.1021     0.9451     0.9451     0.0000
 14 H      0.9088     1.0000     0.0912     0.9630     0.9630    -0.0000
 15 H      0.9239     1.0000     0.0761     0.9467     0.9467    -0.0000
 16 H      0.9172     1.0000     0.0828     0.9559     0.9559     0.0000
 17 H      0.9195     1.0000     0.0805     0.9451     0.9451     0.0000
 18 H      0.9045     1.0000     0.0955     0.9612     0.9612     0.0000
 19 H      0.9144     1.0000     0.0856     0.9445     0.9445     0.0000
 20 H      0.9123     1.0000     0.0877     0.9453     0.9453     0.0000
 21 H      0.9262     1.0000     0.0738     0.9455     0.9455     0.0000
 22 H      0.8952     1.0000     0.1048     0.9854     0.9854    -0.0000
 23 H      0.9238     1.0000     0.0762     0.9457     0.9457     0.0000

  Mayer bond orders larger than 0.100000
B(  0-C ,  1-O ) :   0.9384 B(  0-C , 10-H ) :   0.9526 B(  0-C , 11-H ) :   0.9589 
B(  0-C , 12-H ) :   0.9512 B(  1-O ,  2-C ) :   1.2193 B(  2-C ,  3-O ) :   2.0441 
B(  2-C ,  4-C ) :   0.9466 B(  4-C ,  5-C ) :   1.1461 B(  4-C ,  9-C ) :   1.0862 
B(  4-C , 13-H ) :   0.8579 B(  5-C ,  6-C ) :   1.1482 B(  5-C , 14-H ) :   0.9046 
B(  5-C , 15-H ) :   0.8974 B(  6-C ,  7-C ) :   1.1491 B(  6-C , 16-H ) :   0.9147 
B(  6-C , 17-H ) :   0.9180 B(  7-C ,  8-C ) :   1.1818 B(  7-C , 18-H ) :   0.9010 
B(  7-C , 19-H ) :   0.9206 B(  8-C ,  9-C ) :   1.1499 B(  8-C , 20-H ) :   0.9204 
B(  8-C , 21-H ) :   0.9089 B(  9-C , 22-H ) :   0.8994 B(  9-C , 23-H ) :   0.9130 


-------
TIMINGS
-------

Total SCF time: 0 days 0 hours 0 min 9 sec 

Total time                  ....       9.668 sec
Sum of individual times     ....       9.206 sec  ( 95.2%)

SCF preparation             ....       0.168 sec  (  1.7%)
Fock matrix formation       ....       8.323 sec  ( 86.1%)
  Startup                   ....       0.050 sec  (  0.6% of F)
  Split-RI-J                ....       3.197 sec  ( 38.4% of F)
  XC integration            ....       4.644 sec  ( 55.8% of F)
    XC Preparation          ....       0.000 sec  (  0.0% of XC)
    Basis function eval.    ....       1.500 sec  ( 32.3% of XC)
    Density eval.           ....       0.843 sec  ( 18.1% of XC)
    XC-Functional eval.     ....       0.310 sec  (  6.7% of XC)
    XC-Potential eval.      ....       1.104 sec  ( 23.8% of XC)
Diagonalization             ....       0.000 sec  (  0.0%)
Density matrix formation    ....       0.176 sec  (  1.8%)
Total Energy calculation    ....       0.027 sec  (  0.3%)
Population analysis         ....       0.090 sec  (  0.9%)
Orbital Transformation      ....       0.047 sec  (  0.5%)
Orbital Orthonormalization  ....       0.000 sec  (  0.0%)
DIIS solution               ....       0.303 sec  (  3.1%)
  MO trafo                  ....       0.000 sec  (  0.0 % of DIIS)
  Orb grad                  ....       0.000 sec  (  0.0 % of DIIS)
  Energy W gradient         ....       0.000 sec  (  0.0 % of DIIS)
  DIIS error                ....       0.005 sec  (  1.6 % of DIIS)
  DIIS work                 ....       0.260 sec  ( 85.8 % of DIIS)
  Form Q                    ....       0.000 sec  (  0.0 % of DIIS)
  Form QpQm                 ....       0.000 sec  (  0.0 % of DIIS)
  Exp/Cayley                ....       0.000 sec  (  0.0 % of DIIS)
  Orb update                ....       0.000 sec  (  0.0 % of DIIS)
  Wake-sleep                ....       0.015 sec  (  4.8 % of DIIS)
SOSCF solution              ....       0.071 sec  (  0.7%)
  MO trafo                  ....       0.042 sec  ( 58.3 % of SOSCF)
  Orb grad                  ....       0.001 sec  (  1.6 % of SOSCF)
  Rot update                ....       0.011 sec  ( 15.9 % of SOSCF)
  Step                      ....       0.017 sec  ( 24.1 % of SOSCF)
Finished LeanSCF after   9.7 sec

Maximum memory used throughout the entire LEANSCF-calculation: 16.7 MB


-------------------------------------------------------------------------------
                          DFT DISPERSION CORRECTION                            
                                                                               
                                DFTD4 V3.4.0                                   
-------------------------------------------------------------------------------
The PBE functional is recognized
Active option DFTDOPT                   ...         5   

-------------------------   ----------------
Dispersion correction           -0.024105235
-------------------------   ----------------

------------------   -----------------
gCP correction             0.112236198
------------------   -----------------

-------------------------   --------------------
FINAL SINGLE POINT ENERGY      -462.697676283432
-------------------------   --------------------


------------------------------------------------------------------------------
                              ORCA PROPERTY CALCULATIONS
------------------------------------------------------------------------------

GBWName                                 ... sp.gbw
Number of atoms                         ...     24
Number of basis functions               ...    168
Max core memory                         ...   1024 MB

Electric properties:
Dipole moment                           ... YES
Quadrupole moment                       ...  NO
Static polarizability (Dipole/Dipole)   ...  NO
Static polarizability (Dipole/Quad.)    ...  NO
Static polarizability (Quad./Quad.)     ...  NO
Static polarizability (Velocity)        ...  NO

Atomic electric properties:
Dipole moment                           ...  NO
Quadrupole moment                       ...  NO
Static polarizability                   ...  NO

Choice of electric origin               ... Center of mass
Position of electric origin             ...     0.000025    -0.000003    -0.000005

General magnetic properties:
Magnetizability                         ...  NO

EPR properties:
g-Tensor (aka g-matrix)                 ...  NO
Zero-Field splitting spin-orbit         ...  NO
Zero-field splitting spin-spin          ...  NO
Hyperfine couplings                     ...  NO (   0 nuclei)
Quadrupole couplings                    ...  NO (   0 nuclei)
Contact density                         ...  NO (   0 nuclei)

NMR properties:
Chemical shifts                         ...  NO (   0 nuclei)
Spin-rotation constants                 ...  NO (   0 nuclei)
Spin-spin couplings                     ...  NO (   0 nuclei,    0 pairs)

Choice of magnetic origin               ... GIAO
Position of magnetic origin             ...     0.000000     0.000000     0.000000

Properties with geometric perturbations:
SCF Hessian                             ...  NO
IR spectrum                             ...  NO
VCD spectrum                            ...  NO
X-ray spectroscopy properties:
SCF XES/XAS/RIXS spectra                ...  NO


-------------
DIPOLE MOMENT
-------------

Method             : SCF
Type of density    : Electron Density
Multiplicity       :   1
Irrep              :   0
Energy             :  -462.7858072458858487 Eh
Relativity type    : 
Basis              : AO
                                X                 Y                 Z
Electronic contribution:     -5.999254194       1.777153957       0.617655350
Nuclear contribution   :      5.917042760      -2.194004960      -1.168078083
                        -----------------------------------------
Total Dipole Moment    :     -0.082211434      -0.416851003      -0.550422733
                        -----------------------------------------
Magnitude (a.u.)       :      0.695333491
Magnitude (Debye)      :      1.767397277



--------------------
Rotational spectrum 
--------------------
 
Rotational constants in cm-1:             0.073955             0.034322             0.030264 
Rotational constants in MHz :          2217.110005          1028.954098           907.304315 

Dipole components along the rotational axes: 
x,y,z [a.u.] :    -0.180449    -0.623296    -0.249859 
x,y,z [Debye]:    -0.458665    -1.584292    -0.635090 

 

Dipole moment calculation done in   0.0 sec 

Maximum memory used throughout the entire PROP-calculation: 10.5 MB

--------------------------------
SUGGESTED CITATIONS FOR THIS RUN
--------------------------------

Below you find a list of papers that are relevant to this ORCA run
We neither can nor want to force you to cite these papers, but we appreciate if you do
You receive ORCA, which is the product of decades of hard work by many enthusiastic individuals, for free
The only thing we kindly ask in return is that you cite our papers,
We deeply appreciate it, if you show your appreciation for ORCA by not just citing the generic ORCA reference.

Please note that relegating all ORCA citations to the supporting information does *not* help us.
SI sections are not indexed - citations you put there will not count into any citation statistics
But we need these citations in order to attract the funding resources that allow us to do what we are doing

Therefore, if you are a happy ORCA user, please consider citing a few of the papers listed below in the main body of your paper

In addition to the list printed below, the program has created the file sp.bibtex that contains the list in bibtex format
You can import this file easily into all common literature databanks and citation aid programs


List of essential papers. We consider these as the minimum necessary citations

  1. Neese,F.
     Software update: the ORCA program system, version 5.0
     WIRES Comput. Molec. Sci., 2022 12(1)e1606
     doi.org/10.1002/wcms.1606

List of papers to cite with high priority. The work reported in these papers was absolutely
necessary for this run to complete.
Our perspective: the developers of density functionals and basis sets usually get cited in chemistry papers
Good! But without the algorithms to do something with them, the functionals or basis sets would not do anything.
Hence, in our opinion, the algorithm design and method developments papers are equally worthy of getting cited

  1. Neese,F.
     An improvement of the resolution of the identity approximation for the formation of the Coulomb matrix
     J. Comp. Chem., 2003 24(14)1740-1747
     doi.org/10.1002/jcc.10318
  2. Neese,F.
     The SHARK Integral Generation and Digestion System
     J. Comp. Chem., 2022  1-16
     doi.org/10.1002/jcc.26942
  3. Caldeweyher,E.; Bannwarth,C.; Grimme,S.
     Extension of the D3 dispersion coefficient model
     J. Chem. Phys., 2017 147 034112-XXXX
     doi.org/10.1063/1.4993215
  4. Caldeweyher,E.; Ehlert,S.; Hansen,A.; Neugebauer,H.; Spicher,S.; Bannwarth,C.; Grimme,S.
     A generally applicable atomic-charge dependent London dispersion correction
     J. Chem. Phys., 2019 150 154122-XXXX
     doi.org/10.1063/1.5090222
  5. Caldeweyher,E.; Mewes,J.; Ehlert,S.; Grimme,S.
     Extension and evaluation of the D4 London-dispersion model for periodic systems
     Phys. Chem. Chem. Phys., 2020 22(16)8499-8512
     doi.org/10.1039/D0CP00502A

List of suggested additional citations. These are papers that are important in the 'surrounding' of 
of this run, or papers that preceded the highly important papers. If you like your results we are grateful for a citation.

  1. Neese,F.
     The ORCA program system
     WIRES Comput. Molec. Sci., 2012 2(1)73-78
     doi.org/10.1002/wcms.81
  2. Neese,F.
     Software update: the ORCA program system, version 4.0
     WIRES Comput. Molec. Sci., 2018 8(1)1-6
     doi.org/10.1002/wcms.1327
  3. Neese,F.; Wennmohs,F.; Becker,U.; Riplinger,C.
     The ORCA quantum chemistry program package
     J. Chem. Phys., 2020 152 Art. No. L224108
     doi.org/10.1063/5.0004608

List of optional additional citations

  1. Neese,F.
     Approximate second-order SCF convergence for spin unrestricted wavefunctions
     Chem. Phys. Lett., 2000 325(1-3)93-98
     doi.org/10.1016/s0009-2614(00)00662-x

Timings for individual modules:

Sum of individual times          ...       11.829 sec (=   0.197 min)
Startup calculation              ...        1.023 sec (=   0.017 min)   8.6 %
SCF iterations                   ...       10.707 sec (=   0.178 min)  90.5 %
Property calculations            ...        0.099 sec (=   0.002 min)   0.8 %
                             ****ORCA TERMINATED NORMALLY****
TOTAL RUN TIME: 0 days 0 hours 0 minutes 12 seconds 575 msec
