24
 energy: -534.803915010670 gnorm: 0.001274667103 xtb: 6.7.1 (edcfbbe)
C           -3.26813715239959       -0.74055526436239        0.87291126751381
N           -2.02354889078952       -0.11249472878451        0.43653402482764
C           -1.52485749215809        0.95953810327573        1.29346706635875
C           -1.59077420748995       -0.35716631318789       -0.82457360497165
O           -2.28583856365038       -0.97296278964433       -1.65989332416549
N           -0.35003529900831        0.14255419046514       -1.20637577315388
C            0.85783553776170        0.15480027145589       -0.48055015139931
C            1.89943518628121        0.96242457358208       -0.95434990029391
C            3.12234258327699        0.98466315736304       -0.29489439833072
C            3.32256368801562        0.21773879216132        0.85179748251138
C            2.28746220996193       -0.58956400359746        1.31743914491002
C            1.06432412255444       -0.63447208016720        0.65579636936943
H           -3.35027196691618       -1.74883363783453        0.46282146482635
H           -4.14501928973688       -0.15801062729951        0.55987644403088
H           -3.25970517964786       -0.80454978493682        1.96451062697141
H           -0.83631523730046        1.60681137851519        0.75112806152085
H           -1.01694580445057        0.56373507594219        2.18087012532555
H           -2.37522032437708        1.56755934862302        1.62285750606309
H           -0.24441680399052        0.17398429609134       -2.21165604309717
H            1.74101192913156        1.56989910675320       -1.84065399474671
H            3.92014648216498        1.61479467490057       -0.67586531284635
H            4.27477989516579        0.24381392555940        1.37109022428305
H            2.43283798401676       -1.20616709853774        2.19918789935423
H            0.27968706572704       -1.29140073970444        1.01315905023025
24
 energy: -534.803916973067 gnorm: 0.000349118736 xtb: 6.7.1 (edcfbbe)
C           -3.26833607796262       -0.74074091177549        0.87289831938746
N           -2.02324332758426       -0.11289566912930        0.43650741385060
C           -1.52525194288784        0.95967080766394        1.29348922999648
C           -1.59084081533011       -0.35625323531620       -0.82437816166023
O           -2.28597765709938       -0.97166174904369       -1.65992695792799
N           -0.34987133858385        0.14224826496709       -1.20619982938717
C            0.85813696742990        0.15463754677955       -0.48058329113191
C            1.89973788479169        0.96203673460845       -0.95457867014299
C            3.12252842881928        0.98447942878421       -0.29493941408931
C            3.32267487943205        0.21779319932832        0.85190995961367
C            2.28774217070744       -0.58978922847448        1.31724920771762
C            1.06463768703094       -0.63473966627982        0.65542868180678
H           -3.34978298469822       -1.74914413039532        0.46445736862694
H           -4.14523784195062       -0.15939685951250        0.55976478384872
H           -3.26063607682518       -0.80337649838596        1.96413483662409
H           -0.83741034593920        1.60746129722658        0.75101661918394
H           -1.01693561954660        0.56426161847964        2.18069071703242
H           -2.37614576942501        1.56675731996923        1.62297970372280
H           -0.24472533490408        0.17521160157200       -2.21147339923179
H            1.74196796343148        1.56913952861309       -1.84118517201435
H            3.92036062416653        1.61455211628135       -0.67597727055534
H            4.27463207461008        0.24436510915325        1.37164278325648
H            2.43292352070930       -1.20643643299879        2.19895199576779
H            0.28039345481574       -1.29204027968713        1.01275500529865
24
 energy: -534.803916973067 gnorm: 0.000349118736 xtb: 6.7.1 (edcfbbe)
C           -3.26833607796262       -0.74074091177549        0.87289831938746
N           -2.02324332758426       -0.11289566912930        0.43650741385060
C           -1.52525194288784        0.95967080766394        1.29348922999648
C           -1.59084081533011       -0.35625323531620       -0.82437816166023
O           -2.28597765709938       -0.97166174904369       -1.65992695792799
N           -0.34987133858385        0.14224826496709       -1.20619982938717
C            0.85813696742990        0.15463754677955       -0.48058329113191
C            1.89973788479169        0.96203673460845       -0.95457867014299
C            3.12252842881928        0.98447942878421       -0.29493941408931
C            3.32267487943205        0.21779319932832        0.85190995961367
C            2.28774217070744       -0.58978922847448        1.31724920771762
C            1.06463768703094       -0.63473966627982        0.65542868180678
H           -3.34978298469822       -1.74914413039532        0.46445736862694
H           -4.14523784195062       -0.15939685951250        0.55976478384872
H           -3.26063607682518       -0.80337649838596        1.96413483662409
H           -0.83741034593920        1.60746129722658        0.75101661918394
H           -1.01693561954660        0.56426161847964        2.18069071703242
H           -2.37614576942501        1.56675731996923        1.62297970372280
H           -0.24472533490408        0.17521160157200       -2.21147339923179
H            1.74196796343148        1.56913952861309       -1.84118517201435
H            3.92036062416653        1.61455211628135       -0.67597727055534
H            4.27463207461008        0.24436510915325        1.37164278325648
H            2.43292352070930       -1.20643643299879        2.19895199576779
H            0.28039345481574       -1.29204027968713        1.01275500529865
