31
 energy: -35.713796513514 gnorm: 0.033470720185 xtb: 6.7.1 (edcfbbe)
C            3.74830885065452        0.20306011422130        0.04798352564647
C            2.27189517688853        0.34653613626187       -0.31052266480608
H            2.19215752959031        0.58813246194746       -1.38148682214231
C            1.60766567679440        1.47501901045597        0.47892363614062
C            0.11849111203382        1.58592926107509        0.16064242745279
C           -0.64273946563063        0.27299866057936        0.41497327556027
H           -0.51472846512131        0.01905379808737        1.48036624752944
C            0.02534980521964       -0.84607340584295       -0.39042664528781
H           -0.08608343512467       -0.63473064695097       -1.46170091798743
C            1.51252675154015       -0.95939160461236       -0.06258860924578
O           -0.61689429635452       -2.12785980574761       -0.20164583346549
C           -2.16003176039002        0.46123327921829        0.15827134446907
C           -2.53889727867554        0.39414599576289       -1.32316494123041
C           -3.04062759169129       -0.48478815676124        0.98048545396196
H            4.22404188220339       -0.59718100719589       -0.52954655888662
H            4.29484059512314        1.13241825355121       -0.14732308848814
H            3.86217000790520       -0.03648519862892        1.11234458517997
H            1.73750243543107        1.27560857712244        1.55304245565791
H            2.11076504701041        2.42674388124647        0.26679975583121
H           -0.33574886268655        2.38060423752630        0.76413991245693
H           -0.00715718979197        1.87708662960812       -0.89177460022515
H            1.61713792325748       -1.24094237133119        0.99666089406742
H            1.94588303564969       -1.77028396049410       -0.66127439115967
H           -0.64249878815220       -2.29233874592522        0.75197206136609
H           -2.38775832599194        1.47908493950438        0.50656026094335
H           -3.58284047497881        0.69648466053552       -1.46117260687579
H           -2.43723769940258       -0.62477301619049       -1.71312092611809
H           -1.91818694519436        1.05604399126053       -1.93639528953170
H           -2.95793303882013       -1.51953721115464        0.63507775352480
H           -4.09347912166849       -0.19042913255615        0.90068789991874
H           -2.76620777479298       -0.45870251104248        2.04100599042693
31
 energy: -35.715339430005 gnorm: 0.014342502029 xtb: 6.7.1 (edcfbbe)
C            3.73419342179741        0.20234211526876        0.04914498793783
C            2.25988937741761        0.34441292761925       -0.31489417049493
H            2.18219953059863        0.58348260687571       -1.38362569434450
C            1.60212556328270        1.46688418057949        0.48655072586599
C            0.11869158030298        1.58390140490793        0.15621598468923
C           -0.63976222167221        0.27548278646566        0.42053244395229
H           -0.51858710362663        0.02782164164104        1.48518299708182
C            0.01956442739914       -0.84439624643027       -0.39466004173203
H           -0.08997363071048       -0.64158940669795       -1.46550558733628
C            1.50689192287253       -0.96003007198793       -0.05319075870508
O           -0.62216002990539       -2.11037142075911       -0.20750286382977
C           -2.15305363764697        0.47703876750032        0.16016392830975
C           -2.53513458964716        0.39116664451485       -1.31603262706416
C           -3.02191204911101       -0.48496086167714        0.97116430922952
H            4.20125122565284       -0.59308098692153       -0.53025126209183
H            4.27133468186026        1.12900831789898       -0.15024295291346
H            3.84894113353002       -0.03541875294915        1.10720114828125
H            1.72671383730449        1.26870075808390        1.55659610221405
H            2.09947639643540        2.41557510548018        0.26815829146147
H           -0.32464970992485        2.37943962904838        0.76098818937712
H            0.00123336800375        1.86590899995519       -0.89480256169083
H            1.61425183021118       -1.23458744485579        1.00266697606836
H            1.93737932515801       -1.76875612020855       -0.64991387815239
H           -0.62340067065155       -2.29566191810438        0.74233626316799
H           -2.38903819473392        1.49198077647127        0.50704199768107
H           -3.57552121715909        0.68813185639941       -1.44760222447729
H           -2.42608252379707       -0.62713700665932       -1.68916791436991
H           -1.91790408340563        1.05253836449512       -1.92237107242818
H           -2.92399851723024       -1.50845482426474        0.61188262907496
H           -4.06975275096643       -0.19729504405190        0.88431038163729
H           -2.75352137680458       -0.45540966410728        2.02741983828413
31
 energy: -35.715739057178 gnorm: 0.005027314348 xtb: 6.7.1 (edcfbbe)
C            3.72857601716028        0.19935064158891        0.04708577219780
C            2.25276425472841        0.34190106826278       -0.31265097455215
H            2.17295462711561        0.57942916365966       -1.37894127595724
C            1.60133074596468        1.46676495413067        0.48901774524601
C            0.11985053182842        1.58883088424326        0.15399475207400
C           -0.64019307971305        0.28466638562553        0.42095841685917
H           -0.52145145174601        0.03863162483533        1.48358247300370
C            0.01037705191496       -0.84494062090540       -0.39129889998176
H           -0.09210299572340       -0.64147337017419       -1.46093420270808
C            1.49990467730487       -0.96027962320156       -0.04666254122413
O           -0.63328235071728       -2.09768964429179       -0.21122326968148
C           -2.15203671269082        0.48462195718425        0.16167702822529
C           -2.53111928938551        0.39330414971058       -1.31398290136119
C           -3.01224152265934       -0.48785809277365        0.96855325100005
H            4.18870849179200       -0.59503987789701       -0.53376406372861
H            4.25916445748056        1.12565699340687       -0.15502744019964
H            3.84089403606314       -0.03664873942001        1.10195651340943
H            1.71975707774524        1.26369542636712        1.55515680742932
H            2.10061545793025        2.41226423592020        0.27115308273557
H           -0.31947404405138        2.38731815501881        0.75474055056387
H            0.00975133825663        1.86061891399828       -0.89703672896806
H            1.60418661994864       -1.22612554928690        1.00813909495732
H            1.92799518058739       -1.77125173692491       -0.63916137754124
H           -0.60043510603414       -2.31343174331225        0.73333340064566
H           -2.39203696954375        1.49733897088046        0.50819101261962
H           -3.57095752748555        0.68218757242271       -1.44210410115348
H           -2.41445995168116       -0.62551201681832       -1.67311723467389
H           -1.91774239376864        1.05453118015183       -1.91920959745567
H           -2.89160717906230       -1.50183515500420        0.59755676356374
H           -4.06044970194460       -0.21427132661055        0.87520115323840
H           -2.74755497478042       -0.45808766725619        2.02261037610115
31
 energy: -35.715853181202 gnorm: 0.005356823369 xtb: 6.7.1 (edcfbbe)
C            3.72692372339722        0.19576564938237        0.04447721244880
C            2.24946138392103        0.34015312544609       -0.31153424032520
H            2.16629353705106        0.57602800699276       -1.37776597699573
C            1.60125338534965        1.46703373276069        0.48991470140112
C            0.12025585925212        1.59265108980463        0.15079822871601
C           -0.64180044721707        0.29131097053033        0.42264573494151
H           -0.52203723429648        0.04684867841910        1.48535288927896
C            0.00586664574614       -0.84323834707346       -0.38817905730577
H           -0.09101183602975       -0.63561509881679       -1.45789081957219
C            1.49579822732922       -0.96009416268447       -0.04056438205452
O           -0.63979666940612       -2.09045269451032       -0.21139564763846
C           -2.15339624622990        0.48936538973161        0.16334684493843
C           -2.53109681219342        0.39707812399105       -1.31348072058230
C           -3.00814348084553       -0.49173627031414        0.96679252899521
H            4.18396964008041       -0.59953485028701       -0.53757042090665
H            4.25652791877923        1.12210351268840       -0.15982455227644
H            3.84025191228157       -0.03960665250215        1.09935540693480
H            1.71595543641305        1.26163529101037        1.55577117163470
H            2.10459921266679        2.41067665165833        0.27403503729859
H           -0.31907340392784        2.39449346202421        0.74678971878334
H            0.01418230547892        1.85975162319220       -0.90160822044485
H            1.59646164982954       -1.22072068757938        1.01578644508553
H            1.92319869708106       -1.77408123705235       -0.62958037200749
H           -0.57971935472504       -2.32895925628259        0.72769233502931
H           -2.39654438969281        1.50070270281042        0.51158855502832
H           -3.57230184877593        0.68032625642224       -1.44284202300382
H           -2.40851980996094       -0.62166013966992       -1.67016078477508
H           -1.91994844001639        1.06040584414054       -1.91860633622116
H           -2.87219637832113       -1.50276817379036        0.59359921893415
H           -4.05916111563803       -0.23031663695267        0.86948721758730
H           -2.74656675254685       -0.46087878995942        2.02136389175703
31
 energy: -35.715945643533 gnorm: 0.005785669877 xtb: 6.7.1 (edcfbbe)
C            3.72605749992939        0.19121369911745        0.04048434230995
C            2.24662249348700        0.33776123220741       -0.30913838565820
H            2.15878796238246        0.57019710816794       -1.37618784419976
C            1.60115908495445        1.46805042729331        0.49009859353871
C            0.12076775561466        1.59713036275172        0.14582498838071
C           -0.64438414089135        0.29889084153719        0.42361974960743
H           -0.52295938819469        0.05861316180409        1.48749931437958
C            0.00231678419904       -0.84129514743980       -0.38392046758090
H           -0.08791943815015       -0.62833519367903       -1.45401883757451
C            1.49131590478516       -0.95968675709849       -0.03129244866519
O           -0.64573973798233       -2.08508880823245       -0.21129377475882
C           -2.15631002314953        0.49304336069225        0.16552730598424
C           -2.53273140902132        0.40429764854595       -1.31270315493611
C           -3.00458013357613       -0.49783853282584        0.96476282417336
H            4.17929798257732       -0.60616309112732       -0.54288810832715
H            4.25707806829609        1.11669871144992       -0.16717945434962
H            3.84321181902262       -0.04359777073540        1.09585122199391
H            1.71102763199019        1.26153914854619        1.55687058170274
H            2.10996073936581        2.40984424673789        0.27711143938797
H           -0.31937888816460        2.40477682546011        0.73408457453552
H            0.01946628261362        1.85848276243574       -0.90907152532121
H            1.58719121511635       -1.21298316969978        1.02805022304752
H            1.91889685571749       -1.77881952951824       -0.61387848513799
H           -0.55205277029274       -2.35040914678753        0.71816668581004
H           -2.40421915952822        1.50208182826433        0.51789470340228
H           -3.57624823928195        0.68098473107651       -1.44315471061342
H           -2.40308636720957       -0.61297156980805       -1.67245797436072
H           -1.92510264225149        1.07329992610563       -1.91644207280332
H           -2.85034089039793       -1.50701819082855        0.59309249910878
H           -4.05950256612864       -0.25246832145411        0.86118986713925
H           -2.74891697099723       -0.46356367942874        2.02129191446834
31
 energy: -35.715989656080 gnorm: 0.003599318378 xtb: 6.7.1 (edcfbbe)
C            3.72591128359558        0.18898867819206        0.03835270517767
C            2.24589975263251        0.33634359816158       -0.30740146028375
H            2.15561164566119        0.56580495930245       -1.37528449179311
C            1.60067440548876        1.46882795920695        0.48910017827307
C            0.12081267808855        1.59829527597680        0.14186369763644
C           -0.64576710351804        0.30145041326658        0.42403112228342
H           -0.52347898422749        0.06490050916847        1.48901412570906
C            0.00216621107181       -0.84059838430357       -0.38128751818665
H           -0.08547538305387       -0.62594727086226       -1.45162420174936
C            1.48950871592619       -0.95935253699483       -0.02489346816861
O           -0.64699425331108       -2.08489743116935       -0.21093277339102
C           -2.15798355587769        0.49349311513039        0.16684646402107
C           -2.53472245591621        0.41060541773702       -1.31169423969435
C           -3.00321650188347       -0.50200741494927        0.96319874002970
H            4.17693686035715       -0.60994051845539       -0.54541605661151
H            4.25859379841920        1.11337843054686       -0.17197282022501
H            3.84672081122190       -0.04507400496954        1.09399884615545
H            1.70828631287695        1.26369271436279        1.55690363301853
H            2.11153308510678        2.40995380765978        0.27675817917860
H           -0.32015465213976        2.40950150302995        0.72515059268437
H            0.02170420516353        1.85610581266770       -0.91463959710010
H            1.58272258469678       -1.20750651369213        1.03646746235571
H            1.91810155336911       -1.78202335411614       -0.60220777353571
H           -0.53581838571588       -2.36283937444457        0.71082463000668
H           -2.40815506409966        1.50072474692008        0.52346865435368
H           -3.57952853438968        0.68440926560945       -1.44132452730423
H           -2.40179884630972       -0.60443991510328       -1.67770393816180
H           -1.92969559067812        1.08503179917251       -1.91285517807461
H           -2.84017057779029       -1.51109784422022        0.59506825306542
H           -4.05966391270040       -0.26485161248410        0.85456674701334
H           -2.75287478723086       -0.46426471681647        2.02141759800104
31
 energy: -35.716016381091 gnorm: 0.001779304133 xtb: 6.7.1 (edcfbbe)
C            3.72541993198216        0.18782503611366        0.03754129978059
C            2.24559892743865        0.33497835530585       -0.30628783034715
H            2.15433954462248        0.56125601497935       -1.37490376063977
C            1.59997901317437        1.46958897917089        0.48695789867470
C            0.12059875900521        1.59779887930059        0.13822001910274
C           -0.64648934185911        0.30178645323152        0.42456397157229
H           -0.52394259927654        0.06874152479739        1.49032450282282
C            0.00264105809458       -0.84058834295031       -0.37915204460930
H           -0.08492289586174       -0.62626226637059       -1.44945270086749
C            1.48819284248226       -0.95931050230364       -0.01967296675125
O           -0.64775836168291       -2.08639038021095       -0.21034930260182
C           -2.15883106547519        0.49319285537219        0.16830557055800
C           -2.53631051826737        0.41751885969773       -1.31004303818634
C           -3.00284181832599       -0.50527976999958        0.96129825398269
H            4.17495441386220       -0.61250461907535       -0.54558181303421
H            4.25917982487472        1.11100424982331       -0.17557696930829
H            3.84914109299776       -0.04456108407387        1.09328434979560
H            1.70683506604406        1.26772536601342        1.55562885987655
H            2.11076757435429        2.41038812487780        0.27281998555054
H           -0.32081703006371        2.41158724020814        0.71764373890689
H            0.02239132809053        1.85175300748953       -0.91946184959578
H            1.57989214773229       -1.20246131995285        1.04313664437492
H            1.91811407366248       -1.78481801019101       -0.59189512852047
H           -0.51767908266656       -2.37551942721741        0.70435658465842
H           -2.40986072617982        1.49863875267055        0.52966764866498
H           -3.58183112411338        0.68985181347680       -1.43731642964586
H           -2.40158225026865       -0.59478873499970       -1.68338070251115
H           -1.93368748429360        1.09742432877656       -1.90751944163657
H           -2.83374964593874       -1.51454246618945        0.59675667066557
H           -4.05959299043611       -0.27324583290900        0.84690974033316
H           -2.75846334887484       -0.46411997133125        2.02097182361841
31
 energy: -35.716027844078 gnorm: 0.000953208921 xtb: 6.7.1 (edcfbbe)
C            3.72461452684832        0.18757403408771        0.03842334741062
C            2.24548616627918        0.33376887810778       -0.30652403520786
H            2.15505398055493        0.55706848697885       -1.37568984308164
C            1.59931530148946        1.47047003493296        0.48328422171744
C            0.11984481051024        1.59597071184205        0.13552039115397
C           -0.64660514683180        0.30006068718156        0.42525449042021
H           -0.52414832014589        0.06912067524945        1.49119018312353
C            0.00316112591391       -0.84175113682202       -0.37745943894816
H           -0.08593473763786       -0.62989951430363       -1.44779636599009
C            1.48746363494688       -0.95978970784571       -0.01669204575005
O           -0.64672575394067       -2.08987472444318       -0.20800433976525
C           -2.15891061775102        0.49296858191363        0.17011875451720
C           -2.53727403659748        0.42510890444225       -1.30793833640322
C           -3.00362745869812       -0.50747354581506        0.95925576334356
H            4.17424080202945       -0.61416573000403       -0.54236599906127
H            4.25827126977214        1.10997071821918       -0.17732361233291
H            3.84868313496862       -0.04166789073952        1.09453659821618
H            1.70780866243831        1.27329445565318        1.55245863358219
H            2.10823597471446        2.41107888551705        0.26437790244750
H           -0.32162186067875        2.41080588245067        0.71300195381356
H            0.02079498093364        1.84631632063223       -0.92268405888945
H            1.57860268694736       -1.19881182367014        1.04688691196857
H            1.91864241327187       -1.78676098367850       -0.58545011119003
H           -0.50011184015149       -2.38633162058365        0.70063450409876
H           -2.40897665353662        1.49687535814898        0.53634841467895
H           -3.58306690023313        0.69708238696335       -1.43207930126886
H           -2.40200428438863       -0.58461859269953       -1.68764262886261
H           -1.93629819994943        1.10942220135063       -1.90145212397418
H           -2.83023838232953       -1.51666427622199        0.59662390279060
H           -4.06003933482300       -0.27789382704486        0.83904951265640
H           -2.76495062909159       -0.46458671626938        2.01993033946975
31
 energy: -35.716031204572 gnorm: 0.000631357801 xtb: 6.7.1 (edcfbbe)
C            3.72441630517170        0.18781210226170        0.03957153642946
C            2.24545949325306        0.33351592153711       -0.30752374260506
H            2.15612547978368        0.55626930116781       -1.37677518871532
C            1.59951663646878        1.47081795420851        0.48156219938382
C            0.11953245045065        1.59540971249096        0.13553832716768
C           -0.64652913205071        0.29944552789003        0.42578536849582
H           -0.52393509297450        0.06796209502916        1.49149504547306
C            0.00237749122670       -0.84259044107681       -0.37705088498478
H           -0.08780321789482       -0.63168765329643       -1.44747426920373
C            1.48735394037065       -0.96006251191926       -0.01768837813698
O           -0.64697747305333       -2.09047840380011       -0.20572861959914
C           -2.15876465032822        0.49337011862195        0.17082823205784
C           -2.53707379403597        0.42687998948688       -1.30740717877342
C           -3.00413632837954       -0.50788586911076        0.95856984662282
H            4.17502495879777       -0.61459661684839       -0.53937228168009
H            4.25777751974074        1.11019694059769       -0.17661738726814
H            3.84643793513608       -0.03977538368521        1.09618573594717
H            1.70961692716950        1.27515418339507        1.55070004802814
H            2.10756865162445        2.41129501122731        0.26025977310093
H           -0.32158860839938        2.40983185337431        0.71370544058403
H            0.01934162301719        1.84550659546777       -0.92245795029608
H            1.57914330307528       -1.19920275640957        1.04566619109377
H            1.91819306212360       -1.78661899218381       -0.58719086514531
H           -0.49594347299560       -2.38796346939342        0.70251039787487
H           -2.40814673031459        1.49702593896190        0.53807654652407
H           -3.58275683370911        0.69914021664097       -1.43121386351504
H           -2.40195590647361       -0.58261548661916       -1.68736362232014
H           -1.93588833539837        1.11135923272334       -1.90027258029891
H           -2.83001807865877       -1.51651568338607        0.59464668154237
H           -4.06046854576799       -0.27821372777420        0.83756135030234
H           -2.76621426214155       -0.46611858604897        2.01926767659739
31
 energy: -35.716032254031 gnorm: 0.001130073673 xtb: 6.7.1 (edcfbbe)
C            3.72431449894258        0.18834882378273        0.04165287006464
C            2.24581229748408        0.33347483825508       -0.30942633413300
H            2.15869040423798        0.55585533893845       -1.37886349951336
C            1.59985312758751        1.47136307399441        0.47873276426373
C            0.11890766158905        1.59456064817459        0.13607976059479
C           -0.64627927339724        0.29816266206357        0.42622566562099
H           -0.52342482246589        0.06572229781869        1.49170655189688
C            0.00188231401526       -0.84413491241045       -0.37667072527603
H           -0.09031304652844       -0.63511546278988       -1.44735794722533
C            1.48812318118502       -0.96053003584073       -0.02032279085351
O           -0.64546866829256       -2.09219409849691       -0.20136943207352
C           -2.15854032118949        0.49331479380840        0.17172868517555
C           -2.53675542779013        0.42882890333934       -1.30680851153107
C           -3.00521773925853       -0.50850155711216        0.95774309832629
H            4.17693255740279       -0.61523680145229       -0.53405986797573
H            4.25764840542421        1.11064605523780       -0.17495621884394
H            3.84274084644829       -0.03661772654515        1.09926468284582
H            1.71295533265281        1.27794321844508        1.54790482381705
H            2.10639149016444        2.41184524440096        0.25395244909152
H           -0.32159691306562        2.40788009835947        0.71622241983980
H            0.01627032940320        1.84555087117360       -0.92137868681445
H            1.58156594256573       -1.20135185762959        1.04244175780299
H            1.91818690259022       -1.78586319224870       -0.59220943367504
H           -0.49603368374552       -2.38579680858391        0.70716186295699
H           -2.40692390955481        1.49671798651276        0.54025913622956
H           -3.58210358131684        0.70244238940161       -1.43039461990523
H           -2.40277022001912       -0.58057706689621       -1.68721079649041
H           -1.93466015202388        1.11297657194703       -1.89907981704375
H           -2.83194654561874       -1.51640858073118        0.59147083439362
H           -4.06128230406787       -0.27726867470276        0.83694479150918
H           -2.76727336852473       -0.46936992668330        2.01841011160841
31
 energy: -35.716033596417 gnorm: 0.000204535913 xtb: 6.7.1 (edcfbbe)
C            3.72411330132863        0.18787995202773        0.04156864251901
C            2.24568070919322        0.33323493156697       -0.30926150913625
H            2.15855486777293        0.55518908688692       -1.37885332410158
C            1.59972177319237        1.47153297720695        0.47832205174601
C            0.11887487361113        1.59498188047785        0.13543145382739
C           -0.64650782981365        0.29890161126303        0.42648508303228
H           -0.52354373363528        0.06736917893958        1.49223559930194
C            0.00163761973872       -0.84390363086620       -0.37603602186601
H           -0.09072154228287       -0.63464296609825       -1.44667534519028
C            1.48783128813585       -0.96047028251940       -0.01970950585511
O           -0.64616470445673       -2.09163280763332       -0.20089641109740
C           -2.15882183289516        0.49327006284974        0.17195522937707
C           -2.53694061447543        0.42979459597366       -1.30662997971396
C           -3.00484649729466       -0.50948387519383        0.95724137274804
H            4.17630873773647       -0.61626728877266       -0.53374329641933
H            4.25808410836042        1.10969859510598       -0.17567528164510
H            3.84291927148215       -0.03660324692237        1.09929067245707
H            1.71252624139657        1.27850133826425        1.54768892891668
H            2.10654546080389        2.41188424623608        0.25357224542334
H           -0.32144933325903        2.40894632658349        0.71496438705188
H            0.01636036602650        1.84560649107348       -0.92225659501777
H            1.58143028927286       -1.20110844358989        1.04319905440881
H            1.91770260954251       -1.78622373703880       -0.59124896589840
H           -0.49244138602513       -2.38804484399672        0.70701315639236
H           -2.40798237017272        1.49625987491729        0.54120416186365
H           -3.58234101459995        0.70337759075409       -1.43018390563114
H           -2.40281548870785       -0.57928972527174       -1.68811874725617
H           -1.93497159770981        1.11460919172937       -1.89844385984589
H           -2.83048123931691       -1.51723763732234        0.59111539804376
H           -4.06109855899473       -0.27929080123000        0.83606071398945
H           -2.76747845912056       -0.47017153187059        2.01817818225905
31
 energy: -35.716033845291 gnorm: 0.000074835695 xtb: 6.7.1 (edcfbbe)
C            3.72406809331857        0.18776155786898        0.04155996364469
C            2.24570184597208        0.33323573340522       -0.30912713664800
H            2.15853237340936        0.55504704223762       -1.37875643198689
C            1.59966044184551        1.47163392432896        0.47823253787557
C            0.11890475273353        1.59509450028007        0.13501768018683
C           -0.64653417914877        0.29915186118432        0.42649872424192
H           -0.52351493298069        0.06810970295419        1.49234155473534
C            0.00162154945307       -0.84387127738662       -0.37577700526363
H           -0.09076929477747       -0.63466108741406       -1.44641614261579
C            1.48772085325930       -0.96032530914716       -0.01945314708499
O           -0.64623360212146       -2.09157103786717       -0.20056925389088
C           -2.15887172397562        0.49319459477105        0.17199466609211
C           -2.53706831342700        0.43021718816278       -1.30653819176908
C           -3.00448575364603       -0.51009894297588        0.95696313505429
H            4.17583905472598       -0.61678365763289       -0.53354195255684
H            4.25840206081569        1.10926610155033       -0.17613530014686
H            3.84308996302871       -0.03642308985432        1.09931357966257
H            1.71212733886310        1.27862268600740        1.54765000443718
H            2.10666059241740        2.41193077948733        0.25362210233825
H           -0.32141043661955        2.40928423788731        0.71425465185421
H            0.01651044548889        1.84553702173191       -0.92274745094346
H            1.58144687018164       -1.20096083408200        1.04346501936319
H            1.91753485312338       -1.78617088094500       -0.59091368858532
H           -0.49255733206108       -2.38791713062490        0.70728043277232
H           -2.40833868692361        1.49597408950946        0.54161881169580
H           -3.58241571255691        0.70405287237456       -1.43000898145421
H           -2.40318975832925       -0.57873248029911       -1.68845027733546
H           -1.93497223057492        1.11506544396249       -1.89814446550252
H           -2.82995884178866       -1.51774961884816        0.59059650627559
H           -4.06082038908104       -0.28016980058724        0.83607279674089
H           -2.76699458579037       -0.47107707650911        2.01789084349661
31
 energy: -35.716034066173 gnorm: 0.000115747745 xtb: 6.7.1 (edcfbbe)