22
 energy: -54.092302164184 gnorm: 0.028387123899 xtb: 6.7.1 (edcfbbe)
C            5.16143913670970        0.69586714154466        0.00132978128341
C            5.16143889252861       -0.69586910022433        0.00107883321951
C            3.95757293891610       -1.39756504942642        0.00028086161230
C            2.76588558621273       -0.69401747780588       -0.00029748504321
C            2.76588579339414        0.69401717801026       -0.00009737222407
C            3.95757352973866        1.39756387637670        0.00075159084507
O            1.58034213182320        1.42340246633422       -0.00085937322192
C            0.41981886189237        0.69713842914404       -0.00058171309197
C            0.41981870738008       -0.69713761152794       -0.00070166662826
C           -0.78634559173660       -1.39144310317374       -0.00033405710685
C           -2.00212342953430       -0.69805706765444        0.00001636335995
C           -2.00212351612287        0.69805906349912        0.00005961943059
C           -0.78634518852758        1.39144449872286       -0.00022736136061
Cl          -0.74247822104094        3.12316029811657       -0.00016195876551
Cl          -3.49415280414994        1.57542196229413        0.00048781258861
Cl          -3.49415304310641       -1.57542038216166        0.00045153272010
Cl          -0.74247931586751       -3.12315886330105       -0.00038239389535
O            1.58034151674043       -1.42340213578619       -0.00118441520091
H            6.09686958049399        1.24407887455890        0.00196700378872
H            6.09686913610697       -1.24408134786619        0.00150121175880
H            3.92983515737254       -2.48187286369165        0.00007174511355
H            3.92983622265345        2.48187175326380        0.00090942769497
22
 energy: -54.093271138924 gnorm: 0.013577085495 xtb: 6.7.1 (edcfbbe)
C            5.15440280101450        0.69226238054537        0.00130960942899
C            5.15440261967397       -0.69226427419731        0.00107310729153
C            3.95587431933771       -1.39251642201781        0.00028010140863
C            2.76158873669240       -0.69484889245981       -0.00031235401015
C            2.76158889310751        0.69484867425481       -0.00012083814299
C            3.95587486102813        1.39251530284523        0.00072097174518
O            1.57896109052999        1.42454945733387       -0.00079746052682
C            0.42634002255263        0.69875799022182       -0.00055814975828
C            0.42633983370937       -0.69875727405801       -0.00067028152875
C           -0.78194915425954       -1.38776342248977       -0.00033275268378
C           -1.99209942861703       -0.69486006481641        0.00000928095836
C           -1.99209935483788        0.69486186849667        0.00005700913547
C           -0.78194866309753        1.38776464032706       -0.00020351763126
Cl          -0.75138398138312        3.11277890759434       -0.00014229703600
Cl          -3.48025583796236        1.56501395280321        0.00046299179850
Cl          -3.48025637141368       -1.56501203537109        0.00040330143477
Cl          -0.75138517478367       -3.11277766452764       -0.00040869934841
O            1.57896055556671       -1.42454909619517       -0.00110904681891
H            6.08607798949605        1.23636767424522        0.00194417754734
H            6.08607762044958       -1.23637007358910        0.00150405188471
H            3.92910681191984       -2.47080478846183        0.00009090282741
H            3.92910789315323        2.47080369876214        0.00087787890142
22
 energy: -54.093443669290 gnorm: 0.004336816764 xtb: 6.7.1 (edcfbbe)
C            5.15179297085430        0.69123781431601        0.00126890917449
C            5.15179283555372       -0.69123960343091        0.00105225013166
C            3.95462689695903       -1.39032305269587        0.00028411669403
C            2.75853983094175       -0.69557262259861       -0.00029398063033
C            2.75853998097022        0.69557232175691       -0.00011557653296
C            3.95462737723778        1.39032196845835        0.00068850043812
O            1.57770513897177        1.42509604524414       -0.00071435918615
C            0.43048829140492        0.70006988479537       -0.00051899609816
C            0.43048804858982       -0.70006925541217       -0.00062894188171
C           -0.77943860122755       -1.38638562834531       -0.00034245083073
C           -1.98867268146114       -0.69401582519319       -0.00001633479357
C           -1.98867246834706        0.69401751112416        0.00004302078146
C           -0.77943802722588        1.38638675443278       -0.00018650653077
Cl          -0.75386709256069        3.10565686280952       -0.00011033461935
Cl          -3.47249871143788        1.56031325373592        0.00043220646391
Cl          -3.47249941536955       -1.56031106950041        0.00033639118752
Cl          -0.75386843196481       -3.10565572646863       -0.00043731724158
O            1.57770460578836       -1.42509576768765       -0.00101159443039
H            6.08170612223243        1.23432098380886        0.00190002394734
H            6.08170581173227       -1.23432324247298        0.00149792954998
H            3.92628128409321       -2.46629898755663        0.00011522091295
H            3.92628231614180        2.46629792012610        0.00083581037118
22
 energy: -54.093457325234 gnorm: 0.001828335394 xtb: 6.7.1 (edcfbbe)
C            5.15206367908248        0.69148905053402        0.00123957685891
C            5.15206354621073       -0.69149078234192        0.00103785843694
C            3.95446234561046       -1.39022645955748        0.00029527392866
C            2.75815523912975       -0.69569332715988       -0.00026204188336
C            2.75815540711226        0.69569293524701       -0.00009258388787
C            3.95446280074135        1.39022537972186        0.00067474446361
O            1.57751595379602        1.42506753218926       -0.00065406980300
C            0.43092578406068        0.70031060463653       -0.00048587098435
C            0.43092551347685       -0.70031000567011       -0.00059828428778
C           -0.77920514357206       -1.38651872229572       -0.00034739084534
C           -1.98939133080749       -0.69432590153879       -0.00003927737860
C           -1.98939106680003        0.69432757106322        0.00003049477587
C           -0.77920453726699        1.38651984077843       -0.00017561783168
Cl          -0.75313993426988        3.10421265017247       -0.00008847166573
Cl          -3.47154675714192        1.56028707454353        0.00040307401229
Cl          -3.47154749111465       -1.56028480533036        0.00027774395515
Cl          -0.75314134868801       -3.10421152900841       -0.00045601613089
O            1.57751539620555       -1.42506733144783       -0.00094389358162
H            6.08194211577672        1.23507297253780        0.00184623961132
H            6.08194180987974       -1.23507514474012        0.00147269700602
H            3.92488156323632       -2.46653407513532        0.00013433026175
H            3.92488253721891        2.46653301204758        0.00080947184665
22
 energy: -54.093452136039 gnorm: 0.003375734398 xtb: 6.7.1 (edcfbbe)
C            5.15246974142475        0.69186590486104        0.00119557838555
C            5.15246961219626       -0.69186755070844        0.00101627089486
C            3.95421551858760       -1.39008156984989        0.00031200978061
C            2.75757835141175       -0.69587438400178       -0.00021413376292
C            2.75757854632532        0.69587385548217       -0.00005809492023
C            3.95421593599669        1.39008049661711        0.00065411050184
O            1.57723217603238        1.42502476260694       -0.00056363572829
C            0.43158202304431        0.70067168439827       -0.00043618331363
C            0.43158171080740       -0.70067113105702       -0.00055229789689
C           -0.77885495708881       -1.38671836322132       -0.00035480086725
C           -1.99046930482702       -0.69479101605720       -0.00007369125613
C           -1.99046896447947        0.69479266097180        0.00001170576748
C           -0.77885430232864        1.38671947029692       -0.00015928478305
Cl          -0.75204919683367        3.10204633121689       -0.00005567723531
Cl          -3.47011882569797        1.56024780575493        0.00035937533487
Cl          -3.47011960473229       -1.56024540907529        0.00018977310658
Cl          -0.75205072377281       -3.10204523281808       -0.00048406446486
O            1.57723158183135       -1.42502467708812       -0.00084234230847
H            6.08229610609315        1.23620095563121        0.00176556310728
H            6.08229580710096       -1.23620299814083        0.00143484819008
H            3.92278198195098       -2.46688670650335        0.00016299428494
H            3.92278286883459        2.46688564992981        0.00076996405987
22
 energy: -54.093459374299 gnorm: 0.001179268588 xtb: 6.7.1 (edcfbbe)
C            5.15251936530648        0.69176748964781        0.00118945297602
C            5.15251921737466       -0.69176915569993        0.00100968143078
C            3.95445572896513       -1.39022281473879        0.00031550529222
C            2.75807323199234       -0.69573154532484       -0.00020450697323
C            2.75807343078322        0.69573104950487       -0.00004798401268
C            3.95445617136115        1.39022173815859        0.00065822932709
O            1.57748413997263        1.42499090203646       -0.00055859298876
C            0.43092440078046        0.70040434085213       -0.00043108837698
C            0.43092410052999       -0.70040377091741       -0.00054784518946
C           -0.77917603223899       -1.38676284334166       -0.00035247334823
C           -1.99041433551970       -0.69468070228742       -0.00007686851796
C           -1.99041401875114        0.69468236229211        0.00000889228001
C           -0.77917539439092        1.38676396053507       -0.00015800057752
Cl          -0.75233044721742        3.10319959974841       -0.00005518820538
Cl          -3.47099704209289        1.56053532123860        0.00034994420007
Cl          -3.47099779581488       -1.56053297399293        0.00017968423972
Cl          -0.75233193659514       -3.10319848961411       -0.00048092198479
O            1.57748355169332       -1.42499078939774       -0.00083833298226
H            6.08245782365484        1.23593277437579        0.00175376207488
H            6.08245749954517       -1.23593485249069        0.00142277206781
H            3.92366675763809       -2.46701758709675        0.00016641738055
H            3.92366766490042        2.46701652575818        0.00077544876504
22
 energy: -54.093460120964 gnorm: 0.000536570682 xtb: 6.7.1 (edcfbbe)
C            5.15244824494887        0.69163302502925        0.00115345968735
C            5.15244806407702       -0.69163469150607        0.00098438915426
C            3.95463431939021       -1.39027315954288        0.00033070888589
C            2.75839442255641       -0.69562750474729       -0.00016047142890
C            2.75839463796041        0.69562702412248       -0.00000966335613
C            3.95463479715179        1.39027208316934        0.00065559259063
O            1.57768686608698        1.42501208060658       -0.00049375440725
C            0.43045460403108        0.70019014853110       -0.00038947813800
C            0.43045430756473       -0.70018957263634       -0.00050868023673
C           -0.77934827450412       -1.38678595043462       -0.00034979604389
C           -1.99020721533976       -0.69454160305085       -0.00010354359300
C           -1.99020690551569        0.69454326694934       -0.00000928917753
C           -0.77934764385040        1.38678706868394       -0.00014416571723
Cl          -0.75277236739570        3.10395039140637       -0.00003517859962
Cl          -3.47139453075992        1.56052535756222        0.00029966674882
Cl          -3.47139527352231       -1.56052302993097        0.00010596416776
Cl          -0.75277383058117       -3.10394928148096       -0.00048676901355
O            1.57768628014295       -1.42501196171119       -0.00076985776495
H            6.08241186813576        1.23559819137422        0.00168117749586
H            6.08241149902863       -1.23560027965775        0.00137145110502
H            3.92435564382060       -2.46694219372302        0.00018919278189
H            3.92435656845043        2.46694113023290        0.00076703173623
22
 energy: -54.093460335429 gnorm: 0.000040560687 xtb: 6.7.1 (edcfbbe)
C            5.15245907052549        0.69167207324078        0.00113290107937
C            5.15245888266087       -0.69167372868042        0.00097015372225
C            3.95458280939469       -1.39025764381025        0.00033720321304
C            2.75828352619385       -0.69565935872732       -0.00013820254331
C            2.75828374901332        0.69565886710425        0.00000895962258
C            3.95458329285448        1.39025657001073        0.00065157443577
O            1.57763808237511        1.42502291435233       -0.00045501706589
C            0.43059038894635        0.70025060592061       -0.00036649072817
C            0.43059008730925       -0.70025003562079       -0.00048667425022
C           -0.77927812771712       -1.38681137570355       -0.00034904091589
C           -1.99024891580429       -0.69458373728936       -0.00011830616537
C           -1.99024859701286        0.69458539577635       -0.00001956547385
C           -0.77927749193208        1.38681249108608       -0.00013666306679
Cl          -0.75269567611045        3.10370523772165       -0.00002242645167
Cl          -3.47120369784937        1.56046614924572        0.00027205986465
Cl          -3.47120444592306       -1.56046381072521        0.00006547759058
Cl          -0.75269714686235       -3.10370413174019       -0.00049071090541
O            1.57763749180512       -1.42502280726012       -0.00072834672162
H            6.08240689806929        1.23568992798664        0.00164423327907
H            6.08240651871670       -1.23569200308273        0.00134684269850
H            3.92412922751407       -2.46694721405103        0.00020064151286
H            3.92413015570980        2.46694615349161        0.00075938414643
22
 energy: -54.093460152947 gnorm: 0.000527981441 xtb: 6.7.1 (edcfbbe)
C            5.15248968662693        0.69171140245227        0.00117939318018
C            5.15248952357324       -0.69171306579635        0.00100443921626
C            3.95455287673539       -1.39028393214666        0.00032113071697
C            2.75820099170285       -0.69570316797366       -0.00019464328367
C            2.75820120045538        0.69570267817008       -0.00004058729537
C            3.95455333639791        1.39028285802936        0.00065603660886
O            1.57758145072178        1.42504477694545       -0.00054844905810
C            0.43073387220339        0.70031582330455       -0.00042316897781
C            0.43073357196220       -0.70031525294684       -0.00054096466683
C           -0.77923401580140       -1.38684757765951       -0.00035429050257
C           -1.99033806487949       -0.69464672126020       -0.00008321414640
C           -1.99033774538819        0.69464837933700        0.00000644392248
C           -0.77923337625898        1.38684869354208       -0.00015463993243
Cl          -0.75260773583146        3.10354259375422       -0.00005018046458
Cl          -3.47116433900688        1.56046896954074        0.00034602831344
Cl          -3.47116508984684       -1.56046662986038        0.00016519389266
Cl          -0.75260922516236       -3.10354148654284       -0.00048730079491
O            1.57758086363545       -1.42504465799730       -0.00082664896756
H            6.08245121833748        1.23579204900803        0.00173850758196
H            6.08245087271120       -1.23579413073531        0.00141714453382
H            3.92399765064543       -2.46700336057910        0.00017634786613
H            3.92399855834378        2.46700229866013        0.00077140913440
22
 energy: -54.093460338154 gnorm: 0.000015671757 xtb: 6.7.1 (edcfbbe)
C            5.15245084762967        0.69167200725619        0.00108840592278
C            5.15245063921124       -0.69167365258039        0.00093702654888
C            3.95458311086141       -1.39025858493878        0.00035136366713
C            2.75827995666130       -0.69565577266758       -0.00008646967469
C            2.75828019348175        0.69565527625044        0.00005430405671
C            3.95458361581004        1.39025751399192        0.00064680408334
O            1.57764034095106        1.42501440073312       -0.00036846622860
C            0.43057701952239        0.70024331822840       -0.00031387337161
C            0.43057671537017       -0.70024275077966       -0.00043615331509
C           -0.77927164141405       -1.38683232622545       -0.00034445123921
C           -1.99023547460184       -0.69458476441443       -0.00015112407534
C           -1.99023515245392        0.69458641989093       -0.00004398325998
C           -0.77927100590578        1.38683343939141       -0.00012003794981
Cl          -0.75270437472466        3.10372687735394        0.00000364244207
Cl          -3.47117650348405        1.56044754311392        0.00020400324519
Cl          -3.47117725138967       -1.56044520214682       -0.00002624963677
Cl          -0.75270583580065       -3.10372577442611       -0.00049377113194
O            1.57763974624472       -1.42501430536218       -0.00063724998625
H            6.08240251592298        1.23568581278591        0.00155888814958
H            6.08240210664495       -1.23568787836544        0.00128379006088
H            3.92411778229167       -2.46694720976064        0.00022337090609
H            3.92411873104807        2.46694615191708        0.00074821766357
22
 energy: -54.093460151057 gnorm: 0.000531199816 xtb: 6.7.1 (edcfbbe)
C            5.15241764652579        0.69163923544853        0.00094845738866
C            5.15241737303351       -0.69164085479158        0.00083136656704
C            3.95461640008180       -1.39024785932940        0.00039550336143
C            2.75835997101006       -0.69560988023140        0.00007832922994
C            2.75836024899004        0.69560937481664        0.00019986392231
C            3.95461697200727        1.39024679398931        0.00063372387224
O            1.57770175684114        1.42498674034998       -0.00009307616662
C            0.43041918107189        0.70016911170771       -0.00014658270859
C            0.43041887198128       -0.70016854917418       -0.00027533825671
C           -0.77930943807251       -1.38683206032208       -0.00032840712335
C           -1.99014326475826       -0.69453119799048       -0.00025486305980
C           -1.99014294006078        0.69453284969468       -0.00012231331324
C           -0.77930880880312        1.38683316934254       -0.00006787176851
Cl          -0.75279674854666        3.10393857581589        0.00008469940632
Cl          -3.47121966951925        1.56043052983433       -0.00001528617367
Cl          -3.47122040975943       -1.56042818829899       -0.00031730202652
Cl          -0.75279816836766       -3.10393747888229       -0.00050033430690
O            1.57770115080301       -1.42498667836515       -0.00034826083725
H            6.08237176288863        1.23558663274155        0.00128755126372
H            6.08237126120611       -1.23558867561979        0.00107976679275
H            3.92424595935570       -2.46691080898137        0.00029282072185
H            3.92424697396824        2.46690975749132        0.00071554009184
22
 energy: -54.093460338236 gnorm: 0.000015291698 xtb: 6.7.1 (edcfbbe)
C            5.15245778772479        0.69167705243889        0.00107964566986
C            5.15245757705088       -0.69167869921585        0.00093046363050
C            3.95458071258573       -1.39026283868939        0.00035361987577
C            2.75827945883221       -0.69565608104082       -0.00007648647083
C            2.75827969752511        0.69565558520763        0.00006307732395
C            3.95458121999210        1.39026176733671        0.00064543382599
O            1.57764240514273        1.42502158877987       -0.00034982603118
C            0.43058261005991        0.70024403079991       -0.00030426038261
C            0.43058230663008       -0.70024346186026       -0.00042696309304
C           -0.77927250055555       -1.38682747549866       -0.00034475512465
C           -1.99024201836759       -0.69458650543646       -0.00015830630910
C           -1.99024169896588        0.69458816262226       -0.00004957673123
C           -0.77927186787682        1.38682859041824       -0.00011802966408
Cl          -0.75270122897224        3.10372249416050        0.00000829945079
Cl          -3.47119815400163        1.56045200683229        0.00019231472465
Cl          -3.47119889512427       -1.56044966808487       -0.00004251094006
Cl          -0.75270268307359       -3.10372138941511       -0.00049467584228
O            1.57764180978341       -1.42502149342805       -0.00061779449967
H            6.08241274493623        1.23569175197308        0.00154287099494
H            6.08241233296378       -1.23569382063070        0.00127208835670
H            3.92412175696046       -2.46695459125611        0.00022750622786
H            3.92412270862697        2.46695353323264        0.00074585188466
22
 energy: -54.093460145535 gnorm: 0.000528020281 xtb: 6.7.1 (edcfbbe)
C            5.15250061061939        0.69171754207768        0.00119087076976
C            5.15250045695901       -0.69171921529351        0.00101386098760
C            3.95454716386527       -1.39028491558398        0.00031728594186
C            2.75820047972825       -0.69570308401087       -0.00020816582449
C            2.75820068331554        0.69570259678670       -0.00005292536817
C            3.95454761305078        1.39028383840287        0.00065565191558
O            1.57758417778454        1.42505693158614       -0.00056763132908
C            0.43074486096415        0.70031818493478       -0.00043804404998
C            0.43074456344047       -0.70031760921965       -0.00055552614058
C           -0.77923603946010       -1.38682942168539       -0.00035841751363
C           -1.99034577049973       -0.69464561546490       -0.00007649626470
C           -1.99034545860683        0.69464727962288        0.00001155429878
C           -0.77923540635366        1.38683054358972       -0.00016093103555
Cl          -0.75260363121006        3.10352111197052       -0.00005677561314
Cl          -3.47119276750768        1.56047723314040        0.00036790415072
Cl          -3.47119350305990       -1.56047489788797        0.00019146143573
Cl          -0.75260511130777       -3.10351999834631       -0.00048850281211
O            1.57758359189670       -1.42505680605175       -0.00084684558088
H            6.08246224191879        1.23580004275087        0.00176072223417
H            6.08246191150845       -1.23580213757640        0.00143532109079
H            3.92400225970098       -2.46700769695551        0.00017116467036
H            3.92400315513021        2.46700663245945        0.00077245091390
22
 energy: -54.093460338839 gnorm: 0.000018506345 xtb: 6.7.1 (edcfbbe)
C            5.15244660229789        0.69167207939399        0.00104136369449
C            5.15244637528081       -0.69167371581461        0.00090006995654
C            3.95458156450864       -1.39025671634666        0.00036518744867
C            2.75827584378522       -0.69565478399958       -0.00003119878528
C            2.75827609298951        0.69565428364236        0.00010391656703
C            3.95458208976062        1.39025564747609        0.00064381966519
O            1.57764098433395        1.42501384403954       -0.00027471929469
C            0.43057714467737        0.70024203360240       -0.00025733330789
C            0.43057683948948       -0.70024146941886       -0.00038144944669
C           -0.77926887206469       -1.38683623390176       -0.00033797784983
C           -1.99022784464015       -0.69458339387597       -0.00018570728212
C           -1.99022752142683        0.69458504794715       -0.00007111120516
C           -0.77926823773092        1.38683734499485       -0.00010290601036
Cl          -0.75271031804473        3.10372255666231        0.00002947872474
Cl          -3.47116097764475        1.56043414153270        0.00012754758639
Cl          -3.47116172296024       -1.56043179873054       -0.00012371714669
Cl          -0.75271176883410       -3.10372145640100       -0.00049378693933
O            1.57764038605247       -1.42501375987889       -0.00053932139328
H            6.08239802260535        1.23568073540771        0.00146834972933
H            6.08239758609450       -1.23568279158025        0.00121300737652
H            3.92411142050633       -2.46694349519067        0.00024481325596
H            3.92411239284107        2.46694243968545        0.00073966153338
22
 energy: -54.093460146068 gnorm: 0.000529168243 xtb: 6.7.1 (edcfbbe)
C            5.15240108435708        0.69163505116686        0.00082216979177
C            5.15240075875652       -0.69163664133787        0.00073051984342
C            3.95461997072653       -1.39024533829532        0.00043180823341
C            2.75835414515342       -0.69560798116946        0.00022689832125
C            2.75835445667187        0.69560746417237        0.00033413296414
C            3.95462059911848        1.39024428075658        0.00062760369692
O            1.57770141164282        1.42497215433608        0.00015564167171
C            0.43040615053314        0.70016398413908        0.00000711676806
C            0.43040583699554       -0.70016343457408       -0.00012626988823
C           -0.77930295858514       -1.38685855431608       -0.00030747762146
C           -1.99012365115867       -0.69453047993826       -0.00034629168450
C           -1.99012331902850        0.69453212420704       -0.00019485201881
C           -0.77930232818757        1.38685965334889       -0.00001995222559
Cl          -0.75280877699686        3.10395303737661        0.00015431407138
Cl          -3.47116537996914        1.56039740142585       -0.00022666124323
Cl          -3.47116612576584       -1.56039504994470       -0.00058174752457
Cl          -0.75281017758618       -3.10395195199121       -0.00049608271401
O            1.57770079647621       -1.42497212586420       -0.00008896044886
H            6.08235560449261        1.23557129689855        0.00104481318766
H            6.08235502577776       -1.23557330748927        0.00088692770793
H            3.92422593905330       -2.46690243417923        0.00034876809695
H            3.92422701939943        2.46690139051752        0.00069556789159
22
 energy: -54.093460339570 gnorm: 0.000010659694 xtb: 6.7.1 (edcfbbe)
C            5.15245069473344        0.69167520579492        0.00102084957296
C            5.15245046463817       -0.69167684375519        0.00088346682825
C            3.95458188198012       -1.39026132665124        0.00037018470441
C            2.75827637750177       -0.69565548075638       -0.00000740119974
C            2.75827662953071        0.69565497956415        0.00012565704041
C            3.95458241024551        1.39026025695895        0.00064242904891
O            1.57764201047425        1.42501648275756       -0.00023243404769
C            0.43057837416376        0.70024240932298       -0.00023297220691
C            0.43057807042776       -0.70024184405754       -0.00035797145718
C           -0.77926987264712       -1.38683783152788       -0.00033585403809
C           -1.99023345105508       -0.69458607230188       -0.00020135799423
C           -1.99023313283099        0.69458772987021       -0.00008383953078
C           -0.77926924412224        1.38683894490424       -0.00009650299604
Cl          -0.75270694171251        3.10372728113809        0.00003965219497
Cl          -3.47117505221191        1.56043831651963        0.00009508544620
Cl          -3.47117578679176       -1.56043597263506       -0.00016444698019
Cl          -0.75270837949650       -3.10372617856736       -0.00049309219601
O            1.57764141159761       -1.42501640111402       -0.00049591740112
H            6.08240597062809        1.23568490275392        0.00143016434159
H            6.08240553060416       -1.23568696262706        0.00118253069809
H            3.92411357049818       -2.46695049591517        0.00025321194042
H            3.92411454572138        2.46694943956991        0.00073654510871
22
 energy: -54.093460144845 gnorm: 0.000527895982 xtb: 6.7.1 (edcfbbe)
C            5.15250260950807        0.69171983090886        0.00115761229601
C            5.15250246146391       -0.69172151547950        0.00098703073092
C            3.95454818814898       -1.39028996869403        0.00032561207202
C            2.75820058116050       -0.69570395965451       -0.00016940594413
C            2.75820078452222        0.69570346997227       -0.00001715645961
C            3.95454862973988        1.39028888574387        0.00065379439804
O            1.57758513948741        1.42505936859457       -0.00049804410563
C            0.43074599678299        0.70031856698612       -0.00039762308949
C            0.43074570445276       -0.70031798602776       -0.00051700090148
C           -0.77923673671986       -1.38683282759829       -0.00035477431886
C           -1.99034823872876       -0.69464804095868       -0.00010191364257
C           -1.99034794303299        0.69464971792308       -0.00000886836246
C           -0.77923612178255        1.38683395829562       -0.00014992141679
Cl          -0.75260376467147        3.10353061810158       -0.00004206103539
Cl          -3.47120589833525        1.56048082471802        0.00031527062130
Cl          -3.47120660162092       -1.56047848218794        0.00012453002884