      -----------------------------------------------------------      
     |                   =====================                   |     
     |                           x T B                           |     
     |                   =====================                   |     
     |                         S. Grimme                         |     
     |          Mulliken Center for Theoretical Chemistry        |     
     |                    University of Bonn                     |     
      -----------------------------------------------------------      

   * xtb version 6.7.1 (edcfbbe) compiled by 'albert@albert-system' on 2024-07-22

   xtb is free software: you can redistribute it and/or modify it under
   the terms of the GNU Lesser General Public License as published by
   the Free Software Foundation, either version 3 of the License, or
   (at your option) any later version.
   
   xtb is distributed in the hope that it will be useful,
   but WITHOUT ANY WARRANTY; without even the implied warranty of
   MERCHANTABILITY or FITNESS FOR A PARTICULAR PURPOSE.  See the
   GNU Lesser General Public License for more details.
   
   Cite this work as:
   * C. Bannwarth, E. Caldeweyher, S. Ehlert, A. Hansen, P. Pracht,
     J. Seibert, S. Spicher, S. Grimme, WIREs Comput. Mol. Sci., 2020, 11,
     e01493. DOI: 10.1002/wcms.1493
   
   for GFN2-xTB:
   * C. Bannwarth, S. Ehlert and S. Grimme., J. Chem. Theory Comput., 2019,
     15, 1652-1671. DOI: 10.1021/acs.jctc.8b01176
   for GFN1-xTB:
   * S. Grimme, C. Bannwarth, P. Shushkov, J. Chem. Theory Comput., 2017,
     13, 1989-2009. DOI: 10.1021/acs.jctc.7b00118
   for GFN0-xTB:
   * P. Pracht, E. Caldeweyher, S. Ehlert, S. Grimme, ChemRxiv, 2019, preprint.
     DOI: 10.26434/chemrxiv.8326202.v1
   for GFN-FF:
   * S. Spicher and S. Grimme, Angew. Chem. Int. Ed., 2020, 59, 15665-15673.
     DOI: 10.1002/anie.202004239
   
   for ALPB and GBSA implicit solvation:
   * S. Ehlert, M. Stahn, S. Spicher, S. Grimme, J. Chem. Theory Comput.,
     2021, 17, 4250-4261. DOI: 10.1021/acs.jctc.1c00471
   
   for ddCOSMO and CPCM-X implicit solvation:
   * M. Stahn, S. Ehlert, S. Grimme, J. Phys. Chem. A,
     2023, XX, XXXX-XXXX. DOI: 10.1021/acs.jpca.3c04382
   
   for DFT-D4:
   * E. Caldeweyher, C. Bannwarth and S. Grimme, J. Chem. Phys., 2017,
     147, 034112. DOI: 10.1063/1.4993215
   * E. Caldeweyher, S. Ehlert, A. Hansen, H. Neugebauer, S. Spicher,
     C. Bannwarth and S. Grimme, J. Chem. Phys., 2019, 150, 154122.
     DOI: 10.1063/1.5090222
   * E. Caldeweyher, J.-M. Mewes, S. Ehlert and S. Grimme, Phys. Chem. Chem. Phys.
     2020, 22, 8499-8512. DOI: 10.1039/D0CP00502A
   
   for sTDA-xTB:
   * S. Grimme and C. Bannwarth, J. Chem. Phys., 2016, 145, 054103.
     DOI: 10.1063/1.4959605
   
   in the mass-spec context:
   * V. Asgeirsson, C. Bauer and S. Grimme, Chem. Sci., 2017, 8, 4879.
     DOI: 10.1039/c7sc00601b
   * J. Koopman and S. Grimme, ACS Omega 2019, 4, 12, 15120-15133.
     DOI: 10.1021/acsomega.9b02011
   
   for metadynamics refer to:
   * S. Grimme, J. Chem. Theory Comput., 2019, 155, 2847-2862
     DOI: 10.1021/acs.jctc.9b00143
   
   for SPH calculations refer to:
   * S. Spicher and S. Grimme, J. Chem. Theory Comput., 2021, 17, 1701-1714
     DOI: 10.1021/acs.jctc.0c01306
   
   for ONIOM refer to:
   * C. Plett, A. Katbashev, S. Ehlert, S. Grimme, M. Bursch,
     Phys. Chem. Chem. Phys., 2023, 25, 17860-17868. DOI: 10.1039/D3CP02178E
   
   for DIPRO refer to:
   * J. Kohn, N. Gildemeister, S. Grimme, D. Fazzi, A. Hansen,
     J. Chem. Phys., 2023, just accepted.
   
   for PTB refer to:
   * S. Grimme, M. Mueller, A. Hansen, J. Chem. Phys., 2023, 158, 124111.
     DOI: 10.1063/5.0137838
   
   with help from (in alphabetical order)
   P. Atkinson, C. Bannwarth, F. Bohle, G. Brandenburg, E. Caldeweyher
   M. Checinski, S. Dohm, S. Ehlert, S. Ehrlich, I. Gerasimov, C. Hölzer
   A. Katbashev, J. Kohn, J. Koopman, C. Lavigne, S. Lehtola, F. März, M. Müller,
   F. Musil, H. Neugebauer, J. Pisarek, C. Plett, P. Pracht, F. Pultar,
   J. Seibert, P. Shushkov, S. Spicher, M. Stahn, M. Steiner, T. Strunk,
   J. Stückrath, T. Rose, and J. Unsleber
   
 * started run on 2025/04/03 at 21:49:38.452     
   ID    Z sym.   atoms
    1    6 C      1-6
    2    8 O      7
    3   53 I      8
    4    1 H      9-13

           -------------------------------------------------
          |                Calculation Setup                |
           -------------------------------------------------

          program call               : /srv/scratch/z5358697/.xtb/bin/xtb xtb_rrho.coord --gfn2 --ohess vtight --chrg 0 --enso --norestart -I rrho-xcontrol-inp --parallel 1 --alpb water
          hostname                   : k163
          coordinate file            : xtb_rrho.coord
          omp threads                :                     1


           -------------------------------------------------
          |                 G F N 2 - x T B                 |
           -------------------------------------------------

        Reference                      10.1021/acs.jctc.8b01176
      * Hamiltonian:
        H0-scaling (s, p, d)           1.850000    2.230000    2.230000
        zeta-weighting                 0.500000
      * Dispersion:
        s8                             2.700000
        a1                             0.520000
        a2                             5.000000
        s9                             5.000000
      * Repulsion:
        kExp                           1.500000    1.000000
        rExp                           1.000000
      * Coulomb:
        alpha                          2.000000
        third order                    shell-resolved
        anisotropic                    true
        a3                             3.000000
        a5                             4.000000
        cn-shift                       1.200000
        cn-exp                         4.000000
        max-rad                        5.000000

      * Solvation model:               ALPB
        Solvent                        water
        Parameter file                 internal GFN2-xTB/ALPB
        Dielectric constant                8.0200E+01
        Reference state                gsolv [1 M gas/solution]
        Free energy shift                  1.0808E-03 Eh       6.7819E-01 kcal/mol
        Temperature                        2.9815E+02 K
        Density                            1.0000E+00 kg/L
        Solvent mass                       1.8000E+01 g/mol
        Interaction kernel             P16
        Born radius scaling (c1)           1.4744E+00
        Born radii integrator          GBOBC
        Born offset                        0.0000E+00 a0       0.0000E+00 AA
        H-bond correction              true
        Ion screening                  false
        Surface tension                    1.0000E-05 Eh       1.5569E+01 dyn/cm
        Grid points                               974 per atom

          ...................................................
          :                      SETUP                      :
          :.................................................:
          :  # basis functions                  43          :
          :  # atomic orbitals                  42          :
          :  # shells                           22          :
          :  # electrons                        42          :
          :  max. iterations                   250          :
          :  Hamiltonian                  GFN2-xTB          :
          :  restarted?                      false          :
          :  GBSA solvation                   true          :
          :  PC potential                    false          :
          :  electronic temp.          300.0000000     K    :
          :  accuracy                    1.0000000          :
          :  -> integral cutoff          0.2500000E+02      :
          :  -> integral neglect         0.1000000E-07      :
          :  -> SCF convergence          0.1000000E-05 Eh   :
          :  -> wf. convergence          0.1000000E-03 e    :
          :  Broyden damping             0.4000000          :
          :  net charge                          0          :
          :  unpaired electrons                  0          :
          ...................................................

 iter      E             dE          RMSdq      gap      omega  full diag
   1    -23.5564860 -0.235565E+02  0.700E+00    4.15       0.0  T
   2    -23.5654763 -0.899028E-02  0.440E+00    4.07       1.0  T
   3    -23.5549902  0.104860E-01  0.174E+00    3.98       1.0  T
   4    -23.5678688 -0.128785E-01  0.474E-01    4.04       1.0  T
   5    -23.5676155  0.253256E-03  0.379E-01    4.07       1.0  T
   6    -23.5679522 -0.336689E-03  0.181E-01    4.06       1.0  T
   7    -23.5680218 -0.696253E-04  0.116E-01    4.06       1.0  T
   8    -23.5680285 -0.669333E-05  0.501E-02    4.07       1.0  T
   9    -23.5680386 -0.100541E-04  0.133E-02    4.06       2.1  T
  10    -23.5680387 -0.143385E-06  0.491E-03    4.06       5.6  T
  11    -23.5680387 -0.128733E-07  0.226E-03    4.06      12.3  T
  12    -23.5680387 -0.132232E-07  0.140E-03    4.06      19.8  T
  13    -23.5680387 -0.107657E-08  0.771E-04    4.06      36.0  T
  14    -23.5680387 -0.122193E-08  0.203E-04    4.06     136.3  T

   *** convergence criteria satisfied after 14 iterations ***

         #    Occupation            Energy/Eh            Energy/eV
      -------------------------------------------------------------
         1        2.0000           -0.7471536             -20.3311
       ...           ...                  ...                  ...
        15        2.0000           -0.4794765             -13.0472
        16        2.0000           -0.4532284             -12.3330
        17        2.0000           -0.4423645             -12.0374
        18        2.0000           -0.4404495             -11.9852
        19        2.0000           -0.4210454             -11.4572
        20        2.0000           -0.4111401             -11.1877
        21        2.0000           -0.3963324             -10.7848 (HOMO)
        22                         -0.2470621              -6.7229 (LUMO)
        23                         -0.2352774              -6.4022
        24                         -0.2322214              -6.3191
        25                         -0.1166993              -3.1755
        26                         -0.0228025              -0.6205
       ...                                ...                  ...
        42                          0.6160076              16.7624
      -------------------------------------------------------------
                  HL-Gap            0.1492702 Eh            4.0619 eV
             Fermi-level           -0.3216972 Eh           -8.7538 eV

 SCC (total)                   0 d,  0 h,  0 min,  0.022 sec
 SCC setup                      ...        0 min,  0.001 sec (  2.851%)
 Dispersion                     ...        0 min,  0.000 sec (  0.299%)
 classical contributions        ...        0 min,  0.000 sec (  0.086%)
 integral evaluation            ...        0 min,  0.014 sec ( 65.304%)
 iterations                     ...        0 min,  0.004 sec ( 18.836%)
 molecular gradient             ...        0 min,  0.003 sec ( 12.014%)
 printout                       ...        0 min,  0.000 sec (  0.537%)

         :::::::::::::::::::::::::::::::::::::::::::::::::::::
         ::                     SUMMARY                     ::
         :::::::::::::::::::::::::::::::::::::::::::::::::::::
         :: total energy             -23.267748732240 Eh    ::
         :: total w/o Gsasa/hb       -23.262977089335 Eh    ::
         :: gradient norm              0.023518349541 Eh/a0 ::
         :: HOMO-LUMO gap              4.061850141882 eV    ::
         ::.................................................::
         :: SCC energy               -23.568018594984 Eh    ::
         :: -> isotropic ES            0.026525274565 Eh    ::
         :: -> anisotropic ES          0.001706581287 Eh    ::
         :: -> anisotropic XC          0.007847112669 Eh    ::
         :: -> dispersion             -0.012063715056 Eh    ::
         :: -> Gsolv                  -0.006721559714 Eh    ::
         ::    -> Gelec               -0.001949916809 Eh    ::
         ::    -> Gsasa               -0.001707745446 Eh    ::
         ::    -> Ghb                 -0.004144657157 Eh    ::
         ::    -> Gshift               0.001080759698 Eh    ::
         :: repulsion energy           0.300269862745 Eh    ::
         :: add. restraining           0.000000000000 Eh    ::
         :: total charge              -0.000000000000 e     ::
         :::::::::::::::::::::::::::::::::::::::::::::::::::::

      ----------------------------------------------------------- 
     |                   =====================                   |
     |                        A N C O P T                        |
     |                   =====================                   |
     |               Approximate Normal Coordinate               |
     |                Rational Function Optimizer                |
      ----------------------------------------------------------- 
      ----------------------------------------------------------- 
     |                   =====================                   |
     |                        A N C O P T                        |
     |                   =====================                   |
     |               Approximate Normal Coordinate               |
     |                Rational Function Optimizer                |
      ----------------------------------------------------------- 

          ...................................................
          :                      SETUP                      :
          :.................................................:
          :   optimization level         verytight          :
          :   max. optcycles                   260          :
          :   ANC micro-cycles                  20          :
          :   degrees of freedom                33          :
          :.................................................:
          :   RF solver                   davidson          :
          :   write xtbopt.log                true          :
          :   linear?                        false          :
          :   energy convergence         0.1000000E-06 Eh   :
          :   grad. convergence          0.2000000E-03 Eh/α :
          :   maxmium RF displ.          1.0000000          :
          :   Hlow (freq-cutoff)         0.1000000E-01      :
          :   Hmax (freq-cutoff)         5.0000000          :
          :   S6 in model hess.         20.0000000          :
          ...................................................

generating ANC from exact Hessian ...
Using Lindh-Hessian (1995)
 Shifting diagonal of input Hessian by   8.185079200476701E-003
 Lowest  eigenvalues of input Hessian
    0.000000    0.000000    0.000000    0.000000    0.000000    0.000000
    0.010000    0.010721    0.017027    0.026611    0.027360    0.046418
    0.048975    0.059169    0.082515    0.085082    0.095882    0.103468
 Highest eigenvalues
    1.406028    1.538362    1.698311    1.855136    1.933050    2.017950
 

........................................................................
.............................. CYCLE    1 ..............................
........................................................................

 iter      E             dE          RMSdq      gap      omega  full diag
   1    -23.5680387 -0.235680E+02  0.117E-04    4.06       0.0  T
   2    -23.5680387 -0.282370E-10  0.649E-05    4.06     427.3  T
   3    -23.5680387 -0.795453E-11  0.446E-05    4.06     621.3  T
     SCC iter.                  ...        0 min,  0.001 sec
     gradient                   ...        0 min,  0.003 sec
 * total energy  :   -23.2677487 Eh     change       -0.1541913E-09 Eh
   gradient norm :     0.0235193 Eh/α   predicted     0.0000000E+00 (-100.00%)
   displ. norm   :     0.0925138 α      lambda       -0.1182912E-02
   maximum displ.:     0.0696543 α      in ANC's #1, #17, #21, ...

........................................................................
.............................. CYCLE    2 ..............................
........................................................................

 iter      E             dE          RMSdq      gap      omega  full diag
   1    -23.5793880 -0.235794E+02  0.135E-01    4.11       0.0  T
   2    -23.5794101 -0.221323E-04  0.800E-02    4.12       1.0  T
   3    -23.5794145 -0.439418E-05  0.519E-02    4.11       1.0  T
   4    -23.5794171 -0.262878E-05  0.272E-02    4.12       1.0  T
   5    -23.5794184 -0.122399E-05  0.139E-02    4.12       2.0  T
   6    -23.5794183  0.246548E-07  0.110E-02    4.11       2.5  T
   7    -23.5794186 -0.257800E-06  0.326E-03    4.11       8.5  T
   8    -23.5794186 -0.377948E-07  0.169E-03    4.11      16.4  T
   9    -23.5794186 -0.465242E-08  0.811E-04    4.11      34.2  T
  10    -23.5794186 -0.955680E-09  0.256E-04    4.11     108.2  T
     SCC iter.                  ...        0 min,  0.002 sec
     gradient                   ...        0 min,  0.003 sec
 * total energy  :   -23.2684241 Eh     change       -0.6753863E-03 Eh
   gradient norm :     0.0106696 Eh/α   predicted    -0.5965176E-03 ( -11.68%)
   displ. norm   :     0.1256192 α      lambda       -0.3966597E-03
   maximum displ.:     0.1187090 α      in ANC's #1, #17, #10, ...

........................................................................
.............................. CYCLE    3 ..............................
........................................................................

 iter      E             dE          RMSdq      gap      omega  full diag
   1    -23.5863962 -0.235864E+02  0.144E-01    4.14       0.0  T
   2    -23.5864040 -0.778487E-05  0.824E-02    4.14       1.0  T
   3    -23.5864014  0.259751E-05  0.378E-02    4.14       1.0  T
   4    -23.5864075 -0.607855E-05  0.172E-02    4.14       1.6  T
   5    -23.5864076 -0.945292E-07  0.100E-02    4.14       2.8  T
   6    -23.5864078 -0.273458E-06  0.593E-03    4.14       4.7  T
   7    -23.5864079 -0.327999E-07  0.275E-03    4.14      10.1  T
   8    -23.5864079 -0.574571E-08  0.192E-03    4.14      14.4  T
   9    -23.5864079 -0.107635E-07  0.304E-04    4.14      91.2  T
  10    -23.5864079 -0.147722E-09  0.191E-04    4.14     145.2  T
     SCC iter.                  ...        0 min,  0.002 sec
     gradient                   ...        0 min,  0.003 sec
 * total energy  :   -23.2684210 Eh     change        0.3105276E-05 Eh
   gradient norm :     0.0068014 Eh/α   predicted    -0.2014617E-03 (*******%)
   displ. norm   :     0.0888531 α      lambda       -0.2833011E-03
   maximum displ.:     0.0878203 α      in ANC's #1, #17, #21, ...

........................................................................
.............................. CYCLE    4 ..............................
........................................................................

 iter      E             dE          RMSdq      gap      omega  full diag
   1    -23.5839110 -0.235839E+02  0.842E-02    4.13       0.0  T
   2    -23.5839126 -0.160766E-05  0.436E-02    4.13       1.0  T
   3    -23.5839122  0.436993E-06  0.131E-02    4.13       2.1  T
   4    -23.5839130 -0.809185E-06  0.792E-03    4.13       3.5  T
   5    -23.5839131 -0.734307E-07  0.348E-03    4.13       8.0  T
   6    -23.5839131 -0.784130E-08  0.161E-03    4.13      17.2  T
   7    -23.5839131 -0.128662E-08  0.106E-03    4.13      26.1  T
   8    -23.5839131 -0.316865E-08  0.313E-04    4.13      88.6  T
   9    -23.5839131 -0.420037E-10  0.151E-04    4.13     183.3  T
     SCC iter.                  ...        0 min,  0.002 sec
     gradient                   ...        0 min,  0.003 sec
 * total energy  :   -23.2685661 Eh     change       -0.1450555E-03 Eh
   gradient norm :     0.0026100 Eh/α   predicted    -0.1427693E-03 (  -1.58%)
   displ. norm   :     0.0111419 α      lambda       -0.1484313E-04
   maximum displ.:     0.0081835 α      in ANC's #6, #17, #14, ...

........................................................................
.............................. CYCLE    5 ..............................
........................................................................

 iter      E             dE          RMSdq      gap      omega  full diag
   1    -23.5827400 -0.235827E+02  0.221E-02    4.12       0.0  T
   2    -23.5827403 -0.218861E-06  0.135E-02    4.13       2.1  T
   3    -23.5827401  0.173284E-06  0.750E-03    4.12       3.7  T
   4    -23.5827404 -0.301344E-06  0.407E-03    4.12       6.8  T
   5    -23.5827404 -0.205819E-08  0.218E-03    4.12      12.7  T
   6    -23.5827404 -0.109044E-07  0.119E-03    4.12      23.3  T
   7    -23.5827404 -0.228356E-08  0.280E-04    4.12      99.1  T
   8    -23.5827404 -0.400394E-09  0.153E-04    4.12     181.7  T
     SCC iter.                  ...        0 min,  0.002 sec
     gradient                   ...        0 min,  0.003 sec
 * total energy  :   -23.2685748 Eh     change       -0.8683348E-05 Eh
   gradient norm :     0.0012049 Eh/α   predicted    -0.7424442E-05 ( -14.50%)
   displ. norm   :     0.0101913 α      lambda       -0.3935944E-05
   maximum displ.:     0.0071740 α      in ANC's #6, #10, #18, ...

........................................................................
.............................. CYCLE    6 ..............................
........................................................................

 iter      E             dE          RMSdq      gap      omega  full diag
   1    -23.5826209 -0.235826E+02  0.151E-02    4.12       0.0  T
   2    -23.5826213 -0.472862E-06  0.100E-02    4.12       2.8  T
   3    -23.5826215 -0.122891E-06  0.600E-03    4.12       4.6  T
   4    -23.5826215 -0.644867E-07  0.259E-03    4.12      10.7  T
   5    -23.5826215 -0.443850E-08  0.173E-03    4.12      16.0  T
   6    -23.5826215 -0.233204E-08  0.101E-03    4.12      27.5  T
   7    -23.5826215 -0.850299E-09  0.356E-04    4.12      77.9  T
   8    -23.5826215 -0.701181E-09  0.229E-04    4.12     121.0  T
     SCC iter.                  ...        0 min,  0.002 sec
     gradient                   ...        0 min,  0.003 sec
 * total energy  :   -23.2685765 Eh     change       -0.1781229E-05 Eh
   gradient norm :     0.0007553 Eh/α   predicted    -0.1966479E-05 (  10.40%)
   displ. norm   :     0.0024271 α      lambda       -0.5619739E-06
   maximum displ.:     0.0015528 α      in ANC's #10, #6, #1, ...

........................................................................
.............................. CYCLE    7 ..............................
........................................................................

 iter      E             dE          RMSdq      gap      omega  full diag
   1    -23.5827375 -0.235827E+02  0.505E-03    4.12       0.0  T
   2    -23.5827376 -0.514951E-07  0.327E-03    4.12       8.5  T
   3    -23.5827376 -0.105939E-07  0.194E-03    4.12      14.3  T
   4    -23.5827376 -0.712120E-08  0.836E-04    4.12      33.2  T
   5    -23.5827376 -0.561734E-09  0.526E-04    4.12      52.8  T
     SCC iter.                  ...        0 min,  0.001 sec
     gradient                   ...        0 min,  0.003 sec
 * total energy  :   -23.2685770 Eh     change       -0.4313293E-06 Eh
   gradient norm :     0.0001009 Eh/α   predicted    -0.2798325E-06 ( -35.12%)
   displ. norm   :     0.0006039 α      lambda       -0.1600672E-07
   maximum displ.:     0.0005370 α      in ANC's #1, #6, #18, ...

........................................................................
.............................. CYCLE    8 ..............................
........................................................................

 iter      E             dE          RMSdq      gap      omega  full diag
   1    -23.5827249 -0.235827E+02  0.954E-04    4.12       0.0  T
   2    -23.5827249 -0.747399E-09  0.489E-04    4.12      56.7  T
   3    -23.5827249  0.119044E-09  0.301E-04    4.12      92.0  T
     SCC iter.                  ...        0 min,  0.001 sec
     gradient                   ...        0 min,  0.003 sec
 * total energy  :   -23.2685770 Eh     change       -0.1055968E-07 Eh
   gradient norm :     0.0000258 Eh/α   predicted    -0.7203143E-08 ( -31.79%)
   displ. norm   :     0.0002321 α      lambda       -0.6162751E-08
   maximum displ.:     0.0001909 α      in ANC's #6, #20, #13, ...

   *** GEOMETRY OPTIMIZATION CONVERGED AFTER 8 ITERATIONS ***

------------------------------------------------------------------------
 total energy gain   :        -0.0008282 Eh       -0.5197 kcal/mol
 total RMSD          :         0.0259034 a0        0.0137 Å
 total power (kW/mol):        -0.2718190 (step)  -39.9403 (real)
------------------------------------------------------------------------

 ANCopt (total)                0 d,  0 h,  0 min,  0.054 sec
 optimizer setup                ...        0 min,  0.000 sec (  0.518%)
 model hessian                  ...        0 min,  0.001 sec (  1.368%)
 ANC generation                 ...        0 min,  0.000 sec (  0.332%)
 coordinate transformation      ...        0 min,  0.000 sec (  0.065%)
 single point calculation       ...        0 min,  0.047 sec ( 86.516%)
 optimization log               ...        0 min,  0.005 sec (  9.223%)
 hessian update                 ...        0 min,  0.000 sec (  0.074%)
 rational function              ...        0 min,  0.001 sec (  1.244%)

================
 final structure:
================
$coord
       -6.59072251651157        0.54017781929836        0.00005947366567      C
       -5.20913768725476        2.76486273221271        0.00010854101118      C
       -2.59813925671035        2.66536406389597        0.00011263193503      C
       -1.38641976027602        0.35082703851432        0.00006759545377      C
       -2.73741519487271       -1.90589088417709        0.00001926249269      C
       -5.37159182906344       -1.76372858104018        0.00001584389998      C
       -1.68605714892022       -4.22807809026458       -0.00002426179450      O
        2.65286325914651        0.26679439357165        0.00007737164142      I
       -8.62711950471339        0.59806412323451        0.00005456690133      H
       -6.14810883750849        4.57193767334062        0.00014255285665      H
       -1.50278901297182        4.38417235419139        0.00015065001793      H
       -6.40324750816848       -3.52016471198874       -0.00002304894437      H
        0.14718075947381       -4.14306027600633       -0.00001654511400      H
$end
 
 Bond Distances (Angstroems)
 ---------------------------
C1-C2=1.3858         C1-C6=1.3793         C1-H9=1.0781         C2-C1=1.3858         C2-C3=1.3827         C2-H10=1.0777        
C3-C2=1.3827         C3-C4=1.3825         C3-H11=1.0785        C4-C3=1.3825         C4-C5=1.3918         C4-I8=2.1380         
C5-C4=1.3918         C5-C6=1.3960         C5-O7=1.3489         C6-C1=1.3793         C6-C5=1.3960         C6-H12=1.0779        
O7-C5=1.3489         O7-H13=0.9712        I8-C4=2.1380         H9-C1=1.0781         H10-C2=1.0777        H11-C3=1.0785        
H12-C6=1.0779        H13-O7=0.9712        
 C  H  Rav=1.0780 sigma=0.0003  Rmin=1.0777  Rmax=1.0785     4
 C  C  Rav=1.3864 sigma=0.0058  Rmin=1.3793  Rmax=1.3960     6
 O  H  Rav=0.9712 sigma=0.0000  Rmin=0.9712  Rmax=0.9712     1
 O  C  Rav=1.3489 sigma=0.0000  Rmin=1.3489  Rmax=1.3489     1
 I  C  Rav=2.1380 sigma=0.0000  Rmin=2.1380  Rmax=2.1380     1
 
 selected bond angles (degree)
 --------------------
C6-C1-C2=120.27                H9-C1-C2=120.21                H9-C1-C6=119.51                C3-C2-C1=119.66                
H10-C2-C1=120.70               H10-C2-C3=119.64               C4-C3-C2=119.82                H11-C3-C2=120.33               
H11-C3-C4=119.86               C5-C4-C3=121.46                I8-C4-C3=118.83                I8-C4-C5=119.72                
C6-C5-C4=117.82                O7-C5-C4=124.73                O7-C5-C6=117.45                C5-C6-C1=120.98                
H12-C6-C1=121.69               H12-C6-C5=117.34               H13-O7-C5=111.70               
 
 selected dihedral angles (degree)
 ---------------------------------
C3-C2-C1-C6=  0.00            C3-C2-C1-H9=180.00            H10-C2-C1-C6=180.00           H10-C2-C1-H9=  0.00           
C4-C3-C2-C1=  0.00            C4-C3-C2-H10=180.00           H11-C3-C2-C1=180.00           H11-C3-C2-H10=  0.00          
C5-C4-C3-C2=  0.00            C5-C4-C3-H11=180.00           I8-C4-C3-C2=180.00            I8-C4-C3-H11=  0.00           
C6-C5-C4-C3=  0.00            C6-C5-C4-I8=180.00            O7-C5-C4-C3=180.00            O7-C5-C4-I8=  0.00            
C5-C6-C1-C2=  0.00            C5-C6-C1-H9=180.00            H12-C6-C1-C2=180.00           H12-C6-C1-H9=  0.00           
C1-C6-C5-C4=  0.00            C1-C6-C5-O7=180.00            H12-C6-C5-C4=180.00           H12-C6-C5-O7=  0.00           
H13-O7-C5-C4=  0.00           H13-O7-C5-C6=180.00           
           -------------------------------------------------
          |                Final Singlepoint                |
           -------------------------------------------------

          ...................................................
          :                      SETUP                      :
          :.................................................:
          :  # basis functions                  43          :
          :  # atomic orbitals                  42          :
          :  # shells                           22          :
          :  # electrons                        42          :
          :  max. iterations                   250          :
          :  Hamiltonian                  GFN2-xTB          :
          :  restarted?                      false          :
          :  GBSA solvation                   true          :
          :  PC potential                    false          :
          :  electronic temp.          300.0000000     K    :
          :  accuracy                    1.0000000          :
          :  -> integral cutoff          0.2500000E+02      :
          :  -> integral neglect         0.1000000E-07      :
          :  -> SCF convergence          0.1000000E-05 Eh   :
          :  -> wf. convergence          0.1000000E-03 e    :
          :  Broyden damping             0.4000000          :
          :  net charge                          0          :
          :  unpaired electrons                  0          :
          ...................................................

 iter      E             dE          RMSdq      gap      omega  full diag
   1    -23.5827249 -0.235827E+02  0.138E-04    4.12       0.0  T
   2    -23.5827249 -0.684608E-11  0.102E-04    4.12     272.7  T
   3    -23.5827249  0.605738E-11  0.643E-05    4.12     431.1  T

   *** convergence criteria satisfied after 3 iterations ***

         #    Occupation            Energy/Eh            Energy/eV
      -------------------------------------------------------------
         1        2.0000           -0.7451713             -20.2771
       ...           ...                  ...                  ...
        15        2.0000           -0.4808804             -13.0854
        16        2.0000           -0.4527613             -12.3203
        17        2.0000           -0.4415106             -12.0141
        18        2.0000           -0.4389447             -11.9443
        19        2.0000           -0.4197454             -11.4219
        20        2.0000           -0.4110379             -11.1849
        21        2.0000           -0.3958597             -10.7719 (HOMO)
        22                         -0.2443049              -6.6479 (LUMO)
        23                         -0.2337979              -6.3620
        24                         -0.2324714              -6.3259
        25                         -0.1113674              -3.0305
        26                         -0.0198867              -0.5411
       ...                                ...                  ...
        42                          0.6432603              17.5040
      -------------------------------------------------------------
                  HL-Gap            0.1515548 Eh            4.1240 eV
             Fermi-level           -0.3200823 Eh           -8.7099 eV

 SCC (total)                   0 d,  0 h,  0 min,  0.005 sec
 SCC setup                      ...        0 min,  0.001 sec (  9.913%)
 Dispersion                     ...        0 min,  0.000 sec (  0.706%)
 classical contributions        ...        0 min,  0.000 sec (  0.187%)
 integral evaluation            ...        0 min,  0.001 sec ( 19.076%)
 iterations                     ...        0 min,  0.001 sec ( 17.881%)
 molecular gradient             ...        0 min,  0.003 sec ( 50.038%)
 printout                       ...        0 min,  0.000 sec (  1.901%)

         :::::::::::::::::::::::::::::::::::::::::::::::::::::
         ::                     SUMMARY                     ::
         :::::::::::::::::::::::::::::::::::::::::::::::::::::
         :: total energy             -23.268576975827 Eh    ::
         :: total w/o Gsasa/hb       -23.263590500950 Eh    ::
         :: gradient norm              0.000026139024 Eh/a0 ::
         :: HOMO-LUMO gap              4.124016245648 eV    ::
         ::.................................................::
         :: SCC energy               -23.582705049464 Eh    ::
         :: -> isotropic ES            0.026241609150 Eh    ::
         :: -> anisotropic ES          0.001534960582 Eh    ::
         :: -> anisotropic XC          0.007387301033 Eh    ::
         :: -> dispersion             -0.012085977291 Eh    ::
         :: -> Gsolv                  -0.006921727968 Eh    ::
         ::    -> Gelec               -0.001935253091 Eh    ::
         ::    -> Gsasa               -0.001746341197 Eh    ::
         ::    -> Ghb                 -0.004320893379 Eh    ::
         ::    -> Gshift               0.001080759698 Eh    ::
         :: repulsion energy           0.314128073637 Eh    ::
         :: add. restraining           0.000000000000 Eh    ::
         :: total charge               0.000000000000 e     ::
         :::::::::::::::::::::::::::::::::::::::::::::::::::::

           ------------------------------------------------- 
          |                Numerical Hessian                |
           ------------------------------------------------- 
step length          :   0.00500
SCC accuracy         :   0.30000
Hessian scale factor :   1.00000
frozen atoms in %    :   0.00000    0
RMS gradient         :   0.00003
estimated CPU  time      0.01 min
estimated wall time      0.01 min

writing file <hessian>.

 projected vibrational frequencies (cm⁻¹)
eigval :       -0.00    -0.00     0.00     0.00     0.00     0.00
eigval :      122.81   178.65   238.39   245.05   387.53   408.56
eigval :      440.19   503.49   520.12   622.84   650.19   778.96
eigval :      821.17   868.56   905.79   920.17   988.94  1081.30
eigval :     1097.83  1146.91  1170.17  1249.32  1264.58  1320.24
eigval :     1421.15  1458.41  1562.37  1589.59  3097.71  3102.25
eigval :     3111.95  3118.50  3387.07
           -------------------------------------------------
          |                Property Printout                |
           -------------------------------------------------

    * Orbital Energies and Occupations

         #    Occupation            Energy/Eh            Energy/eV
      -------------------------------------------------------------
         1        2.0000           -0.7451710             -20.2771
       ...           ...                  ...                  ...
         9        2.0000           -0.5495380             -14.9537
        10        2.0000           -0.5427500             -14.7690
        11        2.0000           -0.5234948             -14.2450
        12        2.0000           -0.5006297             -13.6228
        13        2.0000           -0.4960473             -13.4981
        14        2.0000           -0.4917845             -13.3821
        15        2.0000           -0.4808801             -13.0854
        16        2.0000           -0.4527610             -12.3203
        17        2.0000           -0.4415103             -12.0141
        18        2.0000           -0.4389444             -11.9443
        19        2.0000           -0.4197450             -11.4218
        20        2.0000           -0.4110377             -11.1849
        21        2.0000           -0.3958593             -10.7719 (HOMO)
        22                         -0.2443045              -6.6479 (LUMO)
        23                         -0.2337971              -6.3619
        24                         -0.2324711              -6.3259
        25                         -0.1113671              -3.0305
        26                         -0.0198864              -0.5411
        27                          0.0136483               0.3714
        28                          0.0200516               0.5456
        29                          0.0539464               1.4680
        30                          0.0901420               2.4529
        31                          0.1362189               3.7067
        32                          0.1580021               4.2995
       ...                                ...                  ...
        42                          0.6432606              17.5040
      -------------------------------------------------------------
                  HL-Gap            0.1515548 Eh            4.1240 eV
             Fermi-level           -0.3200819 Eh           -8.7099 eV

     #   Z          covCN         q      C6AA      α(0)
     1   6 C        2.918    -0.034    28.851     8.808
     2   6 C        2.922    -0.045    29.120     8.849
     3   6 C        3.041    -0.037    28.889     8.816
     4   6 C        2.955     0.016    27.662     8.627
     5   6 C        2.949     0.148    24.778     8.164
     6   6 C        2.925    -0.060    29.490     8.906
     7   8 O        1.661    -0.417    21.177     6.212
     8  53 I        1.198    -0.174   384.951    33.869
     9   1 H        0.926     0.065     2.145     2.290
    10   1 H        0.926     0.061     2.188     2.313
    11   1 H        0.926     0.059     2.213     2.326
    12   1 H        0.926     0.071     2.080     2.255
    13   1 H        0.811     0.349     0.590     1.206

 Mol. C6AA /au·bohr⁶  :       3912.683267
 Mol. C8AA /au·bohr⁸  :     161749.736174
 Mol. α(0) /au        :        102.642240


Wiberg/Mayer (AO) data.
largest (>0.10) Wiberg bond orders for each atom

 ---------------------------------------------------------------------------
     #   Z sym  total        # sym  WBO       # sym  WBO       # sym  WBO
 ---------------------------------------------------------------------------
     1   6 C    3.990 --     6 C    1.465     2 C    1.421     9 H    0.967
     2   6 C    3.989 --     3 C    1.437     1 C    1.421    10 H    0.966
     3   6 C    3.989 --     2 C    1.437     4 C    1.425    11 H    0.967
                             6 C    0.108
     4   6 C    3.929 --     3 C    1.425     5 C    1.356     8 I    0.944
     5   6 C    3.944 --     4 C    1.356     6 C    1.343     7 O    1.099
     6   6 C    3.985 --     1 C    1.465     5 C    1.343    12 H    0.963
                             3 C    0.108
     7   8 O    2.122 --     5 C    1.099    13 H    0.842
     8  53 I    1.091 --     4 C    0.944
     9   1 H    0.994 --     1 C    0.967
    10   1 H    0.996 --     2 C    0.966
    11   1 H    0.997 --     3 C    0.967
    12   1 H    0.995 --     6 C    0.963
    13   1 H    0.878 --     7 O    0.842
 ---------------------------------------------------------------------------

Topologies differ in total number of bonds
Writing topology from bond orders to xtbtopo.mol

molecular dipole:
                 x           y           z       tot (Debye)
 q only:       -0.728       0.183       0.000
   full:       -0.988       0.345       0.000       2.660
molecular quadrupole (traceless):
                xx          xy          yy          xz          yz          zz
 q only:        3.408      -4.383      -0.536      -0.000       0.000      -2.872
  q+dip:        1.300      -4.385       2.041      -0.000       0.000      -3.340
   full:        1.778      -4.734       0.106      -0.000       0.000      -1.885

           -------------------------------------------------
          |                Geometry Summary                 |
           -------------------------------------------------

      molecular mass/u    :      220.0079960
   center of mass at/Å    :       -0.0000153      -0.0000855       0.0000345
  moments of inertia/u·Å² :        0.1755715E+03   0.6960034E+03   0.8715749E+03
rotational constants/cm⁻¹ :        0.9601576E-01   0.2422062E-01   0.1934158E-01

 * 12 selected distances

     #   Z          #   Z                                           value/Å
     1   6 C        2   6 C                                       1.3857979
     2   6 C        3   6 C                                       1.3826839
     3   6 C        4   6 C                                       1.3824948
     4   6 C        5   6 C                                       1.3918433
     1   6 C        6   6 C                                       1.3793434
     5   6 C        6   6 C                                       1.3959749 (max)
     5   6 C        7   8 O                                       1.3489254
     1   6 C        9   1 H                                       1.0780503
     2   6 C       10   1 H                                       1.0776506
     3   6 C       11   1 H                                       1.0785477
     6   6 C       12   1 H                                       1.0779357
     7   8 O       13   1 H                                       0.9711505 (min)

 * 4 distinct bonds (by element types)

   Z      Z             #   av. dist./Å        max./Å        min./Å
   1 H    6 C           4     1.0780460     1.0785477     1.0776506
   6 C    6 C           6     1.3863563     1.3959749     1.3793434
   1 H    8 O           1     0.9711505     0.9711505     0.9711505
   6 C    8 O           1     1.3489254     1.3489254     1.3489254

           -------------------------------------------------
          |               Frequency Printout                |
           -------------------------------------------------
 projected vibrational frequencies (cm⁻¹)
eigval :       -0.00    -0.00     0.00     0.00     0.00     0.00
eigval :      122.81   178.65   238.39   245.05   387.53   408.56
eigval :      440.19   503.49   520.12   622.84   650.19   778.96
eigval :      821.17   868.56   905.79   920.17   988.94  1081.30
eigval :     1097.83  1146.91  1170.17  1249.32  1264.58  1320.24
eigval :     1421.15  1458.41  1562.37  1589.59  3097.71  3102.25
eigval :     3111.95  3118.50  3387.07
 reduced masses (amu)
   1: 92.93   2: 36.11   3: 16.43   4: 90.08   5: 92.63   6: 17.96   7: 16.49   8: 32.92
   9: 11.55  10: 52.23  11:  2.89  12:  9.14  13: 12.84  14: 10.24  15: 12.80  16: 12.52
  17: 11.32  18:  3.33  19: 12.06  20:  3.40  21:  3.81  22:  3.28  23: 11.45  24:  5.52
  25:  4.74  26:  3.72  27:  1.54  28:  4.53  29:  8.53  30: 11.61  31:  9.24  32:  9.85
  33: 11.49  34: 11.63  35:  1.79  36:  1.80  37:  1.86  38:  1.91  39:  1.86
 IR intensities (km·mol⁻¹)
   1:  0.02   2:  0.17   3:  0.26   4:  0.26   5:  0.00   6:  0.20   7:  0.61   8:  2.33
   9:  0.04  10:  0.29  11:127.21  12: 11.66  13: 14.10  14:  0.25  15:  3.11  16:  9.67
  17:  0.99  18: 45.41  19: 35.45  20:  1.89  21:  0.84  22:  0.18  23: 39.71  24: 82.18
  25:172.55  26:102.11  27:  0.76  28: 61.72  29: 81.12  30: 30.74  31:  3.60  32:196.64
  33: 21.34  34: 53.65  35:  7.89  36: 21.00  37: 43.33  38: 28.43  39: 84.93
 Raman intensities (Ä⁴*amu⁻¹)
   1:  0.00   2:  0.00   3:  0.00   4:  0.00   5:  0.00   6:  0.00   7:  0.00   8:  0.00
   9:  0.00  10:  0.00  11:  0.00  12:  0.00  13:  0.00  14:  0.00  15:  0.00  16:  0.00
  17:  0.00  18:  0.00  19:  0.00  20:  0.00  21:  0.00  22:  0.00  23:  0.00  24:  0.00
  25:  0.00  26:  0.00  27:  0.00  28:  0.00  29:  0.00  30:  0.00  31:  0.00  32:  0.00
  33:  0.00  34:  0.00  35:  0.00  36:  0.00  37:  0.00  38:  0.00  39:  0.00
 output can be read by thermo (or use thermo option).
 writing <g98.out> molden fake output.
 recommended (thermochemical) frequency scaling factor: 1.0
           -------------------------------------------------
          |             Thermodynamic Functions             |
           -------------------------------------------------

Molecule has the following symmetry elements: (sigma) 
It seems to be the Cs point group
cs  symmetry found (for desy threshold:  0.10E+00) used in thermo

          ...................................................
          :                      SETUP                      :
          :.................................................:
          :  # frequencies                          33      :
          :  # imaginary freq.                       0      :
          :  linear?                             false      :
          :  only rotor calc.                    false      :
          :  symmetry                               cs      :
          :  rotational number                       1      :
          :  scaling factor                  1.0000000      :
          :  rotor cutoff                    0.0000000 cm⁻¹ :
          :  imag. cutoff                 -100.0000000 cm⁻¹ :
          :.................................................:

    mode    ω/cm⁻¹     T·S(HO)/kcal·mol⁻¹    T·S(FR)/kcal·mol⁻¹   T·S(vib)
   ------------------------------------------------------------------------
       1    122.81    -0.91105 (100.00%)    -0.79028 (  0.00%)    -0.91105
       2    178.65    -0.69840 (100.00%)    -0.67926 (  0.00%)    -0.69840
       3    238.39    -0.54110 (100.00%)    -0.59382 (  0.00%)    -0.54110
       4    245.05    -0.52650 (100.00%)    -0.58565 (  0.00%)    -0.52650
   ------------------------------------------------------------------------

   temp. (K)  partition function   enthalpy   heat capacity  entropy
                                   cal/mol     cal/K/mol   cal/K/mol   J/K/mol
 298.15  VIB   18.8                 2760.731     21.069     15.092
         ROT  0.788E+06              888.752      2.981     29.963
         INT  0.148E+08             3649.484     24.050     45.056
         TR   0.316E+28             1481.254      4.968     42.049
         TOT                        5130.7374    29.0180    87.1049   364.4469

       T/K    H(0)-H(T)+PV         H(T)/Eh          T*S/Eh         G(T)/Eh
   ------------------------------------------------------------------------
    298.15    0.817635E-02    0.988035E-01    0.413864E-01    0.574172E-01
   ------------------------------------------------------------------------

         :::::::::::::::::::::::::::::::::::::::::::::::::::::
         ::                  THERMODYNAMIC                  ::
         :::::::::::::::::::::::::::::::::::::::::::::::::::::
         :: total free energy         -23.211159784108 Eh   ::
         ::.................................................::
         :: total energy              -23.268576975652 Eh   ::
         :: zero point energy           0.090627192850 Eh   ::
         :: G(RRHO) w/o ZPVE           -0.033210001307 Eh   ::
         :: G(RRHO) contrib.            0.057417191543 Eh   ::
         :::::::::::::::::::::::::::::::::::::::::::::::::::::

optimized geometry written to: xtbopt.coord


           -------------------------------------------------
          | TOTAL ENERGY              -23.268576975652 Eh   |
          | TOTAL ENTHALPY            -23.169773432267 Eh   |
          | TOTAL FREE ENERGY         -23.211159784108 Eh   |
          | GRADIENT NORM               0.000026266126 Eh/α |
          | HOMO-LUMO GAP               4.124015689740 eV   |
           -------------------------------------------------

------------------------------------------------------------------------
 * finished run on 2025/04/03 at 21:49:39.041     
------------------------------------------------------------------------
 total:
 * wall-time:     0 d,  0 h,  0 min,  0.588 sec
 *  cpu-time:     0 d,  0 h,  0 min,  0.508 sec
 * ratio c/w:     0.863 speedup
 SCF:
 * wall-time:     0 d,  0 h,  0 min,  0.022 sec
 *  cpu-time:     0 d,  0 h,  0 min,  0.010 sec
 * ratio c/w:     0.460 speedup
 ANC optimizer:
 * wall-time:     0 d,  0 h,  0 min,  0.070 sec
 *  cpu-time:     0 d,  0 h,  0 min,  0.057 sec
 * ratio c/w:     0.803 speedup
 analytical hessian:
 * wall-time:     0 d,  0 h,  0 min,  0.439 sec
 *  cpu-time:     0 d,  0 h,  0 min,  0.430 sec
 * ratio c/w:     0.980 speedup

