
                                 *****************
                                 * O   R   C   A *
                                 *****************

                                            #,                                       
                                            ###                                      
                                            ####                                     
                                            #####                                    
                                            ######                                   
                                           ########,                                 
                                     ,,################,,,,,                         
                               ,,#################################,,                 
                          ,,##########################################,,             
                       ,#########################################, ''#####,          
                    ,#############################################,,   '####,        
                  ,##################################################,,,,####,       
                ,###########''''           ''''###############################       
              ,#####''   ,,,,##########,,,,          '''####'''          '####       
            ,##' ,,,,###########################,,,                        '##       
           ' ,,###''''                  '''############,,,                           
         ,,##''                                '''############,,,,        ,,,,,,###''
      ,#''                                            '''#######################'''  
     '                                                          ''''####''''         
             ,#######,   #######,   ,#######,      ##                                
            ,#'     '#,  ##    ##  ,#'     '#,    #''#        ,####,   ,####,        
            ##       ##  ##   ,#'  ##            #'  '#       #'       #'  '#        
            ##       ##  #######   ##           ,######,      #####,   #    #        
            '#,     ,#'  ##    ##  '#,     ,#' ,#      #,     #,   #   #,  ,#        
             '#######'   ##     ##  '#######'  #'      '#     '####' # '####'        



                #########################################################
                #                        -***-                          #
                #          Department of theory and spectroscopy        #
                #                                                       #
                #                      Frank Neese                      #
                #                                                       #
                #     Directorship, Architecture, Infrastructure        #
                #                    SHARK, DRIVERS                     #
                #        Core code/Algorithms in most modules           #
                #                                                       #
                #        Max Planck Institute fuer Kohlenforschung      #
                #                Kaiser Wilhelm Platz 1                 #
                #                 D-45470 Muelheim/Ruhr                 #
                #                      Germany                          #
                #                                                       #
                #                  All rights reserved                  #
                #                        -***-                          #
                #########################################################


                         Program Version 6.0.0  -   RELEASE  -


 With contributions from (in alphabetic order):
   Daniel Aravena         : Magnetic Suceptibility
   Michael Atanasov       : Ab Initio Ligand Field Theory (pilot matlab implementation)
   Alexander A. Auer      : GIAO ZORA, VPT2 properties, NMR spectrum
   Ute Becker             : All parallelization in ORCA, NUMFREQ, NUMCALC
   Giovanni Bistoni       : ED, misc. LED, open-shell LED, HFLD
   Martin Brehm           : Molecular dynamics
   Dmytro Bykov           : pre 5.0 version of the SCF Hessian
   Marcos Casanova-Páez   : Triplet and SCS-CIS(D). UHF-(DLPNO)-IP/EA/STEOM-CCSD. UHF-CVS-IP/STEOM-CCSD
   Vijay G. Chilkuri      : MRCI spin determinant printing, contributions to CSF-ICE
   Pauline Colinet        : FMM embedding
   Dipayan Datta          : RHF DLPNO-CCSD density
   Achintya Kumar Dutta   : EOM-CC, STEOM-CC
   Nicolas Foglia         : Exact transition moments, OPA infrastructure, MCD improvements
   Dmitry Ganyushin       : Spin-Orbit,Spin-Spin,Magnetic field MRCI
   Miquel Garcia          : C-PCM and meta-GGA Hessian, CCSD/C-PCM, Gaussian charge scheme
   Tiago L. C. Gouveia    : GS-ROHF, GS-ROCIS
   Yang Guo               : DLPNO-NEVPT2, F12-NEVPT2, CIM, IAO-localization
   Andreas Hansen         : Spin unrestricted coupled pair/coupled cluster methods
   Ingolf Harden          : AUTO-CI MPn and infrastructure 
   Benjamin Helmich-Paris : MC-RPA, TRAH-(SCF,CASSCF), AVAS, COSX integrals, SCF dyn. polar.
   Lee Huntington         : MR-EOM, pCC
   Robert Izsak           : Overlap fitted RIJCOSX, COSX-SCS-MP3, EOM
   Riya Kayal             : Wick's Theorem for AUTO-CI, AUTO-CI UHF-CCSDT
   Emily Kempfer          : AUTO-CI, RHF CISDT and CCSDT
   Christian Kollmar      : KDIIS, OOCD, Brueckner-CCSD(T), CCSD density, CASPT2, CASPT2-K, improved NEVPT2
   Axel Koslowski         : Symmetry handling
   Simone Kossmann        : Meta GGA functionals, TD-DFT gradient, OOMP2, (MP2 Hessian; deprecated post 5.0)
   Lucas Lang             : DCDCAS
   Marvin Lechner         : AUTO-CI (C++ implementation), FIC-MRCC
   Spencer Leger          : CASSCF response
   Dagmar Lenk            : GEPOL surface, SMD, ORCA-2-JSON
   Dimitrios Liakos       : Extrapolation schemes; Compound Job, initial MDCI parallelization
   Dimitrios Manganas     : Further ROCIS development; embedding schemes. LFT, Crystal Embedding
   Dimitrios Pantazis     : SARC Basis sets
   Anastasios Papadopoulos: AUTO-CI, single reference methods and gradients
   Taras Petrenko         : pre 6.0 DFT Hessian and TD-DFT gradient, (ASA, deprecated), ECA, 1-Electron XAS/XES, NRVS
   Peter Pinski           : DLPNO-MP2, DLPNO-MP2 Gradient
   Christoph Reimann      : Effective Core Potentials
   Marius Retegan         : Local ZFS, SOC
   Christoph Riplinger    : Optimizer, TS searches, QM/MM, DLPNO-CCSD(T), (RO)-DLPNO pert. Triples
   Michael Roemelt        : Original ROCIS implementation
   Masaaki Saitow         : Open-shell DLPNO-CCSD energy and density
   Barbara Sandhoefer     : DKH picture change effects
   Kantharuban Sivalingam : CASSCF convergence/infrastructure, NEVPT2 and variants, FIC-MRCI
   Bernardo de Souza      : ESD, SOC TD-DFT
   Georgi Stoychev        : AutoAux, RI-MP2 NMR, DLPNO-MP2 response, X2C
   Van Anh Tran           : RI-MP2 g-tensors
   Willem Van den Heuvel  : Paramagnetic NMR
   Zikuan Wang            : NOTCH, Electric field optimization 
   Frank Wennmohs         : Technical directorship and infrastructure
   Hang Xu                : AUTO-CI-Response properties 


 We gratefully acknowledge several colleagues who have allowed us to
 interface, adapt or use parts of their codes:
   Stefan Grimme, W. Hujo, H. Kruse, P. Pracht,  : VdW corrections, initial TS optimization,
                  C. Bannwarth, S. Ehlert,         DFT functionals, gCP, sTDA/sTD-DF
                  L. Wittmann, M. Mueller
   Ed Valeev, F. Pavosevic, A. Kumar             : LibInt (2-el integral package), F12 methods
   Garnet Chan, S. Sharma, J. Yang, R. Olivares  : DMRG
   Ulf Ekstrom                                   : XCFun DFT Library
   Mihaly Kallay                                 : mrcc  (arbitrary order and MRCC methods)
   Frank Weinhold                                : gennbo (NPA and NBO analysis)
   Simon Mueller                                 : openCOSMO-RS
   Christopher J. Cramer and Donald G. Truhlar   : smd solvation model
   Lars Goerigk                                  : TD-DFT with DH, B97 family of functionals
   V. Asgeirsson, H. Jonsson                     : NEB implementation
   FAccTs GmbH                                   : IRC, NEB, NEB-TS, DLPNO-Multilevel, CI-OPT
                                                   MM, QMMM, 2- and 3-layer-ONIOM, Crystal-QMMM,
                                                   LR-CPCM, SF, NACMEs, symmetry and pop. for TD-DFT,
                                                   nearIR, NL-DFT gradient (VV10), updates on ESD,
                                                   ML-optimized integration grids, MBIS, APM,
                                                   GOAT, DOCKER, SOLVATOR, interface openCOSMO-RS
   S Lehtola, MJT Oliveira, MAL Marques          : LibXC Library
   Liviu Ungur et al                             : ANISO software


 Your calculation uses the libint2 library for the computation of 2-el integrals
 For citations please refer to: http://libint.valeyev.net

 Your ORCA version has been built with support for libXC version: 6.2.2
 For citations please refer to: https://libxc.gitlab.io

 This ORCA versions uses:
   CBLAS   interface :  Fast vector & matrix operations
   LAPACKE interface :  Fast linear algebra routines
   SCALAPACK package :  Parallel linear algebra routines
   Shared memory     :  Shared parallel matrices
   BLAS/LAPACK       :  OpenBLAS 0.3.27  USE64BITINT DYNAMIC_ARCH NO_AFFINITY SkylakeX SINGLE_THREADED
        Core in use  :  SkylakeX
   Copyright (c) 2011-2014, The OpenBLAS Project


Your calculation utilizes the geometrical counterpoise correction gCP
Please cite in your paper:
H.Kruse, S. Grimme J.Chem.Phys., 136, (2012), 154101 
   

Your calculation utilizes the atom-pairwise dispersion correction
based on EEQ partial charges (D4)


================================================================================

----- Orbital basis set information -----
Your calculation utilizes the basis: def2-SV(P)
   F. Weigend and R. Ahlrichs, Phys. Chem. Chem. Phys. 7, 3297 (2005).

----- AuxJ basis set information -----
Your calculation utilizes the auxiliary basis: def2/J
   F. Weigend, Phys. Chem. Chem. Phys. 8, 1057 (2006).

================================================================================
                                        WARNINGS
                       Please study these warnings very carefully!
================================================================================


================================================================================
                                       INPUT FILE
================================================================================
NAME = sp.inp
|  1> ! pbe def2-sv(p) def2/J RI DEFGRID1 loosescf d4 GCP(DFT/SV(P)) printgap
|  2> %output
|  3>     printlevel normal
|  4> end
|  5> * xyz 0 1
|  6> C -2.4185498128 -0.679240049 0.014713663
|  7> C -0.9759459286 -0.2816376795 0.3482249953
|  8> H -0.9120636881 0.0102699819 1.4069860292
|  9> C -0.51827302 0.9014563482 -0.5136258171
| 10> H -0.5044559696 0.5706899327 -1.5636497029
| 11> C 0.9129596964 1.3262568699 -0.1108964485
| 12> H 0.8275850924 2.1329892709 0.6262893615
| 13> C 1.6900022156 0.1527048221 0.5289319155
| 14> H 2.7513700771 0.269433025 0.2698909474
| 15> C 1.212482866 -1.1619793728 -0.0993380417
| 16> H 1.747854295 -2.0061743901 0.3609637197
| 17> O -0.1446840428 -1.4181363998 0.1325525798
| 18> O 1.4936394578 -1.0775768346 -1.4672829621
| 19> O 1.5139858905 0.0589208023 1.917638031
| 20> O 1.6167752966 1.8726107152 -1.1975534657
| 21> O -1.4340801065 1.9548107943 -0.3454441028
| 22> O -2.9357081957 -1.6759831339 0.8561719812
| 23> H -2.4524027908 -1.0985403812 -0.992605607
| 24> H -3.0323890917 0.2289153756 0.0520806602
| 25> H 1.2597401375 -1.9123663976 -1.9010231529
| 26> H 1.9979541748 0.7732002482 2.3580463184
| 27> H 1.7879796482 1.1682566794 -1.8423199994
| 28> H -1.1624777011 2.6996036129 -0.9022848908
| 29> H -2.8938995395 -1.3758848025 1.7750649078
| 30> *
| 31> 
| 32>                          ****END OF INPUT****
================================================================================

                       ****************************
                       * Single Point Calculation *
                       ****************************

---------------------------------
CARTESIAN COORDINATES (ANGSTROEM)
---------------------------------
  C     -2.418550   -0.679240    0.014714
  C     -0.975946   -0.281638    0.348225
  H     -0.912064    0.010270    1.406986
  C     -0.518273    0.901456   -0.513626
  H     -0.504456    0.570690   -1.563650
  C      0.912960    1.326257   -0.110896
  H      0.827585    2.132989    0.626289
  C      1.690002    0.152705    0.528932
  H      2.751370    0.269433    0.269891
  C      1.212483   -1.161979   -0.099338
  H      1.747854   -2.006174    0.360964
  O     -0.144684   -1.418136    0.132553
  O      1.493639   -1.077577   -1.467283
  O      1.513986    0.058921    1.917638
  O      1.616775    1.872611   -1.197553
  O     -1.434080    1.954811   -0.345444
  O     -2.935708   -1.675983    0.856172
  H     -2.452403   -1.098540   -0.992606
  H     -3.032389    0.228915    0.052081
  H      1.259740   -1.912366   -1.901023
  H      1.997954    0.773200    2.358046
  H      1.787980    1.168257   -1.842320
  H     -1.162478    2.699604   -0.902285
  H     -2.893900   -1.375885    1.775065

----------------------------
CARTESIAN COORDINATES (A.U.)
----------------------------
  NO LB      ZA    FRAG     MASS         X           Y           Z
   0 C     6.0000    0    12.011   -4.570397   -1.283578    0.027805
   1 C     6.0000    0    12.011   -1.844271   -0.532218    0.658050
   2 H     1.0000    0     1.008   -1.723551    0.019407    2.658818
   3 C     6.0000    0    12.011   -0.979394    1.703506   -0.970612
   4 H     1.0000    0     1.008   -0.953284    1.078448   -2.954870
   5 C     6.0000    0    12.011    1.725244    2.506262   -0.209564
   6 H     1.0000    0     1.008    1.563909    4.030766    1.183515
   7 C     6.0000    0    12.011    3.193641    0.288570    0.999536
   8 H     1.0000    0     1.008    5.199336    0.509155    0.510020
   9 C     6.0000    0    12.011    2.291261   -2.195823   -0.187722
  10 H     1.0000    0     1.008    3.302966   -3.791120    0.682123
  11 O     8.0000    0    15.999   -0.273413   -2.679889    0.250488
  12 O     8.0000    0    15.999    2.822570   -2.036325   -2.772763
  13 O     8.0000    0    15.999    2.861019    0.111344    3.623811
  14 O     8.0000    0    15.999    3.055263    3.538721   -2.263048
  15 O     8.0000    0    15.999   -2.710019    3.694057   -0.652795
  16 O     8.0000    0    15.999   -5.547684   -3.167149    1.617931
  17 H     1.0000    0     1.008   -4.634370   -2.075940   -1.875753
  18 H     1.0000    0     1.008   -5.730385    0.432587    0.098418
  19 H     1.0000    0     1.008    2.380564   -3.613849   -3.592413
  20 H     1.0000    0     1.008    3.775586    1.461137    4.456062
  21 H     1.0000    0     1.008    3.378792    2.207685   -3.481480
  22 H     1.0000    0     1.008   -2.196764    5.101511   -1.705071
  23 H     1.0000    0     1.008   -5.468678   -2.600045    3.354387

--------------------------------
INTERNAL COORDINATES (ANGSTROEM)
--------------------------------
 C      0   0   0     0.000000000000     0.00000000     0.00000000
 C      1   0   0     1.533109069738     0.00000000     0.00000000
 H      2   1   0     1.100120879877   109.43976734     0.00000000
 C      2   1   3     1.533611030373   111.01598825   240.14669051
 H      4   2   1     1.100975700574   107.93558829   295.61959536
 C      4   2   1     1.546309644303   109.98568878   177.27035608
 H      6   4   2     1.096151863702   107.77320642   266.01173856
 C      6   4   2     1.546091789293   111.37314307    25.06996094
 H      8   6   4     1.098739930071   107.89562863   147.80249226
 C      8   6   4     1.533343536420   108.94866691    31.76392948
 H     10   8   6     1.100529647839   109.56160893   180.91935496
 O     10   8   6     1.400461245863   113.00283279   297.84043187
 O     10   8   6     1.399087603696   106.63724282    60.77954293
 O      8   6   4     1.402954690750   113.41063907   271.44077845
 O      6   4   2     1.405233929419   111.65329509   150.18700715
 O      4   2   1     1.405895905758   108.44368376    55.14558731
 O      1   2   3     1.403211199915   113.61351636   305.40293136
 H      1   2   3     1.091627640002   109.24052002   187.78128915
 H      1   2   3     1.096786774187   107.72683373    69.03831955
 H     13  10   8     0.969387982000   109.69657260   176.42836046
 H     14   8   6     0.968700101504   109.75807361   287.15632422
 H     15   6   4     0.970128558869   108.66591550   291.82105230
 H     16   4   2     0.968790933297   108.94283487   181.24240041
 H     17   1   2     0.967559394972   109.46692677    57.73393574

---------------------------
INTERNAL COORDINATES (A.U.)
---------------------------
 C      0   0   0     0.000000000000     0.00000000     0.00000000
 C      1   0   0     2.897156275236     0.00000000     0.00000000
 H      2   1   0     2.078927177175   109.43976734     0.00000000
 C      2   1   3     2.898104843365   111.01598825   240.14669051
 H      4   2   1     2.080542554187   107.93558829   295.61959536
 C      4   2   1     2.922101745973   109.98568878   177.27035608
 H      6   4   2     2.071426823584   107.77320642   266.01173856
 C      6   4   2     2.921690059668   111.37314307    25.06996094
 H      8   6   4     2.076317560237   107.89562863   147.80249226
 C      8   6   4     2.897599353053   108.94866691    31.76392948
 H     10   8   6     2.079699636676   109.56160893   180.91935496
 O     10   8   6     2.646488215850   113.00283279   297.84043187
 O     10   8   6     2.643892408349   106.63724282    60.77954293
 O      8   6   4     2.651200143819   113.41063907   271.44077845
 O      6   4   2     2.655507280695   111.65329509   150.18700715
 O      4   2   1     2.656758234684   108.44368376    55.14558731
 O      1   2   3     2.651684875891   113.61351636   305.40293136
 H      1   2   3     2.062877279822   109.24052002   187.78128915
 H      1   2   3     2.072626630520   107.72683373    69.03831955
 H     13  10   8     1.831877803494   109.69657260   176.42836046
 H     14   8   6     1.830577897745   109.75807361   287.15632422
 H     15   6   4     1.833277290959   108.66591550   291.82105230
 H     16   4   2     1.830749544957   108.94283487   181.24240041
 H     17   1   2     1.828422274799   109.46692677    57.73393574

---------------------
BASIS SET INFORMATION
---------------------
There are 3 groups of distinct atoms

 Group   1 Type C   : 7s4p1d contracted to 3s2p1d pattern {511/31/1}
 Group   2 Type H   : 4s contracted to 2s pattern {31}
 Group   3 Type O   : 7s4p1d contracted to 3s2p1d pattern {511/31/1}

Atom   0C    basis set group =>   1
Atom   1C    basis set group =>   1
Atom   2H    basis set group =>   2
Atom   3C    basis set group =>   1
Atom   4H    basis set group =>   2
Atom   5C    basis set group =>   1
Atom   6H    basis set group =>   2
Atom   7C    basis set group =>   1
Atom   8H    basis set group =>   2
Atom   9C    basis set group =>   1
Atom  10H    basis set group =>   2
Atom  11O    basis set group =>   3
Atom  12O    basis set group =>   3
Atom  13O    basis set group =>   3
Atom  14O    basis set group =>   3
Atom  15O    basis set group =>   3
Atom  16O    basis set group =>   3
Atom  17H    basis set group =>   2
Atom  18H    basis set group =>   2
Atom  19H    basis set group =>   2
Atom  20H    basis set group =>   2
Atom  21H    basis set group =>   2
Atom  22H    basis set group =>   2
Atom  23H    basis set group =>   2
---------------------------------
AUXILIARY/J BASIS SET INFORMATION
---------------------------------
There are 3 groups of distinct atoms

 Group   1 Type C   : 12s5p4d2f1g contracted to 6s4p3d1f1g pattern {711111/2111/211/2/1}
 Group   2 Type H   : 5s2p1d contracted to 3s1p1d pattern {311/2/1}
 Group   3 Type O   : 12s5p4d2f1g contracted to 6s4p3d1f1g pattern {711111/2111/211/2/1}

Atom   0C    basis set group =>   1
Atom   1C    basis set group =>   1
Atom   2H    basis set group =>   2
Atom   3C    basis set group =>   1
Atom   4H    basis set group =>   2
Atom   5C    basis set group =>   1
Atom   6H    basis set group =>   2
Atom   7C    basis set group =>   1
Atom   8H    basis set group =>   2
Atom   9C    basis set group =>   1
Atom  10H    basis set group =>   2
Atom  11O    basis set group =>   3
Atom  12O    basis set group =>   3
Atom  13O    basis set group =>   3
Atom  14O    basis set group =>   3
Atom  15O    basis set group =>   3
Atom  16O    basis set group =>   3
Atom  17H    basis set group =>   2
Atom  18H    basis set group =>   2
Atom  19H    basis set group =>   2
Atom  20H    basis set group =>   2
Atom  21H    basis set group =>   2
Atom  22H    basis set group =>   2
Atom  23H    basis set group =>   2
------------------------------------------------------------------------------
                             ORCA STARTUP CALCULATIONS
                           -- RI-GTO INTEGRALS CHOSEN --
------------------------------------------------------------------------------
------------------------------------------------------------------------------
                   ___                                                        
                  /   \      - P O W E R E D   B Y -                         
                 /     \                                                     
                 |  |  |   _    _      __       _____    __    __             
                 |  |  |  | |  | |    /  \     |  _  \  |  |  /  |          
                  \  \/   | |  | |   /    \    | | | |  |  | /  /          
                 / \  \   | |__| |  /  /\  \   | |_| |  |  |/  /          
                |  |  |   |  __  | /  /__\  \  |    /   |      \           
                |  |  |   | |  | | |   __   |  |    \   |  |\   \          
                \     /   | |  | | |  |  |  |  | |\  \  |  | \   \       
                 \___/    |_|  |_| |__|  |__|  |_| \__\ |__|  \__/        
                                                                              
                      - O R C A' S   B I G   F R I E N D -                    
                                      &                                       
                       - I N T E G R A L  F E E D E R -                       
                                                                              
 v1 FN, 2020, v2 2021, v3 2022-2024                                           
------------------------------------------------------------------------------


----------------------
SHARK INTEGRAL PACKAGE
----------------------

Number of atoms                             ...     24
Number of basis functions                   ...    192
Number of shells                            ...     96
Maximum angular momentum                    ...      2
Integral batch strategy                     ... SHARK/LIBINT Hybrid
RI-J (if used) integral strategy            ... SPLIT-RIJ (Revised 2003 algorithm where possible)
Printlevel                                  ...      1
Contraction scheme used                     ... SEGMENTED contraction
Prescreening option                         ... SCHWARTZ
   Thresh                                   ... 1.000e-09
   Tcut                                     ... 1.000e-10
   Tpresel                                  ... 1.000e-10 
Coulomb Range Separation                    ... NOT USED
Exchange Range Separation                   ... NOT USED
Multipole approximations                    ... NOT USED
Finite Nucleus Model                        ... NOT USED
CABS basis                                  ... NOT available
Auxiliary Coulomb fitting basis             ... AVAILABLE
   # of basis functions in Aux-J            ...    720
   # of shells in Aux-J                     ...    240
   Maximum angular momentum in Aux-J        ...      4
Auxiliary J/K fitting basis                 ... NOT available
Auxiliary Correlation fitting basis         ... NOT available
Auxiliary 'external' fitting basis          ... NOT available

Checking pre-screening integrals            ... done (  0.0 sec) Dimension = 96
Check shell pair data                       ... done (  0.0 sec)
Shell pair information
Shell pair cut-off parameter TPreSel        ...   1.0e-10
Total number of shell pairs                 ...      4656
Shell pairs after pre-screening             ...      4202
Total number of primitive shell pairs       ...     18720
Primitive shell pairs kept                  ...     11330
          la=0 lb=0:   1638 shell pairs
          la=1 lb=0:   1336 shell pairs
          la=1 lb=1:    288 shell pairs
          la=2 lb=0:    612 shell pairs
          la=2 lb=1:    263 shell pairs
          la=2 lb=2:     65 shell pairs

Calculating one electron integrals          ... done (  0.0 sec)
Calculating RI/J V-Matrix + Cholesky decomp.... done (  0.1 sec)
Calculating Nuclear repulsion               ... done (  0.0 sec) ENN=    843.129027870400 Eh

Diagonalization of the overlap matrix:
Smallest eigenvalue                        ... 4.334e-04
Time for diagonalization                   ...    0.003 sec
Threshold for overlap eigenvalues          ... 1.000e-07
Number of eigenvalues below threshold      ... 0
Time for construction of square roots      ...    0.013 sec
Total time needed                          ...    0.026 sec

-------------------
DFT GRID GENERATION
-------------------

General Integration Accuracy     IntAcc      ... 4.159
Radial Grid Type                 RadialGrid  ... OptM3 with GC (2021)
Angular Grid (max. ang.)         AngularGrid ... 3 (Lebedev-194)
Angular grid pruning method      GridPruning ... 4 (adaptive)
Weight generation scheme         WeightScheme... mBecke (2022)
Basis function cutoff            BFCut       ... 1.0000e-10
Integration weight cutoff        WCut        ... 1.0000e-14
Partially contracted basis set               ... off
Rotationally invariant grid construction     ... off
Angular grids for H and He will be reduced by one unit

Total number of grid points                  ...    55706
Total number of batches                      ...      882
Average number of points per batch           ...       63
Average number of grid points per atom       ...     2321
Initializing property integral containers    ... done (  0.0 sec)

SHARK setup successfully completed in   0.9 seconds

Maximum memory used throughout the entire STARTUP-calculation: 28.1 MB
-------------------------------------------------------------------------------
                                 ORCA GUESS
                   Start orbitals & Density for SCF / CASSCF
-------------------------------------------------------------------------------

------------
SCF SETTINGS
------------
Hamiltonian:
 Density Functional     Method          .... DFT(GTOs)
 Exchange Functional    Exchange        .... PBE
   PBE kappa parameter   XKappa         ....  0.804000
   PBE mue parameter    XMuePBE         ....  0.219520
 Correlation Functional Correlation     .... PBE
   PBE beta parameter  CBetaPBE         ....  0.066725
 LDA part of GGA corr.  LDAOpt          .... PW91-LDA
 Gradients option       PostSCFGGA      .... off
   NL short-range parameter             ....  6.400000
 RI-approximation to the Coulomb term is turned on
   Number of AuxJ basis functions       .... 720


General Settings:
 Integral files         IntName         .... sp
 Hartree-Fock type      HFTyp           .... RHF
 Total Charge           Charge          ....    0
 Multiplicity           Mult            ....    1
 Number of Electrons    NEL             ....   96
 Basis Dimension        Dim             ....  192
 Nuclear Repulsion      ENuc            ....    843.1290278704 Eh

Convergence Acceleration:
 AO-DIIS                CNVDIIS         .... on
   Start iteration      DIISMaxIt       ....    12
   Startup error        DIISStart       ....  0.200000
   # of expansion vecs  DIISMaxEq       ....     5
   Bias factor          DIISBfac        ....   1.050
   Max. coefficient     DIISMaxC        ....  10.000
 MO-DIIS                CNVKDIIS        .... off
 Trust-Rad. Augm. Hess. CNVTRAH         .... auto
   Auto Start mean grad. ratio tolernc. ....  1.125000
   Auto Start start iteration           ....    50
   Auto Start num. interpolation iter.  ....    10
   Max. Number of Micro iterations      ....    24
   Max. Number of Macro iterations      .... Maxiter - #DIIS iter
   Number of Davidson start vectors     ....     2
   Converg. threshold    (grad. norm)   ....   1.000e-04
   Grad. Scal. Fac. for Micro threshold ....   0.100
   Minimum threshold for Micro iter.    ....   1.000e-02
   NR start threshold (gradient norm)   ....   1.000e-04
   Initial trust radius                 ....   0.400
   Minimum AH scaling param. (alpha)    ....   1.000
   Maximum AH scaling param. (alpha)    .... 1000.000
   Quad. conv. algorithm                .... NR
   White noise on init. David. guess    .... on
   Maximum white noise                  ....   0.010
   Pseudo random numbers                .... off
   Inactive MOs                         .... canonical
   Orbital update algorithm             .... Taylor
   Preconditioner                       .... Diag
   Full preconditioner red. dimension   ....   250
 SOSCF                  CNVSOSCF        .... on
   Start iteration      SOSCFMaxIt      ....   150
   Startup grad/error   SOSCFStart      ....  0.003300
   Hessian update       SOSCFHessUp     .... L-BFGS
 Level Shifting         CNVShift        .... on
   Level shift para.    LevelShift      ....    0.2500
   Turn off err/grad.   ShiftErr        ....    0.0010
 Zerner damping         CNVZerner       .... off
 Static damping         CNVDamp         .... on
   Fraction old density DampFac         ....    0.7000
   Max. Damping (<1)    DampMax         ....    0.9800
   Min. Damping (>=0)   DampMin         ....    0.0000
   Turn off err/grad.   DampErr         ....    0.1000

SCF Procedure:
 Maximum # iterations   MaxIter         ....   125
 SCF integral mode      SCFMode         .... Direct
   Integral package                     .... SHARK and LIBINT hybrid scheme
 Reset frequency        DirectResetFreq ....    20
 Integral Threshold     Thresh          ....  1.000e-09 Eh
 Primitive CutOff       TCut            ....  1.000e-10 Eh

Convergence Tolerance:
 Convergence Check Mode ConvCheckMode   .... Total+1el-Energy
 Convergence forced     ConvForced      .... 0
 Energy Change          TolE            ....  1.000e-05 Eh
 1-El. energy change                    ....  1.000e-02 Eh
 Orbital Gradient       TolG            ....  1.000e-04
 Orbital Rotation angle TolX            ....  1.000e-04
 DIIS Error             TolErr          ....  5.000e-04

------------------------------
INITIAL GUESS: MODEL POTENTIAL
------------------------------
Loading Hartree-Fock densities                     ... done
Calculating cut-offs                               ... done
Initializing the effective Hamiltonian             ... done
Setting up the integral package (SHARK)            ... done
Starting the Coulomb interaction                   ... done (   0.2 sec)
Making the grid                                    ... done (   0.3 sec)
Mapping shells                                     ... done
Starting the XC term evaluation                    ... done (   0.3 sec)
  promolecular density results
     # of electrons  =     95.993826170
     EX              =    -83.234804683
     EC              =     -3.269094665
     EX+EC           =    -86.503899348
Transforming the Hamiltonian                       ... done (   0.0 sec)
Diagonalizing the Hamiltonian                      ... done (   0.0 sec)
Back transforming the eigenvectors                 ... done (   0.0 sec)
Now organizing SCF variables                       ... done
                      ------------------
                      INITIAL GUESS DONE (   0.8 sec)
                      ------------------
             **** ENERGY FILE WAS UPDATED (sp.en.tmp) ****
Finished Guess after   1.1 sec
Maximum memory used throughout the entire GUESS-calculation: 21.8 MB

-------------------------------------------------------------------------------------------
                                      ORCA LEAN-SCF
                              memory conserving SCF solver
-------------------------------------------------------------------------------------------

----------------------------------------D-I-I-S--------------------------------------------
Iteration    Energy (Eh)           Delta-E    RMSDP     MaxDP     DIISErr   Damp  Time(sec)
-------------------------------------------------------------------------------------------
               ***  Starting incremental Fock matrix formation  ***
    1    -685.5138636691858665     0.00e+00  4.96e-03  1.49e-01  2.38e-01  0.700   1.3
    2    -685.6657707973463403    -1.52e-01  3.25e-03  1.06e-01  9.56e-02  0.700   1.2
                               ***Turning on AO-DIIS***
    3    -685.7138231228386758    -4.81e-02  1.14e-03  2.85e-02  1.84e-02  0.700   1.2
    4    -685.7457551302782122    -3.19e-02  1.44e-03  2.35e-02  1.06e-02  0.000   1.1
    5    -685.8196372861173131    -7.39e-02  4.97e-04  1.84e-02  5.53e-03  0.000   1.1
                              *** Initializing SOSCF ***
---------------------------------------S-O-S-C-F--------------------------------------
Iteration    Energy (Eh)           Delta-E    RMSDP     MaxDP     MaxGrad    Time(sec)
--------------------------------------------------------------------------------------
    6    -685.8199614287370878    -3.24e-04  1.47e-04  4.00e-03  1.51e-03     1.1
               *** Restarting incremental Fock matrix formation ***
    7    -685.8199893169635288    -2.79e-05  1.04e-04  2.88e-03  1.60e-04     1.2
    8    -685.8199874879151139     1.83e-06  4.05e-05  7.47e-04  3.05e-04     1.0
                 **** Energy Check signals convergence ****

               *****************************************************
               *                     SUCCESS                       *
               *           SCF CONVERGED AFTER   8 CYCLES          *
               *****************************************************

             **** ENERGY FILE WAS UPDATED (sp.en.tmp) ****

----------------
TOTAL SCF ENERGY
----------------

Total Energy       :       -685.81998748791511 Eh          -18662.11062 eV

Components:
Nuclear Repulsion  :        843.12902787040025 Eh           22942.70723 eV
Electronic Energy  :      -1528.94901535831536 Eh          -41604.81786 eV
One Electron Energy:      -2615.72691530826978 Eh          -71177.54796 eV
Two Electron Energy:       1086.77789994995442 Eh           29572.73011 eV

Virial components:
Potential Energy   :      -1366.91789732279904 Eh          -37195.72698 eV
Kinetic Energy     :        681.09790983488392 Eh           18533.61636 eV
Virial Ratio       :          2.00693303794483

DFT components:
N(Alpha)           :       48.000039040720 electrons
N(Beta)            :       48.000039040720 electrons
N(Total)           :       96.000078081439 electrons
E(X)               :      -84.605328714666 Eh       
E(C)               :       -3.282380755789 Eh       
E(XC)              :      -87.887709470455 Eh       

---------------
SCF CONVERGENCE
---------------

  Last Energy change         ...   -1.8290e-06  Tolerance :   1.0000e-05
  Last MAX-Density change    ...    7.4687e-04  Tolerance :   1.0000e-03
  Last RMS-Density change    ...    4.0521e-05  Tolerance :   1.0000e-04
  Last DIIS Error            ...    1.5098e-03  Tolerance :   5.0000e-04
  Last Orbital Gradient      ...    3.0464e-04  Tolerance :   1.0000e-04
  Last Orbital Rotation      ...    1.7032e-04  Tolerance :   1.0000e-04


----------------
ORBITAL ENERGIES
----------------

  NO   OCC          E(Eh)            E(eV) 
   0   2.0000     -18.776911      -510.9457 
   1   2.0000     -18.765053      -510.6230 
   2   2.0000     -18.762563      -510.5553 
   3   2.0000     -18.754050      -510.3236 
   4   2.0000     -18.747369      -510.1419 
   5   2.0000     -18.733000      -509.7509 
   6   2.0000      -9.989628      -271.8316 
   7   2.0000      -9.947618      -270.6885 
   8   2.0000      -9.939786      -270.4753 
   9   2.0000      -9.939711      -270.4733 
  10   2.0000      -9.935757      -270.3657 
  11   2.0000      -9.918484      -269.8957 
  12   2.0000      -0.984832       -26.7986 
  13   2.0000      -0.942862       -25.6566 
  14   2.0000      -0.935870       -25.4663 
  15   2.0000      -0.924503       -25.1570 
  16   2.0000      -0.916250       -24.9324 
  17   2.0000      -0.905636       -24.6436 
  18   2.0000      -0.700277       -19.0555 
  19   2.0000      -0.691282       -18.8107 
  20   2.0000      -0.616988       -16.7891 
  21   2.0000      -0.582790       -15.8585 
  22   2.0000      -0.564602       -15.3636 
  23   2.0000      -0.527513       -14.3544 
  24   2.0000      -0.508047       -13.8247 
  25   2.0000      -0.483440       -13.1551 
  26   2.0000      -0.473231       -12.8773 
  27   2.0000      -0.456650       -12.4261 
  28   2.0000      -0.448544       -12.2055 
  29   2.0000      -0.424019       -11.5381 
  30   2.0000      -0.410387       -11.1672 
  31   2.0000      -0.398850       -10.8533 
  32   2.0000      -0.382888       -10.4189 
  33   2.0000      -0.363310        -9.8862 
  34   2.0000      -0.361992        -9.8503 
  35   2.0000      -0.349602        -9.5132 
  36   2.0000      -0.340280        -9.2595 
  37   2.0000      -0.318082        -8.6555 
  38   2.0000      -0.299937        -8.1617 
  39   2.0000      -0.297791        -8.1033 
  40   2.0000      -0.276432        -7.5221 
  41   2.0000      -0.261689        -7.1209 
  42   2.0000      -0.250682        -6.8214 
  43   2.0000      -0.245006        -6.6669 
  44   2.0000      -0.235818        -6.4169 
  45   2.0000      -0.221131        -6.0173 
  46   2.0000      -0.208926        -5.6852 
  47   2.0000      -0.193410        -5.2629 
  48   0.0000       0.009496         0.2584 
  49   0.0000       0.022785         0.6200 
  50   0.0000       0.033654         0.9158 
  51   0.0000       0.041564         1.1310 
  52   0.0000       0.061557         1.6750 
  53   0.0000       0.072120         1.9625 
  54   0.0000       0.081649         2.2218 
  55   0.0000       0.094606         2.5744 
  56   0.0000       0.101735         2.7684 
  57   0.0000       0.104832         2.8526 
  58   0.0000       0.118290         3.2188 
*Only the first 10 virtual orbitals were printed.

                    ********************************
                    * MULLIKEN POPULATION ANALYSIS *
                    ********************************

-----------------------
MULLIKEN ATOMIC CHARGES
-----------------------
   0 C :    0.096157
   1 C :    0.017585
   2 H :    0.051956
   3 C :    0.045318
   4 H :    0.040527
   5 C :    0.106161
   6 H :    0.045436
   7 C :   -0.018641
   8 H :    0.074531
   9 C :    0.182260
  10 H :    0.069498
  11 O :   -0.299675
  12 O :   -0.407659
  13 O :   -0.405487
  14 O :   -0.435754
  15 O :   -0.414611
  16 O :   -0.429681
  17 H :    0.066513
  18 H :    0.087935
  19 H :    0.311445
  20 H :    0.310075
  21 H :    0.305680
  22 H :    0.307593
  23 H :    0.292839
Sum of atomic charges:   -0.0000000

--------------------------------
MULLIKEN REDUCED ORBITAL CHARGES
--------------------------------
  0 C s       :     3.005154  s :     3.005154
      pz      :     0.972162  p :     2.835376
      px      :     0.957289
      py      :     0.905925
      dz2     :     0.014329  d :     0.063313
      dxz     :     0.007952
      dyz     :     0.013116
      dx2y2   :     0.012237
      dxy     :     0.015678

  1 C s       :     3.045794  s :     3.045794
      pz      :     1.081961  p :     2.870755
      px      :     0.961279
      py      :     0.827515
      dz2     :     0.014592  d :     0.065867
      dxz     :     0.007359
      dyz     :     0.013382
      dx2y2   :     0.013406
      dxy     :     0.017127

  2 H s       :     0.948044  s :     0.948044

  3 C s       :     3.030162  s :     3.030162
      pz      :     1.108181  p :     2.856771
      px      :     0.902766
      py      :     0.845823
      dz2     :     0.013578  d :     0.067749
      dxz     :     0.007667
      dyz     :     0.012978
      dx2y2   :     0.015588
      dxy     :     0.017938

  4 H s       :     0.959473  s :     0.959473

  5 C s       :     2.996872  s :     2.996872
      pz      :     0.850087  p :     2.829771
      px      :     0.932401
      py      :     1.047283
      dz2     :     0.012284  d :     0.067196
      dxz     :     0.014499
      dyz     :     0.017988
      dx2y2   :     0.011905
      dxy     :     0.010521

  6 H s       :     0.954564  s :     0.954564

  7 C s       :     3.066735  s :     3.066735
      pz      :     0.752522  p :     2.885263
      px      :     1.070254
      py      :     1.062487
      dz2     :     0.019673  d :     0.066644
      dxz     :     0.014949
      dyz     :     0.015714
      dx2y2   :     0.010935
      dxy     :     0.005373

  8 H s       :     0.925469  s :     0.925469

  9 C s       :     2.995888  s :     2.995888
      pz      :     0.776950  p :     2.721668
      px      :     0.840398
      py      :     1.104320
      dz2     :     0.025364  d :     0.100183
      dxz     :     0.025716
      dyz     :     0.014576
      dx2y2   :     0.017695
      dxy     :     0.016833

 10 H s       :     0.930502  s :     0.930502

 11 O s       :     3.750368  s :     3.750368
      pz      :     1.785041  p :     4.534128
      px      :     1.226223
      py      :     1.522864
      dz2     :     0.002300  d :     0.015178
      dxz     :     0.001765
      dyz     :     0.001874
      dx2y2   :     0.004514
      dxy     :     0.004725

 12 O s       :     3.765645  s :     3.765645
      pz      :     1.299947  p :     4.627522
      px      :     1.835313
      py      :     1.492263
      dz2     :     0.003410  d :     0.014492
      dxz     :     0.001996
      dyz     :     0.004226
      dx2y2   :     0.003109
      dxy     :     0.001751

 13 O s       :     3.789470  s :     3.789470
      pz      :     1.262567  p :     4.600646
      px      :     1.746818
      py      :     1.591261
      dz2     :     0.003621  d :     0.015371
      dxz     :     0.002865
      dyz     :     0.003702
      dx2y2   :     0.001366
      dxy     :     0.003816

 14 O s       :     3.787760  s :     3.787760
      pz      :     1.332898  p :     4.632627
      px      :     1.739735
      py      :     1.559994
      dz2     :     0.001237  d :     0.015366
      dxz     :     0.001648
      dyz     :     0.007062
      dx2y2   :     0.003172
      dxy     :     0.002249

 15 O s       :     3.783721  s :     3.783721
      pz      :     1.709843  p :     4.615591
      px      :     1.636566
      py      :     1.269183
      dz2     :     0.001376  d :     0.015299
      dxz     :     0.002588
      dyz     :     0.004742
      dx2y2   :     0.002435
      dxy     :     0.004158

 16 O s       :     3.783817  s :     3.783817
      pz      :     1.197675  p :     4.630192
      px      :     1.839707
      py      :     1.592809
      dz2     :     0.004938  d :     0.015672
      dxz     :     0.000913
      dyz     :     0.004733
      dx2y2   :     0.002465
      dxy     :     0.002623

 17 H s       :     0.933487  s :     0.933487

 18 H s       :     0.912065  s :     0.912065

 19 H s       :     0.688555  s :     0.688555

 20 H s       :     0.689925  s :     0.689925

 21 H s       :     0.694320  s :     0.694320

 22 H s       :     0.692407  s :     0.692407

 23 H s       :     0.707161  s :     0.707161


------------------------
MULLIKEN OVERLAP CHARGES
------------------------
B(  0-C ,  1-C ) :   0.5320 B(  0-C ,  2-H ) :  -0.0974 B(  0-C ,  3-C ) :   0.0666 
B(  0-C ,  4-H ) :  -0.0675 B(  0-C , 11-O ) :  -0.0834 B(  0-C , 16-O ) :   0.7217 
B(  0-C , 17-H ) :   0.6256 B(  0-C , 18-H ) :   0.6938 B(  0-C , 23-H ) :  -0.1015 
B(  1-C ,  2-H ) :   0.5803 B(  1-C ,  3-C ) :  -0.0717 B(  1-C ,  5-C ) :   0.0550 
B(  1-C ,  9-C ) :  -0.1098 B(  1-C , 11-O ) :   0.5433 B(  1-C , 15-O ) :  -0.1042 
B(  1-C , 16-O ) :  -0.1032 B(  1-C , 18-H ) :  -0.1002 B(  2-H ,  5-C ) :  -0.0806 
B(  2-H , 11-O ) :  -0.0616 B(  3-C ,  4-H ) :   0.5303 B(  3-C ,  5-C ) :   0.1953 
B(  3-C ,  7-C ) :   0.0685 B(  3-C ,  9-C ) :  -0.0775 B(  3-C , 14-O ) :  -0.0992 
B(  3-C , 15-O ) :   0.5624 B(  3-C , 22-H ) :  -0.0936 B(  4-H , 15-O ) :  -0.0581 
B(  5-C ,  6-H ) :   0.4922 B(  5-C ,  7-C ) :   0.1218 B(  5-C ,  8-H ) :  -0.1091 
B(  5-C ,  9-C ) :   0.0601 B(  5-C , 11-O ) :  -0.0721 B(  5-C , 13-O ) :  -0.0573 
B(  5-C , 14-O ) :   0.5536 B(  5-C , 15-O ) :  -0.0731 B(  5-C , 21-H ) :  -0.1168 
B(  6-H , 14-O ) :  -0.0510 B(  7-C ,  8-H ) :   0.6273 B(  7-C ,  9-C ) :   0.2701 
B(  7-C , 12-O ) :  -0.1482 B(  7-C , 13-O ) :   0.4588 B(  7-C , 20-H ) :  -0.0705 
B(  9-C , 10-H ) :   0.6711 B(  9-C , 11-O ) :   0.7043 B(  9-C , 12-O ) :   0.6153 
B(  9-C , 13-O ) :  -0.0776 B( 10-H , 11-O ) :  -0.0827 B( 10-H , 12-O ) :  -0.0662 
B( 11-O , 12-O ) :  -0.1443 B( 12-O , 19-H ) :   0.5030 B( 12-O , 21-H ) :   0.0546 
B( 13-O , 20-H ) :   0.5267 B( 14-O , 21-H ) :   0.5529 B( 15-O , 18-H ) :   0.0509 
B( 15-O , 22-H ) :   0.5184 B( 16-O , 17-H ) :  -0.0696 B( 16-O , 18-H ) :  -0.0598 
B( 16-O , 23-H ) :   0.5307 B( 17-H , 18-H ) :  -0.0608 


                     *******************************
                     * LOEWDIN POPULATION ANALYSIS *
                     *******************************

----------------------
LOEWDIN ATOMIC CHARGES
----------------------
   0 C :   -0.128575
   1 C :   -0.067757
   2 H :    0.105299
   3 C :   -0.077469
   4 H :    0.101157
   5 C :   -0.079944
   6 H :    0.112249
   7 C :   -0.091918
   8 H :    0.109910
   9 C :    0.002111
  10 H :    0.101087
  11 O :   -0.136493
  12 O :   -0.318032
  13 O :   -0.308075
  14 O :   -0.322784
  15 O :   -0.318070
  16 O :   -0.334424
  17 H :    0.112041
  18 H :    0.104644
  19 H :    0.291516
  20 H :    0.292718
  21 H :    0.278497
  22 H :    0.290718
  23 H :    0.281594

-------------------------------
LOEWDIN REDUCED ORBITAL CHARGES
-------------------------------
  0 C s       :     2.917080  s :     2.917080
      pz      :     1.023988  p :     3.067046
      px      :     1.042891
      py      :     1.000166
      dz2     :     0.032220  d :     0.144449
      dxz     :     0.016197
      dyz     :     0.029388
      dx2y2   :     0.029880
      dxy     :     0.036765

  1 C s       :     2.901197  s :     2.901197
      pz      :     1.097488  p :     3.015300
      px      :     0.999225
      py      :     0.918587
      dz2     :     0.033506  d :     0.151261
      dxz     :     0.014775
      dyz     :     0.032454
      dx2y2   :     0.031822
      dxy     :     0.038703

  2 H s       :     0.894701  s :     0.894701

  3 C s       :     2.896352  s :     2.896352
      pz      :     1.096538  p :     3.022824
      px      :     0.984725
      py      :     0.941562
      dz2     :     0.032188  d :     0.158294
      dxz     :     0.016277
      dyz     :     0.031324
      dx2y2   :     0.036733
      dxy     :     0.041772

  4 H s       :     0.898843  s :     0.898843

  5 C s       :     2.900305  s :     2.900305
      pz      :     0.957587  p :     3.022896
      px      :     1.018944
      py      :     1.046365
      dz2     :     0.026195  d :     0.156743
      dxz     :     0.033028
      dyz     :     0.043032
      dx2y2   :     0.028242
      dxy     :     0.026246

  6 H s       :     0.887751  s :     0.887751

  7 C s       :     2.900431  s :     2.900431
      pz      :     0.866422  p :     3.034282
      px      :     1.087501
      py      :     1.080358
      dz2     :     0.045955  d :     0.157206
      dxz     :     0.032832
      dyz     :     0.037236
      dx2y2   :     0.026205
      dxy     :     0.014977

  8 H s       :     0.890090  s :     0.890090

  9 C s       :     2.883177  s :     2.883177
      pz      :     0.887298  p :     2.890007
      px      :     0.904665
      py      :     1.098045
      dz2     :     0.059774  d :     0.224706
      dxz     :     0.054295
      dyz     :     0.032800
      dx2y2   :     0.041560
      dxy     :     0.036276

 10 H s       :     0.898913  s :     0.898913

 11 O s       :     3.467032  s :     3.467032
      pz      :     1.786878  p :     4.639760
      px      :     1.296415
      py      :     1.556467
      dz2     :     0.003909  d :     0.029701
      dxz     :     0.003480
      dyz     :     0.002589
      dx2y2   :     0.009797
      dxy     :     0.009925

 12 O s       :     3.532255  s :     3.532255
      pz      :     1.370279  p :     4.759688
      px      :     1.841740
      py      :     1.547670
      dz2     :     0.007791  d :     0.026088
      dxz     :     0.003530
      dyz     :     0.007834
      dx2y2   :     0.004599
      dxy     :     0.002335

 13 O s       :     3.532882  s :     3.532882
      pz      :     1.340023  p :     4.748033
      px      :     1.773916
      py      :     1.634093
      dz2     :     0.007989  d :     0.027160
      dxz     :     0.005044
      dyz     :     0.006846
      dx2y2   :     0.001701
      dxy     :     0.005580

 14 O s       :     3.531832  s :     3.531832
      pz      :     1.397537  p :     4.764071
      px      :     1.752423
      py      :     1.614110
      dz2     :     0.002800  d :     0.026881
      dxz     :     0.003697
      dyz     :     0.012602
      dx2y2   :     0.004408
      dxy     :     0.003374

 15 O s       :     3.535171  s :     3.535171
      pz      :     1.746816  p :     4.755911
      px      :     1.672048
      py      :     1.337047
      dz2     :     0.002292  d :     0.026989
      dxz     :     0.003378
      dyz     :     0.008325
      dx2y2   :     0.004672
      dxy     :     0.008322

 16 O s       :     3.538678  s :     3.538678
      pz      :     1.284015  p :     4.768501
      px      :     1.837136
      py      :     1.647349
      dz2     :     0.009220  d :     0.027245
      dxz     :     0.002035
      dyz     :     0.008950
      dx2y2   :     0.003310
      dxy     :     0.003730

 17 H s       :     0.887959  s :     0.887959

 18 H s       :     0.895356  s :     0.895356

 19 H s       :     0.708484  s :     0.708484

 20 H s       :     0.707282  s :     0.707282

 21 H s       :     0.721503  s :     0.721503

 22 H s       :     0.709282  s :     0.709282

 23 H s       :     0.718406  s :     0.718406


---------------------------------
LOEWDIN BOND ORDERS (THRESH 0.050000)
---------------------------------
B(  0-C ,  1-C ) :   1.0662 B(  0-C ,  3-C ) :   0.0582 B(  0-C , 11-O ) :   0.0559 
B(  0-C , 16-O ) :   1.2554 B(  0-C , 17-H ) :   0.9064 B(  0-C , 18-H ) :   0.8982 
B(  1-C ,  2-H ) :   0.8625 B(  1-C ,  3-C ) :   1.0169 B(  1-C ,  5-C ) :   0.0555 
B(  1-C ,  9-C ) :   0.0608 B(  1-C , 11-O ) :   1.1186 B(  1-C , 15-O ) :   0.0598 
B(  1-C , 16-O ) :   0.0808 B(  3-C ,  4-H ) :   0.8644 B(  3-C ,  5-C ) :   1.0156 
B(  3-C ,  7-C ) :   0.0529 B(  3-C , 11-O ) :   0.0609 B(  3-C , 14-O ) :   0.0766 
B(  3-C , 15-O ) :   1.2145 B(  5-C ,  6-H ) :   0.8702 B(  5-C ,  7-C ) :   1.0084 
B(  5-C ,  9-C ) :   0.0543 B(  5-C , 13-O ) :   0.0776 B(  5-C , 14-O ) :   1.2310 
B(  5-C , 15-O ) :   0.0767 B(  7-C ,  8-H ) :   0.8670 B(  7-C ,  9-C ) :   1.0214 
B(  7-C , 11-O ) :   0.0557 B(  7-C , 12-O ) :   0.0644 B(  7-C , 13-O ) :   1.2230 
B(  7-C , 14-O ) :   0.0820 B(  9-C , 10-H ) :   0.8831 B(  9-C , 11-O ) :   1.2164 
B(  9-C , 12-O ) :   1.2343 B(  9-C , 13-O ) :   0.0627 B( 11-O , 12-O ) :   0.0953 
B( 12-O , 19-H ) :   0.8717 B( 13-O , 20-H ) :   0.8809 B( 14-O , 21-H ) :   0.8718 
B( 15-O , 22-H ) :   0.8774 B( 16-O , 23-H ) :   0.8900 

------------------------------------------
LOEWDIN REDUCED ORBITAL POPULATIONS PER MO
-------------------------------------------
THRESHOLD FOR PRINTING IS 0.1%%
                      0         1         2         3         4         5   
                 -18.77691 -18.76505 -18.76256 -18.75405 -18.74737 -18.73300
                   2.00000   2.00000   2.00000   2.00000   2.00000   2.00000
                  --------  --------  --------  --------  --------  --------
11 O  s               0.0       0.0      99.9       0.0       0.0       0.0
12 O  s              99.9       0.0       0.0       0.0       0.0       0.0
13 O  s               0.0      99.9       0.0       0.0       0.0       0.0
14 O  s               0.0       0.0       0.0       0.0      99.9       0.0
15 O  s               0.0       0.0       0.0      99.9       0.0       0.0
16 O  s               0.0       0.0       0.0       0.0       0.0      99.9

                      6         7         8         9        10        11   
                  -9.98963  -9.94762  -9.93979  -9.93971  -9.93576  -9.91848
                   2.00000   2.00000   2.00000   2.00000   2.00000   2.00000
                  --------  --------  --------  --------  --------  --------
 0 C  s               0.0       0.0       0.0       0.0       0.0      99.6
 1 C  s               0.0       0.0       0.0       0.0      99.6       0.0
 3 C  s               0.0       0.0      25.8      73.8       0.0       0.0
 5 C  s               0.0       0.0      73.8      25.8       0.0       0.0
 7 C  s               0.0      99.6       0.0       0.0       0.0       0.0
 9 C  s              99.6       0.0       0.0       0.0       0.0       0.0
11 O  px              0.1       0.0       0.0       0.0       0.0       0.0
12 O  pz              0.1       0.0       0.0       0.0       0.0       0.0
13 O  pz              0.0       0.1       0.0       0.0       0.0       0.0

                     12        13        14        15        16        17   
                  -0.98483  -0.94286  -0.93587  -0.92450  -0.91625  -0.90564
                   2.00000   2.00000   2.00000   2.00000   2.00000   2.00000
                  --------  --------  --------  --------  --------  --------
 0 C  s               0.3       0.0       0.2       2.3       2.6       5.7
 0 C  pz              0.0       0.0       0.0       0.5       0.8       2.6
 0 C  px              0.3       0.0       0.0       0.1       0.0       1.7
 0 C  py              0.0       0.0       0.0       0.4       1.0       2.8
 0 C  dxz             0.0       0.0       0.0       0.0       0.0       0.1
 0 C  dyz             0.0       0.0       0.0       0.1       0.1       0.4
 0 C  dxy             0.0       0.0       0.0       0.0       0.0       0.1
 1 C  s               3.4       0.1       0.7       3.7       1.4       0.5
 1 C  pz              0.2       0.0       0.2       0.1       0.0       0.1
 1 C  px              1.5       0.0       0.0       0.2       0.1       2.9
 1 C  py              1.4       0.4       0.5       1.0       1.9       0.5
 1 C  dxy             0.2       0.0       0.0       0.1       0.1       0.2
 2 H  s               0.5       0.1       0.0       0.5       0.1       0.0
 3 C  s               0.9       2.2       7.2       0.7       0.7       0.0
 3 C  pz              0.1       0.0       0.0       0.2       0.0       0.0
 3 C  px              0.0       0.1       1.2       1.7       1.9       0.1
 3 C  py              0.2       1.0       3.2       0.1       1.9       0.2
 3 C  dz2             0.0       0.0       0.1       0.0       0.0       0.0
 3 C  dxy             0.0       0.1       0.3       0.1       0.2       0.0
 4 H  s               0.3       0.2       0.9       0.0       0.0       0.0
 5 C  s               1.0       4.0       1.9       3.1       1.9       0.0
 5 C  pz              0.0       0.2       2.0       2.5       1.8       0.0
 5 C  px              0.0       0.2       0.4       2.0       1.3       0.0
 5 C  py              0.4       0.0       0.5       0.4       0.4       0.0
 5 C  dxz             0.0       0.0       0.0       0.2       0.2       0.0
 6 H  s               0.1       0.8       0.3       0.3       0.1       0.0
 7 C  s               3.2       6.5       1.9       0.1       0.1       0.0
 7 C  pz              0.1       5.3       3.9       0.6       0.6       0.1
 7 C  px              0.5       0.1       0.0       0.0       0.1       0.1
 7 C  py              0.8       0.4       0.2       0.3       0.2       0.0
 7 C  dz2             0.0       0.5       0.3       0.0       0.0       0.0
 8 H  s               0.5       0.8       0.2       0.1       0.0       0.0
 9 C  s              15.8       0.5       0.1       0.0       0.0       0.1
 9 C  pz              2.0       2.8       0.1       2.7       1.7       1.8
 9 C  px              1.8       0.1       0.1       3.1       1.8       2.9
 9 C  py              0.1       0.7       0.1       0.1       0.0       0.1
 9 C  dz2             0.1       0.1       0.0       0.4       0.3       0.3
 9 C  dx2y2           0.2       0.0       0.0       0.1       0.1       0.1
10 H  s               1.8       0.0       0.0       0.0       0.0       0.0
11 O  s              21.9       0.5       0.1      12.6       7.1      11.8
11 O  px              0.9       0.1       0.0       0.0       0.0       0.1
11 O  py              1.0       0.0       0.0       0.7       0.4       0.5
12 O  s              25.1       7.8       0.1      11.2       8.7       7.6
12 O  pz              1.1       0.1       0.0       0.0       0.0       0.0
12 O  px              0.4       0.1       0.0       0.0       0.0       0.0
12 O  py              0.6       0.3       0.0       0.3       0.3       0.2
13 O  s               3.0      34.6      17.9       0.1       2.3       0.8
13 O  pz              0.2       0.6       0.3       0.0       0.0       0.0
13 O  px              0.0       0.5       0.3       0.0       0.0       0.0
13 O  py              0.0       0.9       0.4       0.0       0.1       0.0
14 O  s               0.8       7.7       7.5      23.7      17.9       0.3
14 O  px              0.0       0.1       0.1       0.1       0.1       0.0
14 O  py              0.1       0.4       0.4       1.2       0.8       0.0
15 O  s               0.4       6.9      32.0       4.3      14.5       0.3
15 O  pz              0.0       0.1       0.6       0.1       0.3       0.0
15 O  px              0.0       0.3       1.3       0.1       0.5       0.0
16 O  s               0.1       0.0       0.2       6.5      11.0      41.0
16 O  pz              0.0       0.0       0.0       0.0       0.0       0.2
16 O  px              0.0       0.0       0.0       0.1       0.1       0.3
16 O  py              0.0       0.0       0.0       0.4       0.6       1.9
17 H  s               0.1       0.0       0.0       0.3       0.3       0.6
18 H  s               0.0       0.0       0.1       0.3       0.2       0.7
19 H  s               4.9       1.6       0.0       2.1       1.8       1.5
20 H  s               0.6       6.9       3.6       0.0       0.5       0.2
21 H  s               0.4       1.4       1.5       5.2       3.2       0.0
22 H  s               0.1       1.4       6.5       0.8       2.8       0.1
23 H  s               0.0       0.0       0.1       1.4       2.3       8.4

                     18        19        20        21        22        23   
                  -0.70028  -0.69128  -0.61699  -0.58279  -0.56460  -0.52751
                   2.00000   2.00000   2.00000   2.00000   2.00000   2.00000
                  --------  --------  --------  --------  --------  --------
 0 C  s               3.1       3.3      12.4       0.7      10.7       0.3
 0 C  pz              0.1       0.1       0.5       0.0       1.7       0.1
 0 C  px              1.7       1.9       0.4       0.1       1.7       0.6
 0 C  py              0.9       0.4       0.7       0.3       0.0       0.1
 1 C  s              11.3       7.7       2.0       0.0       3.2       0.6
 1 C  pz              0.5       0.1       0.0       1.0       0.9       0.0
 1 C  px              0.1       1.0       5.8       0.1       3.6       0.1
 1 C  py              3.1       0.4       0.2       7.1       0.1       1.2
 1 C  dyz             0.0       0.0       0.0       0.1       0.0       0.0
 1 C  dxy             0.1       0.0       0.0       0.1       0.1       0.0
 2 H  s               2.3       1.3       0.4       0.0       1.6       0.1
 3 C  s              12.8       0.1       3.3       9.3       0.0       0.5
 3 C  pz              1.2       0.0       0.0       0.4       0.2       0.0
 3 C  px              1.1       1.8       4.2       0.7       0.7       0.7
 3 C  py              3.1       1.0       0.5       0.8       1.4       0.2
 3 C  dxy             0.2       0.0       0.0       0.0       0.0       0.0
 4 H  s               2.3       0.1       0.7       3.5       0.0       0.1
 5 C  s               8.3       3.6       7.0       3.9       4.2       0.2
 5 C  pz              0.7       0.9       0.1       2.7       0.0       0.2
 5 C  px              1.8       0.3       2.6       4.3       0.2       0.2
 5 C  py              2.0       1.7       0.6       0.2       2.8       0.0
 6 H  s               1.6       0.6       2.8       2.4       2.7       0.0
 7 C  s               3.3      13.1       2.8       3.8       2.0       1.1
 7 C  pz              1.0       3.1       0.2       0.0       0.1       5.8
 7 C  px              0.7       0.3       0.9       0.1       0.2       0.2
 7 C  py              1.0       0.7       4.6       4.8       0.7       0.3
 7 C  dz2             0.0       0.1       0.0       0.0       0.0       0.0
 7 C  dyz             0.0       0.0       0.0       0.1       0.0       0.1
 8 H  s               0.5       2.6       1.3       1.5       0.8       0.0
 9 C  s               0.4      10.6       3.5       4.6       1.4       0.3
 9 C  pz              0.0       1.9       0.5       0.0       0.1       8.2
 9 C  px              1.4       0.6       3.2       0.0       1.2       1.4
 9 C  py              2.8       1.9       0.7       1.0       4.1       2.2
 9 C  dz2             0.0       0.1       0.0       0.0       0.0       0.1
 9 C  dyz             0.0       0.0       0.0       0.0       0.0       0.2
 9 C  dx2y2           0.2       0.0       0.1       0.0       0.0       0.0
10 H  s               0.2       2.2       1.2       1.9       0.9       0.4
11 O  s               4.0       0.4       1.2       1.1       0.1       0.1
11 O  pz              0.1       0.1       0.0       0.5       1.0       0.1
11 O  px              2.5       7.0       0.0       6.7       6.1       3.7
11 O  py              1.3       0.5       0.1       0.3       3.4       1.3
12 O  s               0.0       2.6       0.3       0.7       0.4       0.0
12 O  pz              0.0       4.1       3.0       4.6       0.9      18.1
12 O  px              0.0       0.0       0.2       0.1       0.3       0.2
12 O  py              0.1       1.2       1.0       0.6       0.2       9.8
12 O  dz2             0.0       0.1       0.0       0.0       0.0       0.1
13 O  s               1.1       3.1       0.2       0.8       0.1       0.1
13 O  pz              0.8       3.8       1.7       2.5       3.0      14.2
13 O  px              0.1       0.2       0.0       0.0       0.1       1.1
13 O  py              0.0       0.8       0.9       0.0       0.8       3.9
13 O  dz2             0.0       0.1       0.0       0.0       0.0       0.1
14 O  s               2.9       1.6       1.0       0.5       0.3       0.2
14 O  pz              1.3       0.9       2.8       4.6       5.4       0.8
14 O  px              0.4       0.1       1.3       0.2       1.7       0.1
14 O  py              0.0       0.0       0.2       0.1       0.5       0.0
15 O  s               3.8       0.1       0.7       1.0       0.2       0.0
15 O  pz              0.4       0.0       0.0       0.3       0.0       0.3
15 O  px              0.4       0.0       0.7       0.5       0.1       0.1
15 O  py              3.4       0.2       0.3       9.3       0.0       3.5
16 O  s               0.8       1.2       2.1       0.3       0.8       0.0
16 O  pz              0.4       0.6       4.3       0.9       9.6       0.4
16 O  px              0.1       0.1       0.4       0.2       0.2       0.0
16 O  py              0.1       0.1       0.7       0.1       1.0       0.0
16 O  dyz             0.0       0.0       0.1       0.0       0.1       0.0
17 H  s               0.7       0.8       3.5       0.3       4.9       0.1
18 H  s               0.6       0.6       3.5       0.0       3.6       0.3
19 H  s               0.0       2.3       1.2       1.6       0.1       8.0
20 H  s               0.5       2.3       0.7       0.7       1.2       5.7
21 H  s               1.0       0.7       1.5       1.4       2.4       0.2
22 H  s               2.3       0.1       0.2       3.2       0.0       1.1
23 H  s               0.3       0.5       2.1       0.4       3.3       0.1

                     24        25        26        27        28        29   
                  -0.50805  -0.48344  -0.47323  -0.45665  -0.44854  -0.42402
                   2.00000   2.00000   2.00000   2.00000   2.00000   2.00000
                  --------  --------  --------  --------  --------  --------
 0 C  s               0.4       0.1       0.2       0.3       0.2       0.1
 0 C  pz              2.4       0.2       0.2       0.1       0.8       0.3
 0 C  px              2.1       0.2       1.2       1.0       0.1       2.5
 0 C  py              3.2       0.4       1.3       6.9       4.8       0.1
 1 C  s               4.5       0.5       0.0       0.6       0.2       0.0
 1 C  pz              7.6       2.5       1.4       1.4       2.9       0.8
 1 C  px              1.4       0.9       0.0       1.5       0.9       1.8
 1 C  py              1.4       0.1       4.9       0.9       0.1       1.2
 1 C  dx2y2           0.0       0.1       0.1       0.2       0.0       0.0
 2 H  s               7.1       2.0       1.0       0.0       1.1       0.5
 3 C  s               1.7       0.2       1.1       0.2       0.4       0.2
 3 C  pz              8.2       0.3       8.2       4.4       0.4       0.0
 3 C  px              1.7       8.9       0.1       0.9       2.0       1.5
 3 C  py              0.4       0.4       0.2       7.5       0.6       0.4
 3 C  dxy             0.0       0.2       0.0       0.2       0.0       0.1
 4 H  s               5.4       0.0       3.6       3.4       0.0       0.1
 5 C  s               0.3       0.1       0.1       0.0       0.1       0.7
 5 C  pz              0.8       0.2       6.4       1.4       0.0       7.6
 5 C  px              0.6       6.8       0.4       0.8       1.5       3.4
 5 C  py              6.8       0.0       5.9       1.4       1.3       0.2
 5 C  dxz             0.1       0.0       0.0       0.0       0.0       0.2
 5 C  dyz             0.0       0.0       0.0       0.0       0.1       0.2
 5 C  dxy             0.0       0.1       0.1       0.0       0.0       0.1
 6 H  s               2.2       0.0       0.1       0.9       0.1       3.8
 7 C  s               0.7       2.6       0.1       0.2       0.2       0.0
 7 C  pz              0.2       1.6       1.7       0.9       4.2       3.0
 7 C  px              0.0      14.0       2.9       0.6       2.3       0.2
 7 C  py              0.2       3.5       6.8       0.1       0.3       4.1
 7 C  dz2             0.0       0.1       0.1       0.1       0.4       0.0
 7 C  dxy             0.0       0.0       0.0       0.0       0.0       0.2
 8 H  s               0.3      10.2       0.1       0.7       2.3       0.0
 9 C  s               2.0       0.4       0.2       0.2       0.7       0.0
 9 C  pz              0.6       0.3       0.6       1.7       5.9       2.2
 9 C  px              1.3       0.1       7.6       0.3       5.0       1.6
 9 C  py              4.7       0.2       0.6       1.0       2.2      10.0
 9 C  dz2             0.0       0.1       0.0       0.2       0.2       0.0
 9 C  dxy             0.0       0.1       0.0       0.0       0.0       0.0
10 H  s               4.1       0.1       2.3       1.0       6.4       2.3
11 O  s               0.4       2.1       0.1       0.5       0.0       0.6
11 O  pz              1.1       0.6       0.4       0.4       4.1       0.9
11 O  px              0.5       0.4       8.2       2.7       0.3       2.8
11 O  py              0.2       1.7       0.0       0.1       0.1       4.9
12 O  s               0.2       0.0       0.0       0.7       0.3       0.3
12 O  pz              1.2       0.1       0.4       3.1       3.6       5.5
12 O  px              0.2       0.0       1.0       0.4       2.0       0.1
12 O  py              1.4       0.1       0.2       3.0       3.7       0.7
13 O  s               0.0       1.3       0.3       0.1       0.5       0.3
13 O  pz              0.2       0.5       1.7       1.4       9.1       4.5
13 O  px              0.1       4.6       0.1       0.8       2.1       0.0
13 O  py              0.0       2.7       4.3       0.5       1.7       0.8
14 O  s               0.5       0.0       0.1       0.2       0.3       0.1
14 O  pz              4.7       1.1       6.6       0.7       2.6      13.4
14 O  px              0.3       0.6       4.7       0.2       0.2       1.9
14 O  py              1.9       0.0       2.2       0.3       1.2       0.5
14 O  dyz             0.0       0.0       0.1       0.0       0.0       0.1
15 O  s               0.1       0.2       0.7       0.2       0.1       0.6
15 O  pz              1.7       0.9       1.7       4.5       0.0       0.3
15 O  px              0.1       0.0       0.9       1.9       0.9       1.0
15 O  py              0.4      16.6       0.0      12.9       0.3       1.4
16 O  s               0.2       0.0       0.0       0.3       0.1       0.1
16 O  pz              5.7       1.5       0.0      10.7       7.2       2.8
16 O  px              0.0       0.1       0.1       0.3       0.5       0.1
16 O  py              0.0       0.2       0.3       0.0       0.0       0.2
17 H  s               1.8       0.0       0.0       0.0       0.1       0.2
18 H  s               0.0       0.0       1.3       1.3       1.7       0.1
19 H  s               0.0       0.1       0.0       1.7       1.9       0.4
20 H  s               0.0       1.2       1.1       0.7       3.6       0.4
21 H  s               1.8       0.1       3.5       0.2       0.9       3.9
22 H  s               0.3       4.8       0.0       5.1       0.0       0.4
23 H  s               1.5       0.5       0.0       3.2       2.2       0.7

                     30        31        32        33        34        35   
                  -0.41039  -0.39885  -0.38289  -0.36331  -0.36199  -0.34960
                   2.00000   2.00000   2.00000   2.00000   2.00000   2.00000
                  --------  --------  --------  --------  --------  --------
 0 C  s               1.5       0.2       0.1       0.1       0.0       0.2
 0 C  pz              0.3      15.1       0.2       1.2       0.1       9.5
 0 C  px              0.7       0.1       7.2      12.9       7.1       0.1
 0 C  py              9.1       0.1       2.0       2.8       1.1       0.7
 0 C  dyz             0.1       0.1       0.0       0.0       0.0       0.1
 0 C  dxy             0.4       0.0       0.0       0.0       0.1       0.0
 1 C  s               1.7       0.4       0.0       0.1       0.1       0.2
 1 C  pz              2.9      10.4       0.0       0.4       0.0       1.8
 1 C  px              2.3       1.9       3.7       5.3       3.6       0.2
 1 C  py              3.8       0.4       2.1       0.1       0.2       3.3
 1 C  dz2             0.1       0.1       0.0       0.0       0.0       0.2
 1 C  dx2y2           0.0       0.0       0.0       0.0       0.1       0.1
 1 C  dxy             0.1       0.0       0.0       0.3       0.0       0.0
 2 H  s               0.0       5.6       0.0       0.1       0.0       3.0
 3 C  s               0.1       0.3       0.2       0.1       0.0       0.0
 3 C  pz              0.7       3.5       3.3       7.1       3.2       0.1
 3 C  px              2.2       0.2       1.7       2.2       1.9       0.1
 3 C  py             10.8       0.4       0.1       1.4       0.1       0.8
 3 C  dz2             0.0       0.1       0.0       0.2       0.1       0.1
 3 C  dyz             0.1       0.0       0.0       0.0       0.0       0.0
 3 C  dx2y2           0.1       0.0       0.1       0.0       0.1       0.0
 3 C  dxy             0.0       0.0       0.1       0.1       0.0       0.0
 4 H  s               0.1       2.1       0.6       5.1       1.9       0.2
 5 C  s               0.4       0.2       0.6       0.1       0.3       0.0
 5 C  pz              1.0       2.1       0.1       4.5       7.5       0.3
 5 C  px              2.9       0.0       6.4       2.9       0.1       0.2
 5 C  py              0.3       0.2       6.9       0.4       6.6       0.1
 5 C  dyz             0.0       0.0       0.1       0.0       0.1       0.0
 5 C  dx2y2           0.0       0.1       0.0       0.0       0.2       0.0
 6 H  s               0.0       1.4       1.5       1.5       7.6       0.0
 7 C  s               0.0       0.1       0.0       0.1       0.0       0.5
 7 C  pz              1.0       1.4       1.2       0.2       0.3       0.8
 7 C  px              0.3       3.7      14.5       1.2       0.1       1.2
 7 C  py              1.5       2.0       1.9       1.8       1.2       1.2
 7 C  dz2             0.0       0.1       0.0       0.0       0.2       0.0
 7 C  dyz             0.0       0.0       0.1       0.0       0.1       0.1
 7 C  dx2y2           0.0       0.1       0.2       0.1       0.0       0.0
 8 H  s               0.1       1.8       6.3       0.7       0.0       0.3
 9 C  s               0.1       0.5       0.2       0.0       0.4       0.7
 9 C  pz              1.2       3.0       0.2       0.1       2.7       0.2
 9 C  px              0.2       3.1       0.2       2.1       1.3       0.1
 9 C  py              2.2       0.6       0.7       1.1       3.9       2.6
 9 C  dxz             0.0       0.0       0.0       0.1       0.0       0.2
 9 C  dyz             0.0       0.0       0.0       0.0       0.0       0.4
 9 C  dx2y2           0.0       0.1       0.2       0.0       0.0       0.1
 9 C  dxy             0.1       0.1       0.0       0.2       0.1       0.1
10 H  s               0.3       1.5       1.0       1.5       0.5       0.3
11 O  s               1.6       0.2       0.0       0.1       0.4       0.7
11 O  pz              3.5       0.0       0.3       5.1       0.1       3.4
11 O  px              0.6       2.1       0.5       0.8       4.1       1.4
11 O  py              1.3       3.3       2.6       1.4       0.2       6.6
12 O  s               1.2       0.0       0.1       0.2       1.2       4.6
12 O  pz              2.2       1.1       0.0       0.3       5.3       1.7
12 O  px              1.5       1.6       0.0       4.0       0.0       7.3
12 O  py              4.1       0.7       0.3       0.0       6.8      17.0
13 O  s               0.2       0.1       0.8       0.1       0.3       0.0
13 O  pz              1.2       3.6       0.7       0.1       0.9       0.5
13 O  px              0.1       0.6       8.9       1.7       0.0       0.0
13 O  py              0.5       0.0       0.0       2.0       0.4       0.1
14 O  s               1.1       0.2       0.8       0.2       0.5       0.7
14 O  pz              1.2       0.2       1.5       0.0       1.2       1.0
14 O  px              1.1       0.7       0.0       2.7       2.4       0.2
14 O  py              2.1       0.5       6.2       1.1       7.1       2.3
15 O  s               0.2       0.6       0.5       0.0       1.3       0.0
15 O  pz              0.0       1.9       0.4       4.6       4.1       0.0
15 O  px              2.3       0.7       1.1       1.8       2.0       0.7
15 O  py              1.5       0.0       3.2       0.8       0.0       0.6
16 O  s               2.3       0.3       0.0       0.0       0.0       1.2
16 O  pz              8.0       3.2       0.0       0.8       0.0       0.0
16 O  px              0.1       2.2       3.0       3.1       3.1       1.9
16 O  py              2.3       3.5       0.5       3.0       0.2       8.8
17 H  s               0.0       6.1       0.0       1.7       0.0       4.9
18 H  s               7.0       0.2       3.2       4.9       3.4       0.3
19 H  s               0.1       0.5       0.1       0.3       0.1       2.6
20 H  s               0.0       0.4       0.1       0.0       0.6       0.2
21 H  s               0.7       0.0       0.0       0.0       0.5       0.3
22 H  s               0.6       0.2       0.7       0.0       0.3       0.1
23 H  s               2.2       1.2       0.0       0.2       0.0       0.1

                     36        37        38        39        40        41   
                  -0.34028  -0.31808  -0.29994  -0.29779  -0.27643  -0.26169
                   2.00000   2.00000   2.00000   2.00000   2.00000   2.00000
                  --------  --------  --------  --------  --------  --------
 0 C  s               0.2       0.0       0.1       0.1       0.3       0.1
 0 C  pz             11.3       0.0       0.3       0.1       1.6       0.1
 0 C  px              0.4       0.5       0.0       0.0       0.2       1.1
 0 C  py              0.4       0.1       0.1       0.0       6.1       0.1
 0 C  dz2             0.1       0.0       0.0       0.0       1.0       0.0
 0 C  dyz             0.2       0.0       0.0       0.0       0.0       0.0
 1 C  s               0.1       0.0       0.1       0.7       0.6       0.0
 1 C  pz              9.3       0.0       3.1       1.4       0.3       0.2
 1 C  px              0.8       0.1       0.1       0.4       2.7       0.5
 1 C  py              0.3       0.6       1.6       0.3       0.2       0.1
 1 C  dz2             0.2       0.0       0.1       0.0       0.0       0.0
 1 C  dxz             0.2       0.0       0.0       0.0       0.0       0.0
 1 C  dx2y2           0.0       0.0       0.0       0.1       0.0       0.2
 2 H  s               5.7       0.6       1.3       0.7       0.2       0.3
 3 C  s               0.1       0.1       0.8       0.3       0.3       0.0
 3 C  pz              1.6       0.0       5.1       0.2       0.1       0.1
 3 C  px              0.1       0.2       0.3       1.6       0.8       0.1
 3 C  py              4.9       0.1       0.1       0.4       0.1       0.1
 3 C  dz2             0.0       0.0       0.1       0.1       0.0       0.0
 3 C  dyz             0.0       0.0       0.2       0.1       0.1       0.0
 3 C  dx2y2           0.0       0.0       0.2       0.2       0.0       0.1
 3 C  dxy             0.1       0.0       0.0       0.0       0.0       0.1
 4 H  s               0.0       0.2       4.2       1.0       0.5       0.3
 5 C  s               0.3       0.1       0.5       0.1       0.0       0.1
 5 C  pz              0.1       1.6       0.4       0.2       0.0       0.0
 5 C  px              0.2       0.3       0.3       1.8       0.0       0.5
 5 C  py              0.2       0.4       3.3       1.9       0.3       0.3
 5 C  dz2             0.0       0.1       0.2       0.1       0.0       0.1
 5 C  dxz             0.0       0.0       0.0       0.1       0.0       0.0
 5 C  dyz             0.1       0.2       0.5       0.2       0.0       0.0
 6 H  s               0.8       1.6       6.2       1.2       0.4       0.2
[...]
 3 C  dxz             0.1       0.1       0.0       0.0       0.0       0.2
 3 C  dyz             0.1       0.0       0.0       0.2       0.0       0.4
 3 C  dx2y2           0.1       0.1       0.1       0.2       0.1       0.0
 3 C  dxy             2.8       0.2       0.0       6.0       0.4       1.1
 5 C  s               0.4       0.8       0.1       0.3       1.2       0.2
 5 C  pz              0.4       0.5       0.2       0.4       0.6       0.1
 5 C  px              0.3       0.3       0.1       0.0       0.3       0.0
 5 C  py              0.2       0.2       0.1       0.1       0.2       0.1
 5 C  dz2             0.6       0.8       0.3       0.3       0.3       0.1
 5 C  dxz             1.1       1.0       0.5       0.2       2.1       0.3
 5 C  dyz             0.6       1.8       0.1       0.4       0.5       0.3
 5 C  dx2y2           0.1       0.0       0.0       0.3       0.0       0.1
 5 C  dxy             0.4       0.6       0.2       0.1       0.3       0.1
 7 C  s               0.0       1.3       0.2       0.0       1.3       0.0
 7 C  pz              0.0       1.4       0.2       0.1       2.3       0.0
 7 C  px              0.0       0.0       0.0       0.0       0.5       0.0
 7 C  dz2             0.0       6.1       1.0       0.1       5.0       0.1
 7 C  dxz             0.0       0.1       0.1       0.0       0.5       0.1
 7 C  dyz             0.7       0.1       0.6       0.2       0.4       0.0
 8 H  s               0.0       0.1       0.0       0.0       0.1       0.0
 9 C  s               0.4       0.2       0.4       0.5       0.2       1.1
 9 C  pz              0.8       0.2       0.6       0.1       1.3       0.1
 9 C  px              0.1       0.2       0.2       0.3       0.3       2.1
 9 C  dz2             2.9       1.5       3.4       0.1       3.6       1.2
 9 C  dxz             0.3       0.0       0.1       0.4       0.5       0.5
 9 C  dyz             0.0       0.4       0.1       0.1       0.3       0.0
 9 C  dx2y2           0.0       0.2       0.0       0.9       0.1       3.9
 9 C  dxy             0.0       0.3       0.8       0.0       0.1       0.1
11 O  s               0.0       0.2       1.0       0.0       0.3       0.0
11 O  pz              0.0       0.0       0.0       0.0       0.0       0.2
11 O  px              0.1       0.0       0.2       1.0       0.1       4.8
11 O  py              0.0       0.0       0.1       0.1       0.0       0.7
11 O  dz2             0.1       1.1       4.7       0.2       1.0       0.0
11 O  dxz             0.4       1.0       1.3       0.1       1.4       0.6
11 O  dyz             0.2       0.0       0.1       0.9       0.1       1.2
11 O  dx2y2           0.0       1.8       1.1       2.8       1.6      25.6
11 O  dxy             0.0       0.7       7.8       6.4       0.0      27.1
12 O  s               0.8       0.2       0.6       0.1       1.7       0.0
12 O  pz              0.9       0.3       0.8       0.2       1.3       0.0
12 O  py              0.0       0.0       0.0       0.1       0.1       0.0
12 O  dz2            12.8       2.7       9.0       1.9      13.1       0.1
12 O  dxz             2.1       1.2       2.6       0.0       2.3       0.5
12 O  dyz             0.5       0.8       1.1       0.0       0.0       0.0
12 O  dx2y2           0.2       0.0       0.3       0.1       0.0       0.0
12 O  dxy             0.0       0.0       0.0       0.2       0.0       0.0
13 O  s               0.0       1.5       0.2       0.0       4.0       0.0
13 O  pz              0.0       2.1       0.3       0.0       2.3       0.0
13 O  py              0.0       0.1       0.0       0.0       0.1       0.0
13 O  dz2             0.2      26.3       3.3       0.1      26.9       0.3
13 O  dxz             0.0       3.4       0.2       0.1       0.1       0.0
13 O  dyz             0.6       0.9       1.5       0.1       0.2       0.5
14 O  s               0.9       0.9       0.5       0.6       2.0       0.3
14 O  pz              0.6       1.0       0.2       0.4       0.9       0.2
14 O  px              0.2       0.4       0.1       0.2       0.2       0.1
14 O  py              0.0       0.0       0.0       0.0       0.2       0.0
14 O  dz2             1.9       2.3       0.7       0.4       2.1       0.4
14 O  dxz             6.6       8.9       2.0       2.2       5.4       1.2
14 O  dyz             3.8       5.7       1.9       3.1       6.5       1.2
14 O  dx2y2           0.2       1.3       0.0       0.5       0.2       0.1
14 O  dxy             2.3       2.8       0.8       1.0       1.7       0.3
15 O  s               1.2       0.0       0.0       3.3       0.0       1.0
15 O  px              0.4       0.0       0.0       0.8       0.0       0.1
15 O  py              0.9       0.0       0.0       2.1       0.0       0.5
15 O  dz2             3.4       0.0       0.0       8.7       0.0       2.0
15 O  dxz             0.1       0.0       0.0       0.5       0.0       0.0
15 O  dyz             0.8       0.2       0.0       1.3       0.0       0.0
15 O  dx2y2           0.1       0.0       0.3       0.0       0.0       0.4
15 O  dxy            15.6       0.2       0.0      26.7       0.4       5.1
16 O  s               1.1       0.4       2.4       0.6       0.0       0.0
16 O  pz              0.7       0.3       1.3       0.4       0.0       0.0
16 O  px              0.2       0.0       0.3       0.1       0.0       0.0
16 O  py              0.4       0.1       0.6       0.2       0.0       0.0
16 O  dz2             0.1       0.0       0.1       0.0       0.0       0.0
16 O  dxz             2.8       1.2       4.5       1.4       0.0       0.0
16 O  dyz            10.7       5.0      16.8       5.3       0.0       0.0
16 O  dx2y2           1.4       0.8       2.4       1.0       0.0       0.1
16 O  dxy             4.3       1.4       6.6       1.4       0.0       0.0
19 H  s               0.2       0.0       0.2       0.1       0.1       0.0
20 H  s               0.0       0.4       0.1       0.0       0.1       0.0
21 H  s               0.1       0.3       0.1       0.2       0.1       0.1
22 H  s               0.2       0.0       0.0       0.4       0.0       0.0
23 H  s               0.2       0.1       0.3       0.1       0.0       0.0



                      *****************************
                      * MAYER POPULATION ANALYSIS *
                      *****************************

  NA   - Mulliken gross atomic population
  ZA   - Total nuclear charge
  QA   - Mulliken gross atomic charge
  VA   - Mayer's total valence
  BVA  - Mayer's bonded valence
  FA   - Mayer's free valence

  ATOM       NA         ZA         QA         VA         BVA        FA
  0 C      5.9038     6.0000     0.0962     3.9417     3.9417     0.0000
  1 C      5.9824     6.0000     0.0176     4.0524     4.0524    -0.0000
  2 H      0.9480     1.0000     0.0520     1.0001     1.0001     0.0000
  3 C      5.9547     6.0000     0.0453     4.1147     4.1147    -0.0000
  4 H      0.9595     1.0000     0.0405     1.0049     1.0049    -0.0000
  5 C      5.8938     6.0000     0.1062     3.9689     3.9689    -0.0000
  6 H      0.9546     1.0000     0.0454     0.9998     0.9998    -0.0000
  7 C      6.0186     6.0000    -0.0186     4.1028     4.1028    -0.0000
  8 H      0.9255     1.0000     0.0745     0.9787     0.9787    -0.0000
  9 C      5.8177     6.0000     0.1823     4.1984     4.1984    -0.0000
 10 H      0.9305     1.0000     0.0695     0.9699     0.9699     0.0000
 11 O      8.2997     8.0000    -0.2997     2.1888     2.1888     0.0000
 12 O      8.4077     8.0000    -0.4077     2.0348     2.0348     0.0000
 13 O      8.4055     8.0000    -0.4055     1.9955     1.9955    -0.0000
 14 O      8.4358     8.0000    -0.4358     1.9982     1.9982     0.0000
 15 O      8.4146     8.0000    -0.4146     2.0120     2.0120    -0.0000
 16 O      8.4297     8.0000    -0.4297     2.0056     2.0056     0.0000
 17 H      0.9335     1.0000     0.0665     0.9757     0.9757    -0.0000
 18 H      0.9121     1.0000     0.0879     0.9783     0.9783     0.0000
 19 H      0.6886     1.0000     0.3114     0.8909     0.8909     0.0000
 20 H      0.6899     1.0000     0.3101     0.8764     0.8764    -0.0000
 21 H      0.6943     1.0000     0.3057     0.9112     0.9112     0.0000
 22 H      0.6924     1.0000     0.3076     0.8821     0.8821     0.0000
 23 H      0.7072     1.0000     0.2928     0.8872     0.8872    -0.0000

  Mayer bond orders larger than 0.100000
B(  0-C ,  1-C ) :   1.0400 B(  0-C , 16-O ) :   1.0822 B(  0-C , 17-H ) :   0.9044 
B(  0-C , 18-H ) :   0.9121 B(  1-C ,  2-H ) :   0.8555 B(  1-C ,  3-C ) :   1.0614 
B(  1-C , 11-O ) :   0.9830 B(  3-C ,  4-H ) :   0.8466 B(  3-C ,  5-C ) :   1.0261 
B(  3-C , 15-O ) :   1.0554 B(  5-C ,  6-H ) :   0.8522 B(  5-C ,  7-C ) :   0.9825 
B(  5-C , 14-O ) :   1.0365 B(  7-C ,  8-H ) :   0.8867 B(  7-C ,  9-C ) :   1.0386 
B(  7-C , 13-O ) :   1.0509 B(  9-C , 10-H ) :   0.8934 B(  9-C , 11-O ) :   1.0953 
B(  9-C , 12-O ) :   1.0996 B( 12-O , 19-H ) :   0.8374 B( 13-O , 20-H ) :   0.8463 
B( 14-O , 21-H ) :   0.8326 B( 15-O , 22-H ) :   0.8432 B( 16-O , 23-H ) :   0.8536 


-------
TIMINGS
-------

Total SCF time: 0 days 0 hours 0 min 9 sec 

Total time                  ....       9.424 sec
Sum of individual times     ....       9.021 sec  ( 95.7%)

SCF preparation             ....       0.177 sec  (  1.9%)
Fock matrix formation       ....       8.131 sec  ( 86.3%)
  Startup                   ....       0.058 sec  (  0.7% of F)
  Split-RI-J                ....       3.669 sec  ( 45.1% of F)
  XC integration            ....       4.004 sec  ( 49.2% of F)
    XC Preparation          ....       0.000 sec  (  0.0% of XC)
    Basis function eval.    ....       1.336 sec  ( 33.4% of XC)
    Density eval.           ....       0.768 sec  ( 19.2% of XC)
    XC-Functional eval.     ....       0.278 sec  (  6.9% of XC)
    XC-Potential eval.      ....       1.000 sec  ( 25.0% of XC)
Diagonalization             ....       0.000 sec  (  0.0%)
Density matrix formation    ....       0.157 sec  (  1.7%)
Total Energy calculation    ....       0.024 sec  (  0.3%)
Population analysis         ....       0.101 sec  (  1.1%)
Orbital Transformation      ....       0.048 sec  (  0.5%)
Orbital Orthonormalization  ....       0.000 sec  (  0.0%)
DIIS solution               ....       0.299 sec  (  3.2%)
  MO trafo                  ....       0.000 sec  (  0.0 % of DIIS)
  Orb grad                  ....       0.000 sec  (  0.0 % of DIIS)
  Energy W gradient         ....       0.000 sec  (  0.0 % of DIIS)
  DIIS error                ....       0.006 sec  (  2.1 % of DIIS)
  DIIS work                 ....       0.252 sec  ( 84.5 % of DIIS)
  Form Q                    ....       0.000 sec  (  0.0 % of DIIS)
  Form QpQm                 ....       0.000 sec  (  0.0 % of DIIS)
  Exp/Cayley                ....       0.000 sec  (  0.0 % of DIIS)
  Orb update                ....       0.000 sec  (  0.0 % of DIIS)
  Wake-sleep                ....       0.015 sec  (  5.0 % of DIIS)
SOSCF solution              ....       0.085 sec  (  0.9%)
  MO trafo                  ....       0.046 sec  ( 54.5 % of SOSCF)
  Orb grad                  ....       0.003 sec  (  3.1 % of SOSCF)
  Rot update                ....       0.018 sec  ( 20.7 % of SOSCF)
  Step                      ....       0.018 sec  ( 21.7 % of SOSCF)
Finished LeanSCF after   9.5 sec

Maximum memory used throughout the entire LEANSCF-calculation: 18.3 MB


-------------------------------------------------------------------------------
                          DFT DISPERSION CORRECTION                            
                                                                               
                                DFTD4 V3.4.0                                   
-------------------------------------------------------------------------------
The PBE functional is recognized
Active option DFTDOPT                   ...         5   

-------------------------   ----------------
Dispersion correction           -0.024594519
-------------------------   ----------------

------------------   -----------------
gCP correction             0.154636503
------------------   -----------------

-------------------------   --------------------
FINAL SINGLE POINT ENERGY      -685.689945503893
-------------------------   --------------------


------------------------------------------------------------------------------
                              ORCA PROPERTY CALCULATIONS
------------------------------------------------------------------------------

GBWName                                 ... sp.gbw
Number of atoms                         ...     24
Number of basis functions               ...    192
Max core memory                         ...   1024 MB

Electric properties:
Dipole moment                           ... YES
Quadrupole moment                       ...  NO
Static polarizability (Dipole/Dipole)   ...  NO
Static polarizability (Dipole/Quad.)    ...  NO
Static polarizability (Quad./Quad.)     ...  NO
Static polarizability (Velocity)        ...  NO

Atomic electric properties:
Dipole moment                           ...  NO
Quadrupole moment                       ...  NO
Static polarizability                   ...  NO

Choice of electric origin               ... Center of mass
Position of electric origin             ...    -0.000001     0.000003     0.000000

General magnetic properties:
Magnetizability                         ...  NO

EPR properties:
g-Tensor (aka g-matrix)                 ...  NO
Zero-Field splitting spin-orbit         ...  NO
Zero-field splitting spin-spin          ...  NO
Hyperfine couplings                     ...  NO (   0 nuclei)
Quadrupole couplings                    ...  NO (   0 nuclei)
Contact density                         ...  NO (   0 nuclei)

NMR properties:
Chemical shifts                         ...  NO (   0 nuclei)
Spin-rotation constants                 ...  NO (   0 nuclei)
Spin-spin couplings                     ...  NO (   0 nuclei,    0 pairs)

Choice of magnetic origin               ... GIAO
Position of magnetic origin             ...     0.000000     0.000000     0.000000

Properties with geometric perturbations:
SCF Hessian                             ...  NO
IR spectrum                             ...  NO
VCD spectrum                            ...  NO
X-ray spectroscopy properties:
SCF XES/XAS/RIXS spectra                ...  NO


-------------
DIPOLE MOMENT
-------------

Method             : SCF
Type of density    : Electron Density
Multiplicity       :   1
Irrep              :   0
Energy             :  -685.8199874879151139 Eh
Relativity type    : 
Basis              : AO
                                X                 Y                 Z
Electronic contribution:      1.393167231      -0.952091000       0.221577862
Nuclear contribution   :     -0.547393646       1.365868905      -0.332302070
                        -----------------------------------------
Total Dipole Moment    :      0.845773586       0.413777906      -0.110724207
                        -----------------------------------------
Magnitude (a.u.)       :      0.948053249
Magnitude (Debye)      :      2.409759853



--------------------
Rotational spectrum 
--------------------
 
Rotational constants in cm-1:             0.040993             0.025451             0.021333 
Rotational constants in MHz :          1228.933932           763.014782           639.542031 

Dipole components along the rotational axes: 
x,y,z [a.u.] :     0.944145    -0.051749     0.068686 
x,y,z [Debye]:     2.399825    -0.131535     0.174586 

 

Dipole moment calculation done in   0.0 sec 

Maximum memory used throughout the entire PROP-calculation: 11.9 MB

--------------------------------
SUGGESTED CITATIONS FOR THIS RUN
--------------------------------

Below you find a list of papers that are relevant to this ORCA run
We neither can nor want to force you to cite these papers, but we appreciate if you do
You receive ORCA, which is the product of decades of hard work by many enthusiastic individuals, for free
The only thing we kindly ask in return is that you cite our papers,
We deeply appreciate it, if you show your appreciation for ORCA by not just citing the generic ORCA reference.

Please note that relegating all ORCA citations to the supporting information does *not* help us.
SI sections are not indexed - citations you put there will not count into any citation statistics
But we need these citations in order to attract the funding resources that allow us to do what we are doing

Therefore, if you are a happy ORCA user, please consider citing a few of the papers listed below in the main body of your paper

In addition to the list printed below, the program has created the file sp.bibtex that contains the list in bibtex format
You can import this file easily into all common literature databanks and citation aid programs


List of essential papers. We consider these as the minimum necessary citations

  1. Neese,F.
     Software update: the ORCA program system, version 5.0
     WIRES Comput. Molec. Sci., 2022 12(1)e1606
     doi.org/10.1002/wcms.1606

List of papers to cite with high priority. The work reported in these papers was absolutely
necessary for this run to complete.
Our perspective: the developers of density functionals and basis sets usually get cited in chemistry papers
Good! But without the algorithms to do something with them, the functionals or basis sets would not do anything.
Hence, in our opinion, the algorithm design and method developments papers are equally worthy of getting cited

  1. Neese,F.
     An improvement of the resolution of the identity approximation for the formation of the Coulomb matrix
     J. Comp. Chem., 2003 24(14)1740-1747
     doi.org/10.1002/jcc.10318
  2. Neese,F.
     The SHARK Integral Generation and Digestion System
     J. Comp. Chem., 2022  1-16
     doi.org/10.1002/jcc.26942
  3. Caldeweyher,E.; Bannwarth,C.; Grimme,S.
     Extension of the D3 dispersion coefficient model
     J. Chem. Phys., 2017 147 034112-XXXX
     doi.org/10.1063/1.4993215
  4. Caldeweyher,E.; Ehlert,S.; Hansen,A.; Neugebauer,H.; Spicher,S.; Bannwarth,C.; Grimme,S.
     A generally applicable atomic-charge dependent London dispersion correction
     J. Chem. Phys., 2019 150 154122-XXXX
     doi.org/10.1063/1.5090222
  5. Caldeweyher,E.; Mewes,J.; Ehlert,S.; Grimme,S.
     Extension and evaluation of the D4 London-dispersion model for periodic systems
     Phys. Chem. Chem. Phys., 2020 22(16)8499-8512
     doi.org/10.1039/D0CP00502A

List of suggested additional citations. These are papers that are important in the 'surrounding' of 
of this run, or papers that preceded the highly important papers. If you like your results we are grateful for a citation.

  1. Neese,F.
     The ORCA program system
     WIRES Comput. Molec. Sci., 2012 2(1)73-78
     doi.org/10.1002/wcms.81
  2. Neese,F.
     Software update: the ORCA program system, version 4.0
     WIRES Comput. Molec. Sci., 2018 8(1)1-6
     doi.org/10.1002/wcms.1327
  3. Neese,F.; Wennmohs,F.; Becker,U.; Riplinger,C.
     The ORCA quantum chemistry program package
     J. Chem. Phys., 2020 152 Art. No. L224108
     doi.org/10.1063/5.0004608

List of optional additional citations

  1. Neese,F.
     Approximate second-order SCF convergence for spin unrestricted wavefunctions
     Chem. Phys. Lett., 2000 325(1-3)93-98
     doi.org/10.1016/s0009-2614(00)00662-x

Timings for individual modules:

Sum of individual times          ...       11.678 sec (=   0.195 min)
Startup calculation              ...        0.974 sec (=   0.016 min)   8.3 %
SCF iterations                   ...       10.609 sec (=   0.177 min)  90.8 %
Property calculations            ...        0.095 sec (=   0.002 min)   0.8 %
                             ****ORCA TERMINATED NORMALLY****
TOTAL RUN TIME: 0 days 0 hours 0 minutes 12 seconds 343 msec
