27
 energy: -33.641378498466 gnorm: 0.034936800664 xtb: 6.7.1 (edcfbbe)
C            3.73667492370726       -0.16569007408341        0.07418735589971
C            2.25051079842981       -0.18545641661772       -0.01136607353095
C            1.50219564181370        0.91674334974166        0.21776413376216
C            0.05614470247014        0.95451455936638        0.04996568040561
O           -0.55896482407981        2.01217181210779        0.25323381307662
C           -0.62862306580488       -0.30796658034362       -0.44896520835690
H           -0.50623879063683       -0.26045640389342       -1.54567215665530
C            0.14368063893307       -1.54389571262465        0.03209397376499
C            1.60844703047859       -1.48542625169857       -0.38065955551683
C           -2.14212964051990       -0.41530065488034       -0.15821660305793
C           -2.48672178876032       -0.26079701852606        1.32550569162273
C           -2.99436371476871        0.51713104756521       -1.02263323800831
H            4.17021837677882       -0.55614586904217       -0.85507772558510
H            4.07363788108586       -0.83748620062669        0.87370599633063
H            4.12791781375432        0.83678227492601        0.26026122205710
H            1.97461872076092        1.85728155662957        0.49324930759315
H            0.08470010001875       -1.61000325918806        1.12552537678874
H           -0.32666204405193       -2.44472462792680       -0.37519029710025
H            2.17861314875411       -2.30838459246558        0.06582818658649
H            1.70550048567998       -1.60908285259013       -1.47086053293198
H           -2.40470650997180       -1.44253225516103       -0.44809278949449
H           -2.30212894989353        0.76015439716916        1.67353702680772
H           -1.90605361569481       -0.94460126247978        1.95282277441510
H           -3.54673969923016       -0.48281777416162        1.48902349010820
H           -4.05662922421687        0.27456844822943       -0.90355358012394
H           -2.74357432372593        0.40972060566642       -2.08405052793804
H           -2.85668648203379        1.56570521455937       -0.74502786271797
27
 energy: -33.643008823345 gnorm: 0.012722697015 xtb: 6.7.1 (edcfbbe)
C            3.72340143810676       -0.16634173505107        0.07471965446978
C            2.23817131025556       -0.18206261975877       -0.01632631170733
C            1.48755819890154        0.91025289182015        0.21173577108531
C            0.04219150865610        0.95263909288897        0.05907717281868
O           -0.57671837596381        1.99787306777546        0.26329067312218
C           -0.62365884925404       -0.31188194211071       -0.45167173707314
H           -0.50741448394780       -0.25814025279411       -1.54598142533645
C            0.14585501556501       -1.54338429207615        0.03743767051626
C            1.60562529351548       -1.48291983253924       -0.38894296868161
C           -2.13524938664007       -0.43762213630712       -0.16148370012895
C           -2.47695909205599       -0.25601563118295        1.31628820676127
C           -2.97245795893752        0.51453333869125       -1.01462632024203
H            4.15718445531619       -0.54752666733076       -0.85128539767252
H            4.05702818653570       -0.82787116816745        0.87638378958449
H            4.10591909499621        0.83327251872506        0.26174863856705
H            1.95013687834115        1.84712282270931        0.49537133827314
H            0.09059612002082       -1.59942676170811        1.12805303973309
H           -0.32138233805149       -2.44359522933583       -0.36760475806014
H            2.16683913992173       -2.30595029569639        0.06106616471973
H            1.68638661287032       -1.60144967089104       -1.47709967286377
H           -2.41356471808995       -1.46127614700406       -0.44660741106063
H           -2.27547597969593        0.76461029619340        1.64145962654931
H           -1.90134530934586       -0.93725594539922        1.94074909753082
H           -3.53478176582438       -0.46212627044478        1.47914501972120
H           -4.03206790316036        0.29058063310732       -0.88734099646168
H           -2.72796668075602        0.40566384131645       -2.07127046141991
H           -2.80521282200325        1.55230355422179       -0.72894682454317
27
 energy: -33.643415453834 gnorm: 0.002857647893 xtb: 6.7.1 (edcfbbe)
C            3.71366330664135       -0.16144473075215        0.07630568155255
C            2.22861414538771       -0.18173555113760       -0.01827646302520
C            1.47322733705367        0.90228308841016        0.21158046275173
C            0.02795415003099        0.94811421592095        0.05834820429386
O           -0.59615862273633        1.98141893802189        0.27777476378563
C           -0.62387535958391       -0.32285885788027       -0.45401403249224
H           -0.50892427072734       -0.26717384232366       -1.54627954204690
C            0.14862632897757       -1.54848749939791        0.03953201789986
C            1.60592252440237       -1.48490684201162       -0.39750487166271
C           -2.13398485110969       -0.44832429761887       -0.16335968538420
C           -2.46658940525084       -0.25361888997895        1.31403101757768
C           -2.95750983440733        0.51549272241170       -1.01607042823546
H            4.14709602561345       -0.53815846962921       -0.84783872124104
H            4.04227020362538       -0.81771397676553        0.88003726401932
H            4.08772323601239        0.83938478759239        0.26492210533805
H            1.92709586395642        1.83922134343672        0.50266261326981
H            0.10078617644505       -1.59083511179377        1.12889914335961
H           -0.31872342962483       -2.45112753120911       -0.35594333493712
H            2.16802024707760       -2.30722290796432        0.04746549167921
H            1.67098443926774       -1.59470564254651       -1.48487786552321
H           -2.42067685936077       -1.46966673636422       -0.44385813536472
H           -2.24606257612134        0.76709129363672        1.61878872177116
H           -1.89804056261115       -0.93507184251160        1.94030539126763
H           -3.52484666380165       -0.43940463394654        1.47990383530127
H           -4.01859855731940        0.31860271456028       -0.87819380401438
H           -2.72067040153543        0.40078105510818       -2.07112736908396
H           -2.75468500102553        1.54407266438427       -0.72587458265524
27
 energy: -33.643516975743 gnorm: 0.003541355112 xtb: 6.7.1 (edcfbbe)
C            3.71034296237660       -0.15671815296732        0.07836737090837
C            2.22532256773334       -0.18169382662224       -0.02149857473682
C            1.46731662661321        0.89951837899455        0.21027228379428
C            0.02062109390858        0.94106726463918        0.06386685566043
O           -0.60516690219817        1.97174239002172        0.28687143264516
C           -0.62597833348471       -0.33135915672062       -0.45489946824892
H           -0.50749285848495       -0.27635365688897       -1.54661530519464
C            0.14990856589565       -1.55293700171554        0.04204086365455
C            1.60540003667608       -1.48581529879213       -0.40425563520564
C           -2.13589154674470       -0.45400584658582       -0.16485704345515
C           -2.46369808916354       -0.25213276668284        1.31334176046033
C           -2.95049877206025        0.51782072406184       -1.01792875303194
H            4.14625958700850       -0.53255728404776       -0.84457071048679
H            4.03632929624933       -0.81152576734043        0.88412730368016
H            4.07953467779314        0.84621705726410        0.26802925103936
H            1.91746575689709        1.83800836429892        0.50407114825479
H            0.10921542189107       -1.58799568000849        1.13186815799171
H           -0.31793779699656       -2.45875190445230       -0.34530390063206
H            2.17253356472997       -2.30838347329249        0.03279849136108
H            1.66170882703193       -1.58925484339184       -1.49228974877866
H           -2.42758173243540       -1.47427358852797       -0.44339876340005
H           -2.22913547118774        0.76674901604176        1.61295534602127
H           -1.90104841866860       -0.93815418896181        1.93991194308695
H           -3.52361967777381       -0.42346074103945        1.48344212343162
H           -4.01412821891459        0.34186100068583       -0.87200978518479
H           -2.72136315450102        0.39295594134801       -2.07355992648830
H           -2.72578042291431        1.54343850033356       -0.73343883894531
27
 energy: -33.643592174042 gnorm: 0.002786253635 xtb: 6.7.1 (edcfbbe)
C            3.70818002750993       -0.15191848835942        0.08054439668384
C            2.22332549955286       -0.18207903313210       -0.02465354896264
C            1.46347666234511        0.89749000391482        0.21002147604167
C            0.01664673289101        0.93562713620702        0.06288578217806
O           -0.61051832847541        1.96348766607956        0.29748581197779
C           -0.62884258729837       -0.33927013597593       -0.45454178641220
H           -0.50709069183568       -0.28792146788991       -1.54612799904234
C            0.15163711791979       -1.55655031065867        0.04640776332844
C            1.60392465772179       -1.48562264869718       -0.41284675419989
C           -2.13888275775455       -0.45791366232241       -0.16529439658243
C           -2.46352070665071       -0.25170128491658        1.31355151399532
C           -2.94414902743813        0.51981708461895       -1.02103925735004
H            4.14959785536755       -0.52770570320638       -0.84021825998859
H            4.03186693338709       -0.80492549784099        0.88925813915715
H            4.07226384747721        0.85332776097169        0.27114940272781
H            1.91058487900763        1.83660348088058        0.50911976871629
H            0.12154607553661       -1.58370431836281        1.13722869517807
H           -0.31678804783810       -2.46728338724269       -0.32949289009113
H            2.17826382427764       -2.31030205778342        0.01110669614115
H            1.64929728406098       -1.57959311238833       -1.50251505566194
H           -2.43632270637878       -1.47694234913596       -0.44221952506459
H           -2.21281760452328        0.76324508925596        1.61307666349420
H           -1.90996382020325       -0.94676837333677        1.93943306535437
H           -3.52596200569530       -0.40598048049641        1.48641493667763
H           -4.01031094751312        0.36923866127321       -0.86287724156527
H           -2.72771885091680        0.37778847655339       -2.07809612223292
H           -2.69508572525752        1.54356241164226       -0.75042339629682
27
 energy: -33.643627344364 gnorm: 0.001666468023 xtb: 6.7.1 (edcfbbe)
C            3.70802737642712       -0.15044688496615        0.08182982194418
C            2.22362928274223       -0.18218500536379       -0.02724823454234
C            1.46358651062836        0.89764101305184        0.20849775008183
C            0.01657695122042        0.93284307849491        0.06551023223783
O           -0.60964064942196        1.96151400944812        0.30167191343098
C           -0.63002808799805       -0.34178817800201       -0.45167548377193
H           -0.50637922139980       -0.29354549492256       -1.54346603803795
C            0.15341833364164       -1.55696087856643        0.05067220054449
C            1.60252292588296       -1.48417041818039       -0.41837623914912
C           -2.14052635548043       -0.45745783276622       -0.16446147719988
C           -2.46639998531578       -0.25309522964134        1.31420970402367
C           -2.94165341453270        0.52050273580684       -1.02344567745010
H            4.15416526544566       -0.52734274632448       -0.83664481967587
H            4.03068400640479       -0.80182700316017        0.89285390984668
H            4.07006623063410        0.85569203797227        0.27209870037012
H            1.91005894506229        1.83670434366820        0.50855742154879
H            0.13055365754425       -1.57989736579807        1.14201551759515
H           -0.31579013189300       -2.47042460705455       -0.31802116305765
H            2.18149784728024       -2.31139877400933       -0.00500425033853
H            1.63979784601276       -1.57121854918015       -1.50937365798172
H           -2.43977940763362       -1.47575823323837       -0.44199092618078
H           -2.20642685383960        0.75780344290577        1.61898566572589
H           -1.92113576997873       -0.95678939885064        1.93870285015662
H           -3.53064999693566       -0.39736208316737        1.48487489998176
H           -4.00804623826643        0.38478057555253       -0.85529105361253
H           -2.73639453234981        0.36414128444759       -2.08134434044558
H           -2.67909694460503        1.54405162149542       -0.76679934784302
27
 energy: -33.643648032771 gnorm: 0.001478114781 xtb: 6.7.1 (edcfbbe)
C            3.70895684748100       -0.15149764047360        0.08232155107260
C            2.22523620149745       -0.18168533152184       -0.02904542993751
C            1.46590570289676        0.89919050834316        0.20707865776348
C            0.01935348413319        0.93434722146928        0.06471717742045
O           -0.60611893366887        1.96394980232625        0.30218616692063
C           -0.62956460006514       -0.34029462888236       -0.44761513018406
H           -0.50639856254656       -0.29485801456289       -1.53977871514088
C            0.15557232966670       -1.55442459192230        0.05575044396935
C            1.60085856512966       -1.48103228402170       -0.42255902096205
C           -2.14053799739593       -0.45670706043809       -0.16296373985824
C           -2.47177781357553       -0.25623101599455        1.31466113507346
C           -2.94031879170962        0.51959179311583       -1.02459285878916
H            4.15870139185204       -0.53141069659774       -0.83332733103405
H            4.02996045810829       -0.80090669035905        0.89587923960980
H            4.07171595189153        0.85443510478800        0.27090674214951
H            1.91314414357055        1.83702577738410        0.50812039035771
H            0.13888284461211       -1.57367584574473        1.14723858722333
H           -0.31504979283284       -2.46940422947283       -0.30696892115564
H            2.18245909441386       -2.31168494433301       -0.01983428428389
H            1.62971565580979       -1.56103011221475       -1.51457825826508
H           -2.43859563931823       -1.47488387825170       -0.44275250992016
H           -2.20446069530883        0.75000918566868        1.62853735362985
H           -1.93682413117479       -0.96969218474434        1.93711028804709
H           -3.53795455251291       -0.39244332301361        1.47868711669918
H           -4.00550902982970        0.39585084680186       -0.84453828573483
H           -2.74829321516893        0.34764460252865       -2.08245740707443
H           -2.66642132667886        1.54382308977477       -0.78484507939549
27
 energy: -33.643628761904 gnorm: 0.003467365800 xtb: 6.7.1 (edcfbbe)
C            3.70988798570653       -0.15257742891072        0.08282196088924
C            2.22685047037644       -0.18115763213751       -0.03086698382926
C            1.46823152058417        0.90076599897126        0.20564005638458
C            0.02212117203600        0.93587550462169        0.06399540248181
O           -0.60260798132050        1.96642073272750        0.30268439708926
C           -0.62907930076000       -0.33877395549174       -0.44350965777417
H           -0.50638743706713       -0.29613250169130       -1.53604508644781
C            0.15776239130797       -1.55183656479731        0.06090094555797
C            1.59918396952596       -1.47784852881145       -0.42679404555940
C           -2.14053085550817       -0.45597670535695       -0.16146763100023
C           -2.47720286225190       -0.25944618239237        1.31510442023491
C           -2.93896089734773        0.51865762148805       -1.02576022839730
H            4.16322952184629       -0.53559428866084       -0.82996385776729
H            4.02917289378018       -0.79998131650331        0.89896226243639
H            4.07341989343677        0.85314072513160        0.26967350257953
H            1.91624970838027        1.83737258133868        0.50764316688441
H            0.14731656207344       -1.56730847814507        1.15253439844164
H           -0.31430938932576       -2.46834003100090       -0.29576611456010
H            2.18343299686457       -2.31195462446372       -0.03483663730868
H            1.61949131043920       -1.55070414391060       -1.51983791752585
H           -2.43733520877433       -1.47403779056498       -0.44355447266638
H           -2.20241373262927        0.74208134646173        1.63815673063379
H           -1.95272755623418       -0.98279339584839        1.93549966298309
H           -3.54534642402051       -0.38744455500046        1.47238230074080
H           -4.00294143899828        0.40714232909273       -0.83355227765730
H           -2.76040790506028        0.33090173324962       -2.08358411744223
H           -2.65346181778355        1.54355501025628       -0.80312230120046
27
 energy: -33.643650513725 gnorm: 0.001416291821 xtb: 6.7.1 (edcfbbe)
C            3.70958506105924       -0.15300141531043        0.08227014924601
C            2.22610734574328       -0.18097414610661       -0.02941597436710
C            1.46721128340122        0.90034770474662        0.20659193327351
C            0.02066194242454        0.93627168591463        0.06496711183609
O           -0.60460714859974        1.96644886753217        0.30065274867786
C           -0.62865346062097       -0.33822870219869       -0.44589769241232
H           -0.50613619728062       -0.29298999829142       -1.53817874876169
C            0.15658721708048       -1.55222605609793        0.05772865340730
C            1.60049350378114       -1.47935886961483       -0.42341393641271
C           -2.13978369519497       -0.45638912426239       -0.16250526973634
C           -2.47412206041814       -0.25854076113364        1.31460954866269
C           -2.94046696778593        0.51855680467617       -1.02479897979335
H            4.15931648742750       -0.53529725434679       -0.83226918774058
H            4.02925500541556       -0.80151685606421        0.89699384954489
H            4.07423669877451        0.85237622635389        0.26935532085443
H            1.91531107455538        1.83762777669016        0.50727360107054
H            0.14131355748745       -1.56996826880293        1.14911441012619
H           -0.31493951664335       -2.46713735262830       -0.30346034824537
H            2.18214566868830       -2.31119923340019       -0.02381718987851
H            1.62626764606123       -1.55705508060682       -1.51554724830478
H           -2.43581919530254       -1.47484368155091       -0.44370072771366
H           -2.20460742537214        0.74597441255913        1.63231046656165
H           -1.94383042877373       -0.97562282340428        1.93643498684293
H           -3.54125101447013       -0.39185966405688        1.47448602927245
H           -4.00488369020816        0.39889415163006       -0.83859813922797
H           -2.75454817971985        0.34074991447831       -2.08235784793169
H           -2.66220592223337        1.54296720294757       -0.79148964064950
27
 energy: -33.643653897972 gnorm: 0.000613324283 xtb: 6.7.1 (edcfbbe)
C            3.70931840926437       -0.15347349224366        0.08186578914615
C            2.22533322895961       -0.18039589725231       -0.02791810803553
C            1.46611719077813        0.90016130394359        0.20806032560813
C            0.01917062750351        0.93715444814351        0.06512451268507
O           -0.60682552602603        1.96668103748103        0.29890293928984
C           -0.62832473588756       -0.33763488085245       -0.44846431732574
H           -0.50577085417967       -0.28983317268809       -1.54048495797872
C            0.15548341688300       -1.55224889191716        0.05489122541451
C            1.60173048185119       -1.48043524780183       -0.42053223762303
C           -2.13912266406524       -0.45743131094705       -0.16384743542256
C           -2.47116218073070       -0.25813052383052        1.31386630050539
C           -2.94183751564452        0.51842685441709       -1.02384118941699
H            4.15522909979526       -0.53642828352932       -0.83403756001908
H            4.02862536214138       -0.80255743338638        0.89595248965355
H            4.07581811653913        0.85153862168858        0.26832196583055
H            1.91437016628839        1.83803132796576        0.50813205542898
H            0.13618707743541       -1.57125716826259        1.14615801069779
H           -0.31572217357084       -2.46601817202659       -0.30967613467121
H            2.18130579726493       -2.31019942451003       -0.01409478982576
H            1.63221072665550       -1.56220420206458       -1.51191018170869
H           -2.43414456463236       -1.47635570490979       -0.44439115422149
H           -2.20508036795076        0.74880732513904        1.62695777513367
H           -1.93662618857753       -0.97060075141733        1.93679485728310
H           -3.53766322311965       -0.39485941089035        1.47598176593209
H           -4.00666544152784        0.39327347199755       -0.84060347997137
H           -2.75153589281165        0.34754139809989       -2.08151865434686
H           -2.66778078335928        1.54245363930548       -0.78235193384079
27
 energy: -33.643655117769 gnorm: 0.000135278218 xtb: 6.7.1 (edcfbbe)
C            3.70956513892082       -0.15368420511121        0.08197168790782
C            2.22568117423449       -0.18030128063671       -0.02820385066226
C            1.46664236896591        0.90050392530631        0.20789671384322
C            0.01977542027736        0.93736531533809        0.06511767163306
O           -0.60591935391127        1.96724231780471        0.29890006722341
C           -0.62829806524920       -0.33731493732040       -0.44782885839170
H           -0.50569588425619       -0.29003459682004       -1.53992127767097
C            0.15580895827902       -1.55177813389145        0.05563162311756
C            1.60143564825394       -1.47988150886100       -0.42116478275350
C           -2.13918489659826       -0.45695208502866       -0.16362602952170
C           -2.47204561229351       -0.25875155232571        1.31396807449607
C           -2.94192520435755        0.51830983639882       -1.02408059208046
H            4.15614987724183       -0.53771660474635       -0.83323459730597
H            4.02862514933985       -0.80204257981460        0.89684535925358
H            4.07630642912095        0.85135278740006        0.26758449634666
H            1.91505253202871        1.83815241325024        0.50813328874626
H            0.13753164714577       -1.57031217186134        1.14691154183593
H           -0.31551975402393       -2.46586828247876       -0.30788992184632
H            2.18144254348106       -2.31014544635305       -0.01633739844916
H            1.63087958987419       -1.56073467572374       -1.51268326329109
H           -2.43399689213233       -1.47580639776419       -0.44467690544438
H           -2.20465922271368        0.74715117776200        1.62900447869193
H           -1.93925330673223       -0.97306016939480        1.93635562990449
H           -3.53877164805326       -0.39409880831795        1.47518453693811
H           -4.00627301020807        0.39506373772768       -0.83892750888832
H           -2.75420134353537        0.34500451732561       -2.08171446538286
H           -2.66651469382289        1.54234286778790       -0.78587784004847
27
 energy: -33.643655402868 gnorm: 0.000144665700 xtb: 6.7.1 (edcfbbe)
C            3.70954737636120       -0.15365944691134        0.08211793017994
C            2.22567265722283       -0.18015428691923       -0.02824127261301
C            1.46660260325470        0.90059941342885        0.20803921296613
C            0.01976083854969        0.93742296399465        0.06497871912125
O           -0.60592315897748        1.96729458344294        0.29892376594986
C           -0.62837966326774       -0.33730875125532       -0.44788504644216
H           -0.50570018523091       -0.29010571081806       -1.53997604508438
C            0.15587552318646       -1.55160837487259        0.05574986637851
C            1.60136457252115       -1.47964857200205       -0.42142287771080
C           -2.13928288512426       -0.45704162531061       -0.16378415813697
C           -2.47205831201325       -0.25911942953969        1.31385029274138
C           -2.94196013028930        0.51838638717803       -1.02409133029861
H            4.15632866831519       -0.53889803187315       -0.83250410038344
H            4.02833844162177       -0.80108860169689        0.89786202658774
H            4.07646363807716        0.85149906185911        0.26665825085883
H            1.91493692541291        1.83818172040229        0.50853911443765
H            0.13794561892280       -1.56982092102777        1.14705880920861
H           -0.31544986883160       -2.46587884627160       -0.30732986918570
H            2.18154143176135       -2.31000544437789       -0.01692218978035
H            1.63060108914783       -1.56024092912577       -1.51301367517825
H           -2.43420894453291       -1.47583620088094       -0.44498666338964
H           -2.20348972861856        0.74630154891321        1.62951788167744
H           -1.94012325789101       -0.97451257218766        1.93582062715034
H           -3.53895282935175       -0.39337009651896        1.47492685804459
H           -4.00629305572735        0.39688813442275       -0.83706222797392
H           -2.75603285322961        0.34328008507724       -2.08187427540745
H           -2.66448692199312        1.54244940252194       -0.78761174551658
27
 energy: -33.643655689429 gnorm: 0.000083267453 xtb: 6.7.1 (edcfbbe)
C            3.70954769161505       -0.15371941791391        0.08223352577062
C            2.22564473082129       -0.17998404067668       -0.02809061971730
C            1.46655666120792        0.90070442854433        0.20830724401011
C            0.01972932393619        0.93764266205938        0.06480900755375
O           -0.60593342717129        1.96757548575757        0.29847960072598
C           -0.62838638188372       -0.33706862683388       -0.44827928334304
H           -0.50572629187817       -0.28963414490335       -1.54035633237019
C            0.15574452835229       -1.55141963924969        0.05534659843690
C            1.60144152353747       -1.47956477966716       -0.42119362479963
C           -2.13924897868362       -0.45701315442706       -0.16402081845786
C           -2.47171732584072       -0.25956200854403        1.31375392698123
C           -2.94223204282240        0.51852265132417       -1.02394220200076
H            4.15616844556893       -0.54094018113446       -0.83162967416124
H            4.02803192251838       -0.79967940135193        0.89926850135302
H            4.07687753705782        0.85163510904778        0.26490648623378
H            1.91486136031813        1.83827122595225        0.50891357126431
H            0.13746576571782       -1.56970467766269        1.14665039701368
H           -0.31549828647902       -2.46564507894095       -0.30794813930668
H            2.18141145066218       -2.30974670441060       -0.01596568374263
H            1.63135906276222       -1.56062582513169       -1.51274165441204
H           -2.43407278250517       -1.47577614345276       -0.44546467691716
H           -2.20249849868549        0.74555215037995        1.62980680526946
H           -1.94013783727265       -0.97557339898480        1.93532405519240
H           -3.53865253008222       -0.39324274671845        1.47493860908844
H           -4.00632991971813        0.39776379820591       -0.83555134065830
H           -2.75779343155001        0.34273937335809       -2.08184744762112
H           -2.66397468022693        1.54249854502617       -0.78836895318471
27
 energy: -33.643655922435 gnorm: 0.000075322362 xtb: 6.7.1 (edcfbbe)
C            3.70948073241211       -0.15358773867878        0.08247086923784
C            2.22557417147026       -0.17992797995596       -0.02793366778998
C            1.46640264621184        0.90068187425700        0.20846426510201
C            0.01960576448423        0.93766076979693        0.06462188465101
O           -0.60605836177295        1.96766378713537        0.29794058546711
C           -0.62841282087393       -0.33697271978325       -0.44882450177623
H           -0.50588864553102       -0.28922170735492       -1.54088930405463
C            0.15557948339574       -1.55146844236469        0.05460902067464
C            1.60163303088958       -1.47966703010003       -0.42086943105595
C           -2.13923871875922       -0.45696133732455       -0.16430511093932
C           -2.47116561709446       -0.25995161193627        1.31366639313188
C           -2.94256728800033        0.51882267297039       -1.02363995922622
H            4.15611919409775       -0.54362754630494       -0.83015986725549
H            4.02764317589902       -0.79716283963231        0.90151579193634
H            4.07697907796208        0.85222786205561        0.26232923852569
H            1.91459860927675        1.83831225639156        0.50906803706089
H            0.13659479425913       -1.57019264142473        1.14588457823278
H           -0.31549251602164       -2.46550791339411       -0.30936106813461
H            2.18128503146815       -2.30957929059640       -0.01460698751841
H            1.63256663815542       -1.56140688251674       -1.51233306145395