
                                 *****************
                                 * O   R   C   A *
                                 *****************

                                            #,                                       
                                            ###                                      
                                            ####                                     
                                            #####                                    
                                            ######                                   
                                           ########,                                 
                                     ,,################,,,,,                         
                               ,,#################################,,                 
                          ,,##########################################,,             
                       ,#########################################, ''#####,          
                    ,#############################################,,   '####,        
                  ,##################################################,,,,####,       
                ,###########''''           ''''###############################       
              ,#####''   ,,,,##########,,,,          '''####'''          '####       
            ,##' ,,,,###########################,,,                        '##       
           ' ,,###''''                  '''############,,,                           
         ,,##''                                '''############,,,,        ,,,,,,###''
      ,#''                                            '''#######################'''  
     '                                                          ''''####''''         
             ,#######,   #######,   ,#######,      ##                                
            ,#'     '#,  ##    ##  ,#'     '#,    #''#        ,####,   ,####,        
            ##       ##  ##   ,#'  ##            #'  '#       #'       #'  '#        
            ##       ##  #######   ##           ,######,      #####,   #    #        
            '#,     ,#'  ##    ##  '#,     ,#' ,#      #,     #,   #   #,  ,#        
             '#######'   ##     ##  '#######'  #'      '#     '####' # '####'        



                #########################################################
                #                        -***-                          #
                #          Department of theory and spectroscopy        #
                #                                                       #
                #                      Frank Neese                      #
                #                                                       #
                #     Directorship, Architecture, Infrastructure        #
                #                    SHARK, DRIVERS                     #
                #        Core code/Algorithms in most modules           #
                #                                                       #
                #        Max Planck Institute fuer Kohlenforschung      #
                #                Kaiser Wilhelm Platz 1                 #
                #                 D-45470 Muelheim/Ruhr                 #
                #                      Germany                          #
                #                                                       #
                #                  All rights reserved                  #
                #                        -***-                          #
                #########################################################


                         Program Version 6.0.0  -   RELEASE  -


 With contributions from (in alphabetic order):
   Daniel Aravena         : Magnetic Suceptibility
   Michael Atanasov       : Ab Initio Ligand Field Theory (pilot matlab implementation)
   Alexander A. Auer      : GIAO ZORA, VPT2 properties, NMR spectrum
   Ute Becker             : All parallelization in ORCA, NUMFREQ, NUMCALC
   Giovanni Bistoni       : ED, misc. LED, open-shell LED, HFLD
   Martin Brehm           : Molecular dynamics
   Dmytro Bykov           : pre 5.0 version of the SCF Hessian
   Marcos Casanova-Páez   : Triplet and SCS-CIS(D). UHF-(DLPNO)-IP/EA/STEOM-CCSD. UHF-CVS-IP/STEOM-CCSD
   Vijay G. Chilkuri      : MRCI spin determinant printing, contributions to CSF-ICE
   Pauline Colinet        : FMM embedding
   Dipayan Datta          : RHF DLPNO-CCSD density
   Achintya Kumar Dutta   : EOM-CC, STEOM-CC
   Nicolas Foglia         : Exact transition moments, OPA infrastructure, MCD improvements
   Dmitry Ganyushin       : Spin-Orbit,Spin-Spin,Magnetic field MRCI
   Miquel Garcia          : C-PCM and meta-GGA Hessian, CCSD/C-PCM, Gaussian charge scheme
   Tiago L. C. Gouveia    : GS-ROHF, GS-ROCIS
   Yang Guo               : DLPNO-NEVPT2, F12-NEVPT2, CIM, IAO-localization
   Andreas Hansen         : Spin unrestricted coupled pair/coupled cluster methods
   Ingolf Harden          : AUTO-CI MPn and infrastructure 
   Benjamin Helmich-Paris : MC-RPA, TRAH-(SCF,CASSCF), AVAS, COSX integrals, SCF dyn. polar.
   Lee Huntington         : MR-EOM, pCC
   Robert Izsak           : Overlap fitted RIJCOSX, COSX-SCS-MP3, EOM
   Riya Kayal             : Wick's Theorem for AUTO-CI, AUTO-CI UHF-CCSDT
   Emily Kempfer          : AUTO-CI, RHF CISDT and CCSDT
   Christian Kollmar      : KDIIS, OOCD, Brueckner-CCSD(T), CCSD density, CASPT2, CASPT2-K, improved NEVPT2
   Axel Koslowski         : Symmetry handling
   Simone Kossmann        : Meta GGA functionals, TD-DFT gradient, OOMP2, (MP2 Hessian; deprecated post 5.0)
   Lucas Lang             : DCDCAS
   Marvin Lechner         : AUTO-CI (C++ implementation), FIC-MRCC
   Spencer Leger          : CASSCF response
   Dagmar Lenk            : GEPOL surface, SMD, ORCA-2-JSON
   Dimitrios Liakos       : Extrapolation schemes; Compound Job, initial MDCI parallelization
   Dimitrios Manganas     : Further ROCIS development; embedding schemes. LFT, Crystal Embedding
   Dimitrios Pantazis     : SARC Basis sets
   Anastasios Papadopoulos: AUTO-CI, single reference methods and gradients
   Taras Petrenko         : pre 6.0 DFT Hessian and TD-DFT gradient, (ASA, deprecated), ECA, 1-Electron XAS/XES, NRVS
   Peter Pinski           : DLPNO-MP2, DLPNO-MP2 Gradient
   Christoph Reimann      : Effective Core Potentials
   Marius Retegan         : Local ZFS, SOC
   Christoph Riplinger    : Optimizer, TS searches, QM/MM, DLPNO-CCSD(T), (RO)-DLPNO pert. Triples
   Michael Roemelt        : Original ROCIS implementation
   Masaaki Saitow         : Open-shell DLPNO-CCSD energy and density
   Barbara Sandhoefer     : DKH picture change effects
   Kantharuban Sivalingam : CASSCF convergence/infrastructure, NEVPT2 and variants, FIC-MRCI
   Bernardo de Souza      : ESD, SOC TD-DFT
   Georgi Stoychev        : AutoAux, RI-MP2 NMR, DLPNO-MP2 response, X2C
   Van Anh Tran           : RI-MP2 g-tensors
   Willem Van den Heuvel  : Paramagnetic NMR
   Zikuan Wang            : NOTCH, Electric field optimization 
   Frank Wennmohs         : Technical directorship and infrastructure
   Hang Xu                : AUTO-CI-Response properties 


 We gratefully acknowledge several colleagues who have allowed us to
 interface, adapt or use parts of their codes:
   Stefan Grimme, W. Hujo, H. Kruse, P. Pracht,  : VdW corrections, initial TS optimization,
                  C. Bannwarth, S. Ehlert,         DFT functionals, gCP, sTDA/sTD-DF
                  L. Wittmann, M. Mueller
   Ed Valeev, F. Pavosevic, A. Kumar             : LibInt (2-el integral package), F12 methods
   Garnet Chan, S. Sharma, J. Yang, R. Olivares  : DMRG
   Ulf Ekstrom                                   : XCFun DFT Library
   Mihaly Kallay                                 : mrcc  (arbitrary order and MRCC methods)
   Frank Weinhold                                : gennbo (NPA and NBO analysis)
   Simon Mueller                                 : openCOSMO-RS
   Christopher J. Cramer and Donald G. Truhlar   : smd solvation model
   Lars Goerigk                                  : TD-DFT with DH, B97 family of functionals
   V. Asgeirsson, H. Jonsson                     : NEB implementation
   FAccTs GmbH                                   : IRC, NEB, NEB-TS, DLPNO-Multilevel, CI-OPT
                                                   MM, QMMM, 2- and 3-layer-ONIOM, Crystal-QMMM,
                                                   LR-CPCM, SF, NACMEs, symmetry and pop. for TD-DFT,
                                                   nearIR, NL-DFT gradient (VV10), updates on ESD,
                                                   ML-optimized integration grids, MBIS, APM,
                                                   GOAT, DOCKER, SOLVATOR, interface openCOSMO-RS
   S Lehtola, MJT Oliveira, MAL Marques          : LibXC Library
   Liviu Ungur et al                             : ANISO software


 Your calculation uses the libint2 library for the computation of 2-el integrals
 For citations please refer to: http://libint.valeyev.net

 Your ORCA version has been built with support for libXC version: 6.2.2
 For citations please refer to: https://libxc.gitlab.io

 This ORCA versions uses:
   CBLAS   interface :  Fast vector & matrix operations
   LAPACKE interface :  Fast linear algebra routines
   SCALAPACK package :  Parallel linear algebra routines
   Shared memory     :  Shared parallel matrices
   BLAS/LAPACK       :  OpenBLAS 0.3.27  USE64BITINT DYNAMIC_ARCH NO_AFFINITY SkylakeX SINGLE_THREADED
        Core in use  :  SkylakeX
   Copyright (c) 2011-2014, The OpenBLAS Project


Your calculation utilizes the geometrical counterpoise correction gCP
Please cite in your paper:
H.Kruse, S. Grimme J.Chem.Phys., 136, (2012), 154101 
   

Your calculation utilizes the atom-pairwise dispersion correction
based on EEQ partial charges (D4)


================================================================================

----- Orbital basis set information -----
Your calculation utilizes the basis: def2-SV(P)
   F. Weigend and R. Ahlrichs, Phys. Chem. Chem. Phys. 7, 3297 (2005).

----- AuxJ basis set information -----
Your calculation utilizes the auxiliary basis: def2/J
   F. Weigend, Phys. Chem. Chem. Phys. 8, 1057 (2006).

================================================================================
                                        WARNINGS
                       Please study these warnings very carefully!
================================================================================


================================================================================
                                       INPUT FILE
================================================================================
NAME = sp.inp
|  1> ! pbe def2-sv(p) def2/J RI DEFGRID1 loosescf d4 GCP(DFT/SV(P)) printgap
|  2> %output
|  3>     printlevel normal
|  4> end
|  5> * xyz 0 1
|  6> C -2.2819960979 -1.0755995897 -0.1830299643
|  7> C -0.9011555341 -0.5592650347 0.2201342978
|  8> H -0.7754766584 -0.6522238764 1.3096786316
|  9> C -0.7306656152 0.9271269096 -0.1517208501
| 10> H -1.2197509914 1.11555348 -1.1198336242
| 11> C 0.75938492 1.2627310667 -0.3446706781
| 12> H 0.9069913213 2.2859981715 0.0393304503
| 13> C 1.643457264 0.2964280175 0.4620049953
| 14> H 2.7032580844 0.4942625403 0.23560556
| 15> C 1.3754873619 -1.1554040236 0.0216349745
| 16> H 1.5410397782 -1.801570268 0.910632715
| 17> O 0.05974738 -1.3584315652 -0.4421569615
| 18> O 2.2541716012 -1.4763703139 -0.9959173385
| 19> O 1.4109413198 0.3753167291 1.8434754026
| 20> O 1.0349001768 1.2083391755 -1.7194079345
| 21> O -1.2510880213 1.7712008185 0.8416815338
| 22> O -3.2504364257 -0.2634880211 0.4387752618
| 23> H -2.3721707704 -2.1208453586 0.1338918887
| 24> H -2.3603038881 -1.0265226295 -1.2758966896
| 25> H 1.929271069 -2.2639370487 -1.4595066864
| 26> H 1.4808506751 1.2961127612 2.1364459618
| 27> H 1.9875175804 1.2918634619 -1.8710605332
| 28> H -2.1718294391 1.5077229305 1.004303572
| 29> H -4.1340467971 -0.5766369729 0.1987733451
| 30> *
| 31> 
| 32>                          ****END OF INPUT****
================================================================================

                       ****************************
                       * Single Point Calculation *
                       ****************************

---------------------------------
CARTESIAN COORDINATES (ANGSTROEM)
---------------------------------
  C     -2.281996   -1.075600   -0.183030
  C     -0.901156   -0.559265    0.220134
  H     -0.775477   -0.652224    1.309679
  C     -0.730666    0.927127   -0.151721
  H     -1.219751    1.115553   -1.119834
  C      0.759385    1.262731   -0.344671
  H      0.906991    2.285998    0.039330
  C      1.643457    0.296428    0.462005
  H      2.703258    0.494263    0.235606
  C      1.375487   -1.155404    0.021635
  H      1.541040   -1.801570    0.910633
  O      0.059747   -1.358432   -0.442157
  O      2.254172   -1.476370   -0.995917
  O      1.410941    0.375317    1.843475
  O      1.034900    1.208339   -1.719408
  O     -1.251088    1.771201    0.841682
  O     -3.250436   -0.263488    0.438775
  H     -2.372171   -2.120845    0.133892
  H     -2.360304   -1.026523   -1.275897
  H      1.929271   -2.263937   -1.459507
  H      1.480851    1.296113    2.136446
  H      1.987518    1.291863   -1.871061
  H     -2.171829    1.507723    1.004304
  H     -4.134047   -0.576637    0.198773

----------------------------
CARTESIAN COORDINATES (A.U.)
----------------------------
  NO LB      ZA    FRAG     MASS         X           Y           Z
   0 C     6.0000    0    12.011   -4.312348   -2.032589   -0.345877
   1 C     6.0000    0    12.011   -1.702937   -1.056858    0.415994
   2 H     1.0000    0     1.008   -1.465439   -1.232525    2.474934
   3 C     6.0000    0    12.011   -1.380758    1.752016   -0.286711
   4 H     1.0000    0     1.008   -2.304995    2.108091   -2.116179
   5 C     6.0000    0    12.011    1.435030    2.386216   -0.651333
   6 H     1.0000    0     1.008    1.713965    4.319910    0.074324
   7 C     6.0000    0    12.011    3.105684    0.560168    0.873063
   8 H     1.0000    0     1.008    5.108417    0.934021    0.445230
   9 C     6.0000    0    12.011    2.599294   -2.183397    0.040884
  10 H     1.0000    0     1.008    2.912143   -3.404474    1.720846
  11 O     8.0000    0    15.999    0.112906   -2.567064   -0.835556
  12 O     8.0000    0    15.999    4.259767   -2.789936   -1.882011
  13 O     8.0000    0    15.999    2.666293    0.709246    3.483664
  14 O     8.0000    0    15.999    1.955678    2.283430   -3.249210
  15 O     8.0000    0    15.999   -2.364214    3.347084    1.590548
  16 O     8.0000    0    15.999   -6.142435   -0.497920    0.829165
  17 H     1.0000    0     1.008   -4.482753   -4.007817    0.253019
  18 H     1.0000    0     1.008   -4.460328   -1.939847   -2.411095
  19 H     1.0000    0     1.008    3.645794   -4.278221   -2.758068
  20 H     1.0000    0     1.008    2.798402    2.449298    4.037298
  21 H     1.0000    0     1.008    3.755864    2.441268   -3.535792
  22 H     1.0000    0     1.008   -4.104163    2.849183    1.897859
  23 H     1.0000    0     1.008   -7.812216   -1.089686    0.375627

--------------------------------
INTERNAL COORDINATES (ANGSTROEM)
--------------------------------
 C      0   0   0     0.000000000000     0.00000000     0.00000000
 C      1   0   0     1.528353184823     0.00000000     0.00000000
 H      2   1   0     1.100701313419   109.61782788     0.00000000
 C      2   1   3     1.541656276719   111.22394822   240.74522083
 H      4   2   1     1.100886652213   109.14783579   322.03780031
 C      4   2   1     1.539516282421   110.33110947   205.45281691
 H      6   4   2     1.102869023993   106.74776826   216.12748839
 C      6   4   2     1.538197365221   110.70808419   334.47021260
 H      8   6   4     1.101622885400   109.41039910   174.74163521
 C      8   6   4     1.540632954086   110.00644960    58.52448242
 H     10   8   6     1.111420442748   107.05768747   211.00574676
 O     10   8   6     1.409785388815   113.08392420   330.53394007
 O     10   8   6     1.382214911508   108.58320648    91.03869005
 O      8   6   4     1.403120657453   112.69180802   298.21029930
 O      6   4   2     1.403128525365   107.72169288    97.39117527
 O      4   2   1     1.403619799232   111.59748378    84.81142601
 O      1   2   3     1.408560828494   108.05613621    62.47733448
 H      1   2   3     1.095951481532   108.67886557   301.40041952
 H      1   2   3     1.096767221108   108.19440751   183.22428827
 H     13  10   8     0.969915873194   109.11560264   197.16245058
 H     14   8   6     0.968805656077   109.82919839   307.46118149
 H     15   6   4     0.968222461397   110.07864372   187.88011474
 H     16   4   2     0.971406857720   107.86698794   305.95852035
 H     17   1   2     0.967693378338   109.37431906   180.23328273

---------------------------
INTERNAL COORDINATES (A.U.)
---------------------------
 C      0   0   0     0.000000000000     0.00000000     0.00000000
 C      1   0   0     2.888168955221     0.00000000     0.00000000
 H      2   1   0     2.080024037610   109.61782788     0.00000000
 C      2   1   3     2.913308155639   111.22394822   240.74522083
 H      4   2   1     2.080374277172   109.14783579   322.03780031
 C      4   2   1     2.909264152487   110.33110947   205.45281691
 H      6   4   2     2.084120416932   106.74776826   216.12748839
 C      6   4   2     2.906771760188   110.70808419   334.47021260
 H      8   6   4     2.081765556265   109.41039910   174.74163521
 C      8   6   4     2.911374356116   110.00644960    58.52448242
 H     10   8   6     2.100280256436   107.05768747   211.00574676
 O     10   8   6     2.664108292465   113.08392420   330.53394007
 O     10   8   6     2.612007640972   108.58320648    91.03869005
 O      8   6   4     2.651513775433   112.69180802   298.21029930
 O      6   4   2     2.651528643632   107.72169288    97.39117527
 O      4   2   1     2.652457016697   111.59748378    84.81142601
 O      1   2   3     2.661794208823   108.05613621    62.47733448
 H      1   2   3     2.071048156161   108.67886557   301.40041952
 H      1   2   3     2.072589680556   108.19440751   183.22428827
 H     13  10   8     1.832875373280   109.11560264   197.16245058
 H     14   8   6     1.830777366980   109.82919839   307.46118149
 H     15   6   4     1.829675288751   110.07864372   187.88011474
 H     16   4   2     1.835692925704   107.86698794   305.95852035
 H     17   1   2     1.828675466667   109.37431906   180.23328273

---------------------
BASIS SET INFORMATION
---------------------
There are 3 groups of distinct atoms

 Group   1 Type C   : 7s4p1d contracted to 3s2p1d pattern {511/31/1}
 Group   2 Type H   : 4s contracted to 2s pattern {31}
 Group   3 Type O   : 7s4p1d contracted to 3s2p1d pattern {511/31/1}

Atom   0C    basis set group =>   1
Atom   1C    basis set group =>   1
Atom   2H    basis set group =>   2
Atom   3C    basis set group =>   1
Atom   4H    basis set group =>   2
Atom   5C    basis set group =>   1
Atom   6H    basis set group =>   2
Atom   7C    basis set group =>   1
Atom   8H    basis set group =>   2
Atom   9C    basis set group =>   1
Atom  10H    basis set group =>   2
Atom  11O    basis set group =>   3
Atom  12O    basis set group =>   3
Atom  13O    basis set group =>   3
Atom  14O    basis set group =>   3
Atom  15O    basis set group =>   3
Atom  16O    basis set group =>   3
Atom  17H    basis set group =>   2
Atom  18H    basis set group =>   2
Atom  19H    basis set group =>   2
Atom  20H    basis set group =>   2
Atom  21H    basis set group =>   2
Atom  22H    basis set group =>   2
Atom  23H    basis set group =>   2
---------------------------------
AUXILIARY/J BASIS SET INFORMATION
---------------------------------
There are 3 groups of distinct atoms

 Group   1 Type C   : 12s5p4d2f1g contracted to 6s4p3d1f1g pattern {711111/2111/211/2/1}
 Group   2 Type H   : 5s2p1d contracted to 3s1p1d pattern {311/2/1}
 Group   3 Type O   : 12s5p4d2f1g contracted to 6s4p3d1f1g pattern {711111/2111/211/2/1}

Atom   0C    basis set group =>   1
Atom   1C    basis set group =>   1
Atom   2H    basis set group =>   2
Atom   3C    basis set group =>   1
Atom   4H    basis set group =>   2
Atom   5C    basis set group =>   1
Atom   6H    basis set group =>   2
Atom   7C    basis set group =>   1
Atom   8H    basis set group =>   2
Atom   9C    basis set group =>   1
Atom  10H    basis set group =>   2
Atom  11O    basis set group =>   3
Atom  12O    basis set group =>   3
Atom  13O    basis set group =>   3
Atom  14O    basis set group =>   3
Atom  15O    basis set group =>   3
Atom  16O    basis set group =>   3
Atom  17H    basis set group =>   2
Atom  18H    basis set group =>   2
Atom  19H    basis set group =>   2
Atom  20H    basis set group =>   2
Atom  21H    basis set group =>   2
Atom  22H    basis set group =>   2
Atom  23H    basis set group =>   2
------------------------------------------------------------------------------
                             ORCA STARTUP CALCULATIONS
                           -- RI-GTO INTEGRALS CHOSEN --
------------------------------------------------------------------------------
------------------------------------------------------------------------------
                   ___                                                        
                  /   \      - P O W E R E D   B Y -                         
                 /     \                                                     
                 |  |  |   _    _      __       _____    __    __             
                 |  |  |  | |  | |    /  \     |  _  \  |  |  /  |          
                  \  \/   | |  | |   /    \    | | | |  |  | /  /          
                 / \  \   | |__| |  /  /\  \   | |_| |  |  |/  /          
                |  |  |   |  __  | /  /__\  \  |    /   |      \           
                |  |  |   | |  | | |   __   |  |    \   |  |\   \          
                \     /   | |  | | |  |  |  |  | |\  \  |  | \   \       
                 \___/    |_|  |_| |__|  |__|  |_| \__\ |__|  \__/        
                                                                              
                      - O R C A' S   B I G   F R I E N D -                    
                                      &                                       
                       - I N T E G R A L  F E E D E R -                       
                                                                              
 v1 FN, 2020, v2 2021, v3 2022-2024                                           
------------------------------------------------------------------------------


----------------------
SHARK INTEGRAL PACKAGE
----------------------

Number of atoms                             ...     24
Number of basis functions                   ...    192
Number of shells                            ...     96
Maximum angular momentum                    ...      2
Integral batch strategy                     ... SHARK/LIBINT Hybrid
RI-J (if used) integral strategy            ... SPLIT-RIJ (Revised 2003 algorithm where possible)
Printlevel                                  ...      1
Contraction scheme used                     ... SEGMENTED contraction
Prescreening option                         ... SCHWARTZ
   Thresh                                   ... 1.000e-09
   Tcut                                     ... 1.000e-10
   Tpresel                                  ... 1.000e-10 
Coulomb Range Separation                    ... NOT USED
Exchange Range Separation                   ... NOT USED
Multipole approximations                    ... NOT USED
Finite Nucleus Model                        ... NOT USED
CABS basis                                  ... NOT available
Auxiliary Coulomb fitting basis             ... AVAILABLE
   # of basis functions in Aux-J            ...    720
   # of shells in Aux-J                     ...    240
   Maximum angular momentum in Aux-J        ...      4
Auxiliary J/K fitting basis                 ... NOT available
Auxiliary Correlation fitting basis         ... NOT available
Auxiliary 'external' fitting basis          ... NOT available

Checking pre-screening integrals            ... done (  0.0 sec) Dimension = 96
Check shell pair data                       ... done (  0.0 sec)
Shell pair information
Shell pair cut-off parameter TPreSel        ...   1.0e-10
Total number of shell pairs                 ...      4656
Shell pairs after pre-screening             ...      4220
Total number of primitive shell pairs       ...     18720
Primitive shell pairs kept                  ...     11320
          la=0 lb=0:   1630 shell pairs
          la=1 lb=0:   1344 shell pairs
          la=1 lb=1:    291 shell pairs
          la=2 lb=0:    618 shell pairs
          la=2 lb=1:    269 shell pairs
          la=2 lb=2:     68 shell pairs

Calculating one electron integrals          ... done (  0.0 sec)
Calculating RI/J V-Matrix + Cholesky decomp.... done (  0.1 sec)
Calculating Nuclear repulsion               ... done (  0.0 sec) ENN=    848.122071511115 Eh

Diagonalization of the overlap matrix:
Smallest eigenvalue                        ... 6.961e-04
Time for diagonalization                   ...    0.003 sec
Threshold for overlap eigenvalues          ... 1.000e-07
Number of eigenvalues below threshold      ... 0
Time for construction of square roots      ...    0.012 sec
Total time needed                          ...    0.023 sec

-------------------
DFT GRID GENERATION
-------------------

General Integration Accuracy     IntAcc      ... 4.159
Radial Grid Type                 RadialGrid  ... OptM3 with GC (2021)
Angular Grid (max. ang.)         AngularGrid ... 3 (Lebedev-194)
Angular grid pruning method      GridPruning ... 4 (adaptive)
Weight generation scheme         WeightScheme... mBecke (2022)
Basis function cutoff            BFCut       ... 1.0000e-10
Integration weight cutoff        WCut        ... 1.0000e-14
Partially contracted basis set               ... off
Rotationally invariant grid construction     ... off
Angular grids for H and He will be reduced by one unit

Total number of grid points                  ...    55726
Total number of batches                      ...      880
Average number of points per batch           ...       63
Average number of grid points per atom       ...     2322
Initializing property integral containers    ... done (  0.0 sec)

SHARK setup successfully completed in   0.8 seconds

Maximum memory used throughout the entire STARTUP-calculation: 28.1 MB
-------------------------------------------------------------------------------
                                 ORCA GUESS
                   Start orbitals & Density for SCF / CASSCF
-------------------------------------------------------------------------------

------------
SCF SETTINGS
------------
Hamiltonian:
 Density Functional     Method          .... DFT(GTOs)
 Exchange Functional    Exchange        .... PBE
   PBE kappa parameter   XKappa         ....  0.804000
   PBE mue parameter    XMuePBE         ....  0.219520
 Correlation Functional Correlation     .... PBE
   PBE beta parameter  CBetaPBE         ....  0.066725
 LDA part of GGA corr.  LDAOpt          .... PW91-LDA
 Gradients option       PostSCFGGA      .... off
   NL short-range parameter             ....  6.400000
 RI-approximation to the Coulomb term is turned on
   Number of AuxJ basis functions       .... 720


General Settings:
 Integral files         IntName         .... sp
 Hartree-Fock type      HFTyp           .... RHF
 Total Charge           Charge          ....    0
 Multiplicity           Mult            ....    1
 Number of Electrons    NEL             ....   96
 Basis Dimension        Dim             ....  192
 Nuclear Repulsion      ENuc            ....    848.1220715111 Eh

Convergence Acceleration:
 AO-DIIS                CNVDIIS         .... on
   Start iteration      DIISMaxIt       ....    12
   Startup error        DIISStart       ....  0.200000
   # of expansion vecs  DIISMaxEq       ....     5
   Bias factor          DIISBfac        ....   1.050
   Max. coefficient     DIISMaxC        ....  10.000
 MO-DIIS                CNVKDIIS        .... off
 Trust-Rad. Augm. Hess. CNVTRAH         .... auto
   Auto Start mean grad. ratio tolernc. ....  1.125000
   Auto Start start iteration           ....    50
   Auto Start num. interpolation iter.  ....    10
   Max. Number of Micro iterations      ....    24
   Max. Number of Macro iterations      .... Maxiter - #DIIS iter
   Number of Davidson start vectors     ....     2
   Converg. threshold    (grad. norm)   ....   1.000e-04
   Grad. Scal. Fac. for Micro threshold ....   0.100
   Minimum threshold for Micro iter.    ....   1.000e-02
   NR start threshold (gradient norm)   ....   1.000e-04
   Initial trust radius                 ....   0.400
   Minimum AH scaling param. (alpha)    ....   1.000
   Maximum AH scaling param. (alpha)    .... 1000.000
   Quad. conv. algorithm                .... NR
   White noise on init. David. guess    .... on
   Maximum white noise                  ....   0.010
   Pseudo random numbers                .... off
   Inactive MOs                         .... canonical
   Orbital update algorithm             .... Taylor
   Preconditioner                       .... Diag
   Full preconditioner red. dimension   ....   250
 SOSCF                  CNVSOSCF        .... on
   Start iteration      SOSCFMaxIt      ....   150
   Startup grad/error   SOSCFStart      ....  0.003300
   Hessian update       SOSCFHessUp     .... L-BFGS
 Level Shifting         CNVShift        .... on
   Level shift para.    LevelShift      ....    0.2500
   Turn off err/grad.   ShiftErr        ....    0.0010
 Zerner damping         CNVZerner       .... off
 Static damping         CNVDamp         .... on
   Fraction old density DampFac         ....    0.7000
   Max. Damping (<1)    DampMax         ....    0.9800
   Min. Damping (>=0)   DampMin         ....    0.0000
   Turn off err/grad.   DampErr         ....    0.1000

SCF Procedure:
 Maximum # iterations   MaxIter         ....   125
 SCF integral mode      SCFMode         .... Direct
   Integral package                     .... SHARK and LIBINT hybrid scheme
 Reset frequency        DirectResetFreq ....    20
 Integral Threshold     Thresh          ....  1.000e-09 Eh
 Primitive CutOff       TCut            ....  1.000e-10 Eh

Convergence Tolerance:
 Convergence Check Mode ConvCheckMode   .... Total+1el-Energy
 Convergence forced     ConvForced      .... 0
 Energy Change          TolE            ....  1.000e-05 Eh
 1-El. energy change                    ....  1.000e-02 Eh
 Orbital Gradient       TolG            ....  1.000e-04
 Orbital Rotation angle TolX            ....  1.000e-04
 DIIS Error             TolErr          ....  5.000e-04

------------------------------
INITIAL GUESS: MODEL POTENTIAL
------------------------------
Loading Hartree-Fock densities                     ... done
Calculating cut-offs                               ... done
Initializing the effective Hamiltonian             ... done
Setting up the integral package (SHARK)            ... done
Starting the Coulomb interaction                   ... done (   0.2 sec)
Making the grid                                    ... done (   0.3 sec)
Mapping shells                                     ... done
Starting the XC term evaluation                    ... done (   0.2 sec)
  promolecular density results
     # of electrons  =     95.997114745
     EX              =    -83.240713402
     EC              =     -3.270593108
     EX+EC           =    -86.511306510
Transforming the Hamiltonian                       ... done (   0.0 sec)
Diagonalizing the Hamiltonian                      ... done (   0.0 sec)
Back transforming the eigenvectors                 ... done (   0.0 sec)
Now organizing SCF variables                       ... done
                      ------------------
                      INITIAL GUESS DONE (   0.8 sec)
                      ------------------
             **** ENERGY FILE WAS UPDATED (sp.en.tmp) ****
Finished Guess after   1.0 sec
Maximum memory used throughout the entire GUESS-calculation: 21.9 MB

-------------------------------------------------------------------------------------------
                                      ORCA LEAN-SCF
                              memory conserving SCF solver
-------------------------------------------------------------------------------------------

----------------------------------------D-I-I-S--------------------------------------------
Iteration    Energy (Eh)           Delta-E    RMSDP     MaxDP     DIISErr   Damp  Time(sec)
-------------------------------------------------------------------------------------------
               ***  Starting incremental Fock matrix formation  ***
    1    -685.5189837265008919     0.00e+00  4.80e-03  1.19e-01  2.33e-01  0.700   1.2
    2    -685.6683960381876659    -1.49e-01  3.20e-03  9.39e-02  9.23e-02  0.700   1.2
                               ***Turning on AO-DIIS***
    3    -685.7155846609091441    -4.72e-02  1.15e-03  3.24e-02  1.83e-02  0.700   1.1
    4    -685.7467605503713912    -3.12e-02  1.45e-03  2.75e-02  9.27e-03  0.000   1.0
    5    -685.8192072093297611    -7.24e-02  4.92e-04  1.72e-02  5.25e-03  0.000   1.1
                              *** Initializing SOSCF ***
---------------------------------------S-O-S-C-F--------------------------------------
Iteration    Energy (Eh)           Delta-E    RMSDP     MaxDP     MaxGrad    Time(sec)
--------------------------------------------------------------------------------------
    6    -685.8195302688118318    -3.23e-04  1.43e-04  3.77e-03  1.15e-03     1.1
               *** Restarting incremental Fock matrix formation ***
    7    -685.8195593684033611    -2.91e-05  8.72e-05  2.25e-03  1.77e-04     1.2
    8    -685.8195604782229111    -1.11e-06  3.29e-05  6.37e-04  1.68e-04     1.0
                 **** Energy Check signals convergence ****

               *****************************************************
               *                     SUCCESS                       *
               *           SCF CONVERGED AFTER   8 CYCLES          *
               *****************************************************

             **** ENERGY FILE WAS UPDATED (sp.en.tmp) ****

----------------
TOTAL SCF ENERGY
----------------

Total Energy       :       -685.81956047822291 Eh          -18662.09900 eV

Components:
Nuclear Repulsion  :        848.12207151111511 Eh           23078.57486 eV
Electronic Energy  :      -1533.94163198933802 Eh          -41740.67386 eV
One Electron Energy:      -2626.05668808406244 Eh          -71458.63537 eV
Two Electron Energy:       1092.11505609472442 Eh           29717.96151 eV

Virial components:
Potential Energy   :      -1366.89092219618215 Eh          -37194.99295 eV
Kinetic Energy     :        681.07136171795935 Eh           18532.89395 eV
Virial Ratio       :          2.00697166116086

DFT components:
N(Alpha)           :       48.000193814276 electrons
N(Beta)            :       48.000193814276 electrons
N(Total)           :       96.000387628552 electrons
E(X)               :      -84.601161430269 Eh       
E(C)               :       -3.282210375859 Eh       
E(XC)              :      -87.883371806129 Eh       

---------------
SCF CONVERGENCE
---------------

  Last Energy change         ...    1.1098e-06  Tolerance :   1.0000e-05
  Last MAX-Density change    ...    6.3653e-04  Tolerance :   1.0000e-03
  Last RMS-Density change    ...    3.2920e-05  Tolerance :   1.0000e-04
  Last DIIS Error            ...    1.1529e-03  Tolerance :   5.0000e-04
  Last Orbital Gradient      ...    1.6794e-04  Tolerance :   1.0000e-04
  Last Orbital Rotation      ...    1.5515e-04  Tolerance :   1.0000e-04


----------------
ORBITAL ENERGIES
----------------

  NO   OCC          E(Eh)            E(eV) 
   0   2.0000     -18.769629      -510.7476 
   1   2.0000     -18.761746      -510.5331 
   2   2.0000     -18.754320      -510.3310 
   3   2.0000     -18.753670      -510.3133 
   4   2.0000     -18.744734      -510.0701 
   5   2.0000     -18.734028      -509.7788 
   6   2.0000      -9.980379      -271.5799 
   7   2.0000      -9.938150      -270.4308 
   8   2.0000      -9.937664      -270.4176 
   9   2.0000      -9.935648      -270.3627 
  10   2.0000      -9.934121      -270.3212 
  11   2.0000      -9.927784      -270.1487 
  12   2.0000      -0.977402       -26.5965 
  13   2.0000      -0.943196       -25.6657 
  14   2.0000      -0.933306       -25.3965 
  15   2.0000      -0.921377       -25.0719 
  16   2.0000      -0.912325       -24.8256 
  17   2.0000      -0.905979       -24.6529 
  18   2.0000      -0.692231       -18.8366 
  19   2.0000      -0.683042       -18.5865 
  20   2.0000      -0.626677       -17.0528 
  21   2.0000      -0.563047       -15.3213 
  22   2.0000      -0.561222       -15.2716 
  23   2.0000      -0.507646       -13.8137 
  24   2.0000      -0.498457       -13.5637 
  25   2.0000      -0.489211       -13.3121 
  26   2.0000      -0.483881       -13.1671 
  27   2.0000      -0.457999       -12.4628 
  28   2.0000      -0.437763       -11.9121 
  29   2.0000      -0.424580       -11.5534 
  30   2.0000      -0.418004       -11.3745 
  31   2.0000      -0.393362       -10.7039 
  32   2.0000      -0.373430       -10.1615 
  33   2.0000      -0.370226       -10.0744 
  34   2.0000      -0.348450        -9.4818 
  35   2.0000      -0.344472        -9.3736 
  36   2.0000      -0.322426        -8.7737 
  37   2.0000      -0.320998        -8.7348 
  38   2.0000      -0.306830        -8.3493 
  39   2.0000      -0.299824        -8.1586 
  40   2.0000      -0.269079        -7.3220 
  41   2.0000      -0.265162        -7.2154 
  42   2.0000      -0.238215        -6.4821 
  43   2.0000      -0.236735        -6.4419 
  44   2.0000      -0.233480        -6.3533 
  45   2.0000      -0.213016        -5.7965 
  46   2.0000      -0.208212        -5.6657 
  47   2.0000      -0.189639        -5.1603 
  48   0.0000       0.009715         0.2643 
  49   0.0000       0.028220         0.7679 
  50   0.0000       0.031127         0.8470 
  51   0.0000       0.053153         1.4464 
  52   0.0000       0.068810         1.8724 
  53   0.0000       0.075244         2.0475 
  54   0.0000       0.091440         2.4882 
  55   0.0000       0.096215         2.6181 
  56   0.0000       0.105920         2.8822 
  57   0.0000       0.108633         2.9560 
  58   0.0000       0.125885         3.4255 
*Only the first 10 virtual orbitals were printed.

                    ********************************
                    * MULLIKEN POPULATION ANALYSIS *
                    ********************************

-----------------------
MULLIKEN ATOMIC CHARGES
-----------------------
   0 C :    0.067252
   1 C :   -0.021075
   2 H :    0.077713
   3 C :    0.096204
   4 H :    0.057859
   5 C :    0.050580
   6 H :    0.058581
   7 C :   -0.034659
   8 H :    0.067360
   9 C :    0.236918
  10 H :    0.059166
  11 O :   -0.323734
  12 O :   -0.394409
  13 O :   -0.404460
  14 O :   -0.406082
  15 O :   -0.429456
  16 O :   -0.446314
  17 H :    0.080778
  18 H :    0.078939
  19 H :    0.304836
  20 H :    0.307464
  21 H :    0.298383
  22 H :    0.304557
  23 H :    0.313600
Sum of atomic charges:   -0.0000000

--------------------------------
MULLIKEN REDUCED ORBITAL CHARGES
--------------------------------
  0 C s       :     3.000378  s :     3.000378
      pz      :     1.007581  p :     2.870574
      px      :     0.898200
      py      :     0.964794
      dz2     :     0.016897  d :     0.061797
      dxz     :     0.010612
      dyz     :     0.006886
      dx2y2   :     0.014889
      dxy     :     0.012513

  1 C s       :     3.076811  s :     3.076811
      pz      :     1.019738  p :     2.877626
      px      :     0.905629
      py      :     0.952259
      dz2     :     0.017028  d :     0.066638
      dxz     :     0.011286
      dyz     :     0.008474
      dx2y2   :     0.014293
      dxy     :     0.015557

  2 H s       :     0.922287  s :     0.922287

  3 C s       :     3.037058  s :     3.037058
      pz      :     0.883244  p :     2.799531
      px      :     1.015811
      py      :     0.900476
      dz2     :     0.018094  d :     0.067208
      dxz     :     0.011132
      dyz     :     0.013685
      dx2y2   :     0.013911
      dxy     :     0.010386

  4 H s       :     0.942141  s :     0.942141

  5 C s       :     3.033178  s :     3.033178
      pz      :     0.767177  p :     2.848474
      px      :     1.052107
      py      :     1.029189
      dz2     :     0.019496  d :     0.067768
      dxz     :     0.013472
      dyz     :     0.018174
      dx2y2   :     0.011044
      dxy     :     0.005582

  6 H s       :     0.941419  s :     0.941419

  7 C s       :     3.081673  s :     3.081673
      pz      :     0.774360  p :     2.886041
      px      :     1.044609
      py      :     1.067071
      dz2     :     0.021033  d :     0.066946
      dxz     :     0.016153
      dyz     :     0.013336
      dx2y2   :     0.011937
      dxy     :     0.004487

  8 H s       :     0.932640  s :     0.932640

  9 C s       :     3.028090  s :     3.028090
      pz      :     0.870454  p :     2.634836
      px      :     0.734094
      py      :     1.030288
      dz2     :     0.020022  d :     0.100155
      dxz     :     0.025509
      dyz     :     0.015914
      dx2y2   :     0.021433
      dxy     :     0.017277

 10 H s       :     0.940834  s :     0.940834

 11 O s       :     3.764244  s :     3.764244
      pz      :     1.664367  p :     4.544454
      px      :     1.205701
      py      :     1.674385
      dz2     :     0.002115  d :     0.015036
      dxz     :     0.004015
      dyz     :     0.002569
      dx2y2   :     0.002954
      dxy     :     0.003385

 12 O s       :     3.764368  s :     3.764368
      pz      :     1.471357  p :     4.614641
      px      :     1.634359
      py      :     1.508925
      dz2     :     0.001814  d :     0.015400
      dxz     :     0.004120
      dyz     :     0.002836
      dx2y2   :     0.003237
      dxy     :     0.003392

 13 O s       :     3.777957  s :     3.777957
      pz      :     1.337461  p :     4.611147
      px      :     1.875004
      py      :     1.398681
      dz2     :     0.004976  d :     0.015356
      dxz     :     0.002079
      dyz     :     0.002687
      dx2y2   :     0.004821
      dxy     :     0.000793

 14 O s       :     3.781057  s :     3.781057
      pz      :     1.372562  p :     4.609582
      px      :     1.340944
      py      :     1.896076
      dz2     :     0.006049  d :     0.015443
      dxz     :     0.001634
      dyz     :     0.002035
      dx2y2   :     0.005040
      dxy     :     0.000684

 15 O s       :     3.777479  s :     3.777479
      pz      :     1.603084  p :     4.636722
      px      :     1.352990
      py      :     1.680649
      dz2     :     0.003370  d :     0.015255
      dxz     :     0.001029
      dyz     :     0.003416
      dx2y2   :     0.004408
      dxy     :     0.003032

 16 O s       :     3.784305  s :     3.784305
      pz      :     1.779694  p :     4.647079
      px      :     1.204712
      py      :     1.662674
      dz2     :     0.002244  d :     0.014930
      dxz     :     0.002777
      dyz     :     0.002556
      dx2y2   :     0.003181
      dxy     :     0.004172

 17 H s       :     0.919222  s :     0.919222

 18 H s       :     0.921061  s :     0.921061

 19 H s       :     0.695164  s :     0.695164

 20 H s       :     0.692536  s :     0.692536

 21 H s       :     0.701617  s :     0.701617

 22 H s       :     0.695443  s :     0.695443

 23 H s       :     0.686400  s :     0.686400


------------------------
MULLIKEN OVERLAP CHARGES
------------------------
B(  0-C ,  1-C ) :   0.5355 B(  0-C ,  2-H ) :  -0.0750 B(  0-C ,  3-C ) :  -0.0708 
B(  0-C , 11-O ) :  -0.0754 B(  0-C , 16-O ) :   0.6423 B(  0-C , 17-H ) :   0.6973 
B(  0-C , 18-H ) :   0.6627 B(  1-C ,  2-H ) :   0.6228 B(  1-C ,  3-C ) :   0.3811 
B(  1-C ,  4-H ) :  -0.0650 B(  1-C ,  9-C ) :  -0.0553 B(  1-C , 11-O ) :   0.5683 
B(  1-C , 16-O ) :  -0.1335 B(  1-C , 17-H ) :  -0.0512 B(  2-H ,  3-C ) :  -0.0662 
B(  2-H , 11-O ) :  -0.0542 B(  2-H , 13-O ) :   0.0507 B(  3-C ,  4-H ) :   0.6202 
B(  3-C ,  6-H ) :  -0.0850 B(  3-C ,  9-C ) :  -0.1275 B(  3-C , 11-O ) :  -0.1253 
B(  3-C , 14-O ) :  -0.0912 B(  3-C , 15-O ) :   0.5605 B(  3-C , 18-H ) :  -0.0623 
B(  3-C , 22-H ) :  -0.0840 B(  4-H ,  5-C ) :  -0.0809 B(  5-C ,  6-H ) :   0.6605 
B(  5-C ,  7-C ) :   0.6012 B(  5-C ,  8-H ) :  -0.0973 B(  5-C , 13-O ) :  -0.1011 
B(  5-C , 14-O ) :   0.5345 B(  5-C , 15-O ) :  -0.0641 B(  5-C , 21-H ) :  -0.0880 
B(  6-H ,  7-C ) :  -0.1080 B(  7-C ,  8-H ) :   0.6485 B(  7-C ,  9-C ) :  -0.0624 
B(  7-C , 10-H ) :  -0.1953 B(  7-C , 11-O ) :  -0.1116 B(  7-C , 12-O ) :  -0.0609 
B(  7-C , 13-O ) :   0.5076 B(  7-C , 14-O ) :  -0.1064 B(  7-C , 20-H ) :  -0.0923 
B(  8-H ,  9-C ) :  -0.0725 B(  9-C , 10-H ) :   0.7676 B(  9-C , 11-O ) :   0.6118 
B(  9-C , 12-O ) :   0.6826 B(  9-C , 13-O ) :  -0.0681 B(  9-C , 14-O ) :   0.0590 
B(  9-C , 19-H ) :  -0.0552 B( 10-H , 11-O ) :  -0.0964 B( 10-H , 12-O ) :  -0.0716 
B( 11-O , 12-O ) :  -0.1161 B( 12-O , 19-H ) :   0.5151 B( 13-O , 20-H ) :   0.5330 
B( 14-O , 21-H ) :   0.5246 B( 15-O , 22-H ) :   0.5333 B( 16-O , 17-H ) :  -0.0517 
B( 16-O , 18-H ) :  -0.0617 B( 16-O , 22-H ) :   0.0801 B( 16-O , 23-H ) :   0.5199 
B( 17-H , 18-H ) :  -0.1024 


                     *******************************
                     * LOEWDIN POPULATION ANALYSIS *
                     *******************************

----------------------
LOEWDIN ATOMIC CHARGES
----------------------
   0 C :   -0.121861
   1 C :   -0.071561
   2 H :    0.110618
   3 C :   -0.060967
   4 H :    0.106328
   5 C :   -0.067807
   6 H :    0.097709
   7 C :   -0.093568
   8 H :    0.101823
   9 C :    0.015003
  10 H :    0.084973
  11 O :   -0.155096
  12 O :   -0.301843
  13 O :   -0.306008
  14 O :   -0.310327
  15 O :   -0.325746
  16 O :   -0.336566
  17 H :    0.101156
  18 H :    0.100907
  19 H :    0.289266
  20 H :    0.289382
  21 H :    0.283072
  22 H :    0.276692
  23 H :    0.294420

-------------------------------
LOEWDIN REDUCED ORBITAL CHARGES
-------------------------------
  0 C s       :     2.923566  s :     2.923566
      pz      :     1.069628  p :     3.056343
      px      :     0.958037
      py      :     1.028678
      dz2     :     0.040660  d :     0.141953
      dxz     :     0.023022
      dyz     :     0.014598
      dx2y2   :     0.034548
      dxy     :     0.029124

  1 C s       :     2.900224  s :     2.900224
      pz      :     1.065995  p :     3.016578
      px      :     0.948845
      py      :     1.001737
      dz2     :     0.040911  d :     0.154758
      dxz     :     0.024108
      dyz     :     0.018155
      dx2y2   :     0.037334
      dxy     :     0.034250

  2 H s       :     0.889382  s :     0.889382

  3 C s       :     2.893718  s :     2.893718
      pz      :     0.991233  p :     3.009947
      px      :     1.033217
      py      :     0.985498
      dz2     :     0.043026  d :     0.157301
      dxz     :     0.024800
      dyz     :     0.030437
      dx2y2   :     0.037711
      dxy     :     0.021328

  4 H s       :     0.893672  s :     0.893672

  5 C s       :     2.894528  s :     2.894528
      pz      :     0.875368  p :     3.014356
      px      :     1.065757
      py      :     1.073231
      dz2     :     0.046092  d :     0.158922
      dxz     :     0.027919
      dyz     :     0.042918
      dx2y2   :     0.027884
      dxy     :     0.014108

  6 H s       :     0.902291  s :     0.902291

  7 C s       :     2.902411  s :     2.902411
      pz      :     0.870982  p :     3.033560
      px      :     1.079853
      py      :     1.082725
      dz2     :     0.048523  d :     0.157597
      dxz     :     0.037381
      dyz     :     0.029503
      dx2y2   :     0.030026
      dxy     :     0.012163

  8 H s       :     0.898177  s :     0.898177

  9 C s       :     2.888429  s :     2.888429
      pz      :     0.973483  p :     2.872391
      px      :     0.830158
      py      :     1.068751
      dz2     :     0.044150  d :     0.224177
      dxz     :     0.057903
      dyz     :     0.037273
      dx2y2   :     0.051154
      dxy     :     0.033697

 10 H s       :     0.915027  s :     0.915027

 11 O s       :     3.470210  s :     3.470210
      pz      :     1.699720  p :     4.655644
      px      :     1.263571
      py      :     1.692353
      dz2     :     0.003412  d :     0.029243
      dxz     :     0.008026
      dyz     :     0.003691
      dx2y2   :     0.006904
      dxy     :     0.007210

 12 O s       :     3.525962  s :     3.525962
      pz      :     1.526086  p :     4.748608
      px      :     1.670983
      py      :     1.551539
      dz2     :     0.003240  d :     0.027273
      dxz     :     0.007979
      dyz     :     0.005579
      dx2y2   :     0.005225
      dxy     :     0.005250

 13 O s       :     3.532496  s :     3.532496
      pz      :     1.401264  p :     4.746333
      px      :     1.880254
      py      :     1.464814
      dz2     :     0.010087  d :     0.027179
      dxz     :     0.003371
      dyz     :     0.005169
      dx2y2   :     0.007608
      dxy     :     0.000945

 14 O s       :     3.534460  s :     3.534460
      pz      :     1.440084  p :     4.748565
      px      :     1.412283
      py      :     1.896198
      dz2     :     0.011682  d :     0.027302
      dxz     :     0.003384
      dyz     :     0.003039
      dx2y2   :     0.008309
      dxy     :     0.000888

 15 O s       :     3.530927  s :     3.530927
      pz      :     1.650927  p :     4.768112
      px      :     1.412467
      py      :     1.704718
      dz2     :     0.005513  d :     0.026707
      dxz     :     0.002475
      dyz     :     0.006090
      dx2y2   :     0.007552
      dxy     :     0.005077

 16 O s       :     3.531385  s :     3.531385
      pz      :     1.805601  p :     4.779030
      px      :     1.268781
      py      :     1.704648
      dz2     :     0.003456  d :     0.026151
      dxz     :     0.005169
      dyz     :     0.003540
      dx2y2   :     0.006124
      dxy     :     0.007861

 17 H s       :     0.898844  s :     0.898844

 18 H s       :     0.899093  s :     0.899093

 19 H s       :     0.710734  s :     0.710734

 20 H s       :     0.710618  s :     0.710618

 21 H s       :     0.716928  s :     0.716928

 22 H s       :     0.723308  s :     0.723308

 23 H s       :     0.705580  s :     0.705580


---------------------------------
LOEWDIN BOND ORDERS (THRESH 0.050000)
---------------------------------
B(  0-C ,  1-C ) :   1.0661 B(  0-C ,  3-C ) :   0.0561 B(  0-C , 11-O ) :   0.0626 
B(  0-C , 16-O ) :   1.2174 B(  0-C , 17-H ) :   0.9099 B(  0-C , 18-H ) :   0.9059 
B(  1-C ,  2-H ) :   0.8603 B(  1-C ,  3-C ) :   1.0113 B(  1-C ,  5-C ) :   0.0522 
B(  1-C ,  9-C ) :   0.0674 B(  1-C , 11-O ) :   1.1288 B(  1-C , 15-O ) :   0.0813 
B(  1-C , 16-O ) :   0.0606 B(  3-C ,  4-H ) :   0.8652 B(  3-C ,  5-C ) :   1.0141 
B(  3-C ,  7-C ) :   0.0503 B(  3-C , 11-O ) :   0.0664 B(  3-C , 14-O ) :   0.0630 
B(  3-C , 15-O ) :   1.2261 B(  5-C ,  6-H ) :   0.8659 B(  5-C ,  7-C ) :   1.0221 
B(  5-C ,  9-C ) :   0.0509 B(  5-C , 13-O ) :   0.0799 B(  5-C , 14-O ) :   1.2253 
B(  5-C , 15-O ) :   0.0623 B(  7-C ,  8-H ) :   0.8667 B(  7-C ,  9-C ) :   1.0105 
B(  7-C , 11-O ) :   0.0542 B(  7-C , 12-O ) :   0.0663 B(  7-C , 13-O ) :   1.2199 
B(  7-C , 14-O ) :   0.0820 B(  9-C , 10-H ) :   0.8746 B(  9-C , 11-O ) :   1.1643 
B(  9-C , 12-O ) :   1.2860 B(  9-C , 13-O ) :   0.0615 B( 11-O , 12-O ) :   0.0763 
B( 12-O , 19-H ) :   0.8707 B( 13-O , 20-H ) :   0.8764 B( 14-O , 21-H ) :   0.8779 
B( 15-O , 22-H ) :   0.8615 B( 16-O , 22-H ) :   0.0612 B( 16-O , 23-H ) :   0.8828 


------------------------------------------
LOEWDIN REDUCED ORBITAL POPULATIONS PER MO
-------------------------------------------
THRESHOLD FOR PRINTING IS 0.1%%
                      0         1         2         3         4         5   
                 -18.76963 -18.76175 -18.75432 -18.75367 -18.74473 -18.73403
                   2.00000   2.00000   2.00000   2.00000   2.00000   2.00000
                  --------  --------  --------  --------  --------  --------
11 O  s               0.0      99.9       0.0       0.0       0.0       0.0
12 O  s               0.0       0.0      99.7       0.2       0.0       0.0
13 O  s               0.0       0.0       0.2      99.7       0.0       0.0
14 O  s               0.0       0.0       0.0       0.0      99.9       0.0
15 O  s               0.0       0.0       0.0       0.0       0.0      99.9
16 O  s              99.9       0.0       0.0       0.0       0.0       0.0

                      6         7         8         9        10        11   
                  -9.98038  -9.93815  -9.93766  -9.93565  -9.93412  -9.92778
                   2.00000   2.00000   2.00000   2.00000   2.00000   2.00000
                  --------  --------  --------  --------  --------  --------
 0 C  s               0.0       0.0      99.6       0.0       0.0       0.0
 1 C  s               0.0       0.0       0.0       0.0      99.6       0.0
 3 C  s               0.0       0.0       0.0       0.0       0.0      99.6
 3 C  px              0.0       0.0       0.0       0.1       0.0       0.0
 5 C  s               0.0       0.0       0.0      99.6       0.0       0.0
 7 C  s               0.0      99.6       0.0       0.0       0.0       0.0
 9 C  s              99.6       0.0       0.0       0.0       0.0       0.0
13 O  pz              0.0       0.1       0.0       0.0       0.0       0.0
14 O  pz              0.0       0.0       0.0       0.1       0.0       0.0

                     12        13        14        15        16        17   
                  -0.97740  -0.94320  -0.93331  -0.92138  -0.91232  -0.90598
                   2.00000   2.00000   2.00000   2.00000   2.00000   2.00000
                  --------  --------  --------  --------  --------  --------
 0 C  s               0.6       9.5       0.1       0.1       0.1       0.2
 0 C  pz              0.0       1.5       0.0       0.0       0.0       0.0
 0 C  px              0.3       3.9       0.0       0.2       1.4       0.2
 0 C  py              0.1       2.7       0.0       0.0       0.1       0.0
 0 C  dxz             0.0       0.2       0.0       0.0       0.0       0.0
 0 C  dyz             0.0       0.1       0.0       0.0       0.0       0.0
 0 C  dxy             0.0       0.4       0.0       0.0       0.0       0.0
 1 C  s               4.5       1.0       0.0       0.2       3.2       1.6
 1 C  pz              0.8       0.0       0.0       0.0       0.3       0.6
 1 C  px              2.1       1.3       0.0       0.0       1.0       1.2
 1 C  py              0.8       0.0       0.5       0.2       0.1       2.4
 1 C  dxy             0.1       0.0       0.0       0.0       0.1       0.1
 2 H  s               0.7       0.2       0.0       0.0       0.5       0.1
 3 C  s               0.9       0.7       1.3       2.3       4.2       2.6
 3 C  pz              0.0       0.2       0.1       0.1       2.4       2.2
 3 C  px              0.1       0.2       0.3       0.1       1.1       1.2
 3 C  py              0.3       0.0       0.3       0.3       0.3       2.8
 3 C  dyz             0.0       0.0       0.0       0.0       0.2       0.2
 4 H  s               0.1       0.1       0.2       0.5       0.4       0.2
 5 C  s               1.0       0.1       5.1       5.1       0.7       0.0
 5 C  pz              0.0       0.0       0.4       6.5       2.1       0.5
 5 C  px              0.0       0.1       0.2       0.1       1.4       0.4
 5 C  py              0.4       0.0       0.2       0.0       0.0       0.0
 5 C  dz2             0.0       0.0       0.1       0.4       0.2       0.0
 5 C  dxz             0.0       0.0       0.0       0.1       0.0       0.0
 6 H  s               0.1       0.0       0.8       0.6       0.0       0.0
 7 C  s               2.8       0.0       7.3       1.6       0.2       0.0
 7 C  pz              0.1       0.0       4.3       5.8       0.1       0.0
 7 C  px              0.3       0.0       0.5       0.0       0.0       0.1
 7 C  py              0.9       0.1       0.9       0.1       0.0       0.0
 7 C  dz2             0.0       0.0       0.5       0.3       0.0       0.0
 8 H  s               0.5       0.0       0.8       0.1       0.1       0.0
 9 C  s              15.2       0.4       0.4       0.2       0.2       0.1
 9 C  pz              3.1       0.2       1.6       0.1       0.7       0.9
 9 C  px              0.7       0.1       0.0       0.2       5.2       7.1
 9 C  py              0.1       0.0       1.5       0.0       0.0       0.2
 9 C  dz2             0.0       0.0       0.0       0.0       0.1       0.1
 9 C  dxz             0.0       0.0       0.0       0.0       0.3       0.5
 9 C  dx2y2           0.3       0.0       0.1       0.0       0.0       0.1
10 H  s               1.7       0.0       0.0       0.1       0.0       0.0
11 O  s              27.5       0.0       1.3       0.2      10.2      14.7
11 O  pz              0.7       0.0       0.0       0.0       0.4       0.5
11 O  px              0.7       0.2       0.1       0.0       0.2       0.2
11 O  py              0.6       0.0       0.0       0.0       0.4       0.4
12 O  s              19.5       2.0       4.7       0.4      13.3      19.2
12 O  pz              0.4       0.0       0.0       0.0       0.0       0.0
12 O  px              1.6       0.1       0.2       0.0       0.3       0.4
12 O  py              0.1       0.0       0.1       0.0       0.2       0.3
13 O  s               2.2       0.0      35.6      20.3       0.2       0.0
13 O  pz              0.2       0.0       1.0       0.4       0.0       0.0
13 O  py              0.0       0.0       1.1       0.6       0.0       0.0
14 O  s               1.0       0.0      12.2      32.7      10.6       1.5
14 O  pz              0.1       0.0       0.6       1.2       0.3       0.0
14 O  px              0.0       0.0       0.2       0.7       0.3       0.0
15 O  s               0.4       2.0       2.6       5.2      21.8      25.7
15 O  pz              0.0       0.0       0.1       0.1       0.4       0.3
15 O  px              0.0       0.0       0.0       0.0       0.2       0.3
15 O  py              0.0       0.1       0.1       0.2       0.8       0.8
16 O  s               0.5      54.7       0.7       0.8       3.2       0.0
16 O  pz              0.0       1.1       0.0       0.0       0.1       0.0
16 O  py              0.0       1.8       0.0       0.0       0.1       0.0
17 H  s               0.1       1.1       0.0       0.0       0.0       0.0
18 H  s               0.1       1.1       0.0       0.0       0.0       0.0
19 H  s               4.1       0.4       1.0       0.1       2.5       3.6
20 H  s               0.4       0.0       7.2       3.9       0.0       0.0
21 H  s               0.2       0.0       2.5       6.4       2.3       0.3
22 H  s               0.1       1.0       0.4       1.0       4.1       5.0
23 H  s               0.1      11.0       0.2       0.2       0.7       0.0

                     18        19        20        21        22        23   
                  -0.69223  -0.68304  -0.62668  -0.56305  -0.56122  -0.50765
                   2.00000   2.00000   2.00000   2.00000   2.00000   2.00000
                  --------  --------  --------  --------  --------  --------
 0 C  s              10.0       1.6       9.3       3.0       7.0       0.2
 0 C  pz              0.0       0.0       0.0       0.3       0.4       0.2
 0 C  px              4.4       0.7       0.5       0.2       1.4       1.2
 0 C  py              0.1       0.0       0.1       1.9       0.3       0.2
 0 C  dxy             0.1       0.0       0.0       0.0       0.0       0.0
 1 C  s              16.8       1.0       0.6       2.2       4.8       0.7
 1 C  pz              0.2       0.1       0.2       0.7       0.3       0.9
 1 C  px              2.5       0.8       4.0       0.2       3.3       0.1
 1 C  py              0.8       2.0       1.3       7.3       0.2       0.9
 1 C  dyz             0.0       0.0       0.0       0.1       0.0       0.0
 1 C  dxy             0.1       0.0       0.0       0.0       0.1       0.0
 2 H  s               2.8       0.1       0.3       1.2       1.6       0.0
 3 C  s               8.6       2.4       5.1       7.3       0.7       0.5
 3 C  pz              0.2       0.1       0.6       0.1       0.9       0.5
 3 C  px              0.4       3.4       2.6       1.6       0.1       0.0
 3 C  py              3.7       0.2       0.4       2.4       2.9       0.3
 4 H  s               1.9       0.3       1.2       2.6       0.7       0.0
 5 C  s               2.8      10.8       4.2       6.6       1.0       0.4
 5 C  pz              0.3       2.9       0.0       1.3       0.5       1.1
 5 C  px              1.6       0.0       4.4       5.0       2.0       0.2
 5 C  py              0.1       1.3       0.5       0.5       1.1       0.0
 5 C  dz2             0.0       0.1       0.0       0.0       0.0       0.0
 6 H  s               0.5       1.9       1.4       3.7       0.6       0.1
 7 C  s               0.0      14.9       5.1       2.2       3.4       0.6
 7 C  pz              0.1       3.7       0.1       0.9       0.1       4.8
 7 C  px              0.3       0.5       1.2       0.0       0.4       1.4
 7 C  py              0.9       0.2       4.1       8.1       0.1       0.0
 7 C  dz2             0.0       0.2       0.0       0.0       0.0       0.1
 8 H  s               0.0       2.9       1.9       1.1       1.6       0.2
 9 C  s               2.7       5.6       5.1       4.1       3.6       0.3
 9 C  pz              0.0       1.0       1.7       1.0       0.5       2.3
 9 C  px              1.6       0.2       1.4       0.4       1.0       7.6
 9 C  py              0.2       4.2       1.6       0.2       3.2       0.3
 9 C  dxz             0.1       0.0       0.0       0.0       0.1       0.3
 9 C  dx2y2           0.1       0.1       0.1       0.0       0.1       0.0
10 H  s               0.5       0.9       1.6       2.2       1.1       0.1
11 O  s               2.9       1.3       1.2       2.0       0.0       0.0
11 O  pz              0.1       0.0       0.2       0.5       0.5       0.1
11 O  px              6.9       2.4       0.0       1.3      13.3       5.1
11 O  py              0.8       0.1       0.0       0.4       2.2       0.7
12 O  s               1.4       1.4       0.7       0.3       1.3       0.1
12 O  pz              0.4       1.5       2.7       3.7       2.3      12.2
12 O  px              0.3       0.1       0.0       0.2       1.6       0.1
12 O  py              0.2       1.4       2.1       1.5       0.5      12.1
13 O  s               0.1       4.5       0.5       0.6       0.4       0.0
13 O  pz              0.0       3.6       2.0       0.6       3.4       9.8
13 O  py              0.0       1.6       1.9       0.4       1.4       6.7
13 O  dz2             0.0       0.1       0.0       0.0       0.1       0.1
14 O  s               0.8       3.8       0.4       1.2       0.0       0.2
14 O  pz              0.4       2.0       1.2       3.4       1.0       2.5
14 O  px              0.6       1.3       2.0       0.4       2.0       1.7
15 O  s               3.5       0.7       0.8       1.6       0.1       0.1
15 O  pz              0.6       0.3       0.9       1.6       0.7       0.9
15 O  px              1.2       0.8       2.1       1.2       1.1       1.9
15 O  py              0.3       0.0       0.1       1.3       0.0       0.3
16 O  s               2.1       0.3       1.3       0.2       0.8       0.0
16 O  pz              0.1       0.0       0.1       0.1       0.7       0.1
16 O  px              3.8       0.6       5.8       0.6       8.0       3.8
16 O  py              0.2       0.0       0.3       0.4       1.1       0.2
17 H  s               1.9       0.4       2.5       1.9       2.3       0.0
18 H  s               2.1       0.4       2.1       1.2       2.6       0.0
19 H  s               0.5       1.3       1.7       1.6       1.0       7.0
20 H  s               0.0       2.7       1.3       0.0       1.5       4.8
21 H  s               0.5       1.9       1.1       1.0       0.9       1.2
22 H  s               1.5       0.5       1.1       1.1       0.5       0.9
23 H  s               1.8       0.3       2.2       0.2       2.6       1.1

                     24        25        26        27        28        29   
                  -0.49846  -0.48921  -0.48388  -0.45800  -0.43776  -0.42458
                   2.00000   2.00000   2.00000   2.00000   2.00000   2.00000
                  --------  --------  --------  --------  --------  --------
 0 C  s               1.4       0.0       0.1       1.7       0.1       0.0
 0 C  pz              8.1       0.0       1.4       4.7       2.6       4.6
 0 C  px              0.1       0.1       0.5       0.4       4.8       0.0
 0 C  py              6.0       0.1       5.2       5.9       0.5       3.1
 0 C  dxz             0.0       0.0       0.1       0.0       0.1       0.0
 0 C  dyz             0.2       0.0       0.0       0.2       0.0       0.0
 0 C  dxy             0.0       0.0       0.0       0.1       0.2       0.0
 1 C  s               1.7       0.0       1.6       0.1       0.8       0.0
 1 C  pz              8.0       0.0       9.5       0.2       0.1       3.8
 1 C  px              0.2       0.0       0.1       0.3       4.5       0.2
 1 C  py              1.6       0.7       4.0       2.6       0.9       0.4
 1 C  dxz             0.0       0.0       0.0       0.1       0.2       0.0
 1 C  dxy             0.0       0.0       0.0       0.2       0.0       0.0
 2 H  s               4.3       0.1       5.9       0.2       0.1       1.3
 3 C  s               1.6       0.7       1.0       0.0       0.4       0.2
 3 C  pz              1.5       3.4       6.7       0.3       1.4       0.2
 3 C  px              0.1       0.3       2.7       0.7       4.6       2.2
 3 C  py              3.8       0.1       2.0       4.4       1.4       1.3
 3 C  dz2             0.0       0.0       0.0       0.0       0.0       0.1
 3 C  dyz             0.1       0.1       0.0       0.0       0.1       0.0
 4 H  s               2.0       0.1       4.2       0.4       2.0       0.3
 5 C  s               1.0       0.3       0.9       0.0       0.3       1.5
 5 C  pz              0.1      10.1       1.3       0.2       0.2       5.8
 5 C  px              1.9       1.7       0.0       0.0       3.4       0.3
 5 C  py              0.2       0.0       4.7       8.2       2.7       2.0
 5 C  dz2             0.0       0.4       0.0       0.0       0.0       0.1
 6 H  s               0.2       0.3       3.3       2.1       1.8       4.1
 7 C  s               0.2       0.5       1.2       0.0       0.3       1.4
 7 C  pz              1.8       3.2       0.2       2.3       0.0       2.5
 7 C  px              1.5       0.6       1.2       7.2       3.6      11.1
 7 C  py              1.1       4.3       0.0       0.1       4.0       0.2
 7 C  dz2             0.0       0.1       0.0       0.0       0.0       0.0
 7 C  dxy             0.0       0.0       0.0       0.0       0.0       0.1
 8 H  s               0.3       1.8       1.3       1.9       2.4       8.2
 9 C  s               0.1       0.3       1.0       0.1       0.6       0.1
 9 C  pz              0.2       5.0       3.6       0.3       1.5       0.1
 9 C  px              1.7       0.0       0.3       3.1       0.4       1.2
 9 C  py              0.1       0.3       3.1       1.7       9.4       1.4
 9 C  dxz             0.0       0.0       0.1       0.0       0.1       0.1
 9 C  dxy             0.0       0.0       0.0       0.0       0.0       0.2
10 H  s               0.0       2.3       3.8       0.3       3.9       0.2
11 O  s               0.6       0.4       0.9       2.3       0.1       0.0
11 O  pz              0.7       0.8       5.0       0.1       0.0       0.4
11 O  px              4.3       0.6       0.4       5.6       2.3       1.1
11 O  py              0.1       0.0       0.7       1.8       4.7       0.4
12 O  s               0.1       0.0       0.0       0.1       1.3       0.1
12 O  pz              0.2       0.2       1.4       2.3       0.1       4.5
12 O  px              0.2       0.2       0.0       0.3       0.7       0.2
12 O  py              0.2       1.8       0.1       0.3       4.9       0.7
13 O  s               0.0       0.7       0.0       0.0       0.6       0.1
13 O  pz              2.0       1.1       0.2       1.5       0.1       2.8
13 O  px              0.5       0.0       0.6       1.7       1.1       2.2
13 O  py              2.3       6.4       0.0       0.9       1.2       1.4
14 O  s               0.2       0.3       0.0       0.0       0.4       0.1
14 O  pz              1.3       7.8       0.0       0.1       0.2       2.4
14 O  px              0.0      18.4       0.4       0.3       0.7       3.8
14 O  py              0.0       0.0       0.8       1.3       0.8       0.8
14 O  dz2             0.0       0.1       0.0       0.0       0.0       0.0
15 O  s               0.1       0.1       0.3       0.0       0.9       0.0
15 O  pz              3.2       2.3       0.1       2.3       0.0       3.5
15 O  px              3.8       7.3       6.0       1.9       4.0       2.9
15 O  py              0.1       0.7       0.0       0.0       0.4       0.6
16 O  s               0.8       0.0       0.1       1.8       0.1       0.1
16 O  pz              0.8       0.1       0.4       0.7       0.0       0.9
16 O  px             11.9       0.2       4.4      10.7       7.5       0.4
16 O  py              0.7       0.1       0.8       0.9       2.8       1.4
17 H  s               2.4       0.0       2.2       3.3       0.3       2.2
18 H  s               4.6       0.0       0.3       4.1       1.0       1.7
19 H  s               0.1       0.5       0.1       0.6       0.7       1.3
20 H  s               1.2       1.8       0.0       0.6       0.1       1.1
21 H  s               0.2       7.5       0.1       0.1       0.1       1.7
22 H  s               2.1       2.9       1.6       0.7       0.9       1.8
23 H  s               3.3       0.1       1.3       3.1       2.1       0.1

                     30        31        32        33        34        35   
                  -0.41800  -0.39336  -0.37343  -0.37023  -0.34845  -0.34447
                   2.00000   2.00000   2.00000   2.00000   2.00000   2.00000
                  --------  --------  --------  --------  --------  --------
 0 C  s               0.0       0.0       0.1       0.0       0.1       0.0
 0 C  pz              2.2      13.3       0.5       0.4       0.9       2.1
 0 C  px              2.0       0.1      15.5       0.2       2.9       0.2
 0 C  py              1.7       9.3       0.3       0.1       1.0       1.2
 0 C  dxy             0.1       0.0       0.0       0.0       0.0       0.1
 1 C  s               0.5       0.4       0.2       0.1       0.2       0.0
 1 C  pz              2.3       0.1       1.7       2.0       0.5       6.9
 1 C  px              3.1       0.1       9.3       0.2       0.9       0.3
 1 C  py              0.3       0.5       4.2       0.0       0.6       6.1
 1 C  dx2y2           0.0       0.0       0.1       0.1       0.1       0.0
 1 C  dxy             0.1       0.0       0.1       0.0       0.1       0.2
 2 H  s               1.5       0.2       1.2       1.6       0.5       3.8
 3 C  s               0.0       1.7       0.3       0.0       0.3       0.1
 3 C  pz              0.3      12.2       0.2       2.4       0.3       3.6
 3 C  px              0.1       0.4       0.8       2.4      10.7       1.8
 3 C  py              0.2       0.2       3.7       0.9       0.3       5.9
 3 C  dxz             0.0       0.1       0.0       0.0       0.0       0.0
 3 C  dyz             0.0       0.1       0.1       0.1       0.0       0.0
 3 C  dx2y2           0.0       0.2       0.0       0.0       0.0       0.1
 3 C  dxy             0.0       0.0       0.0       0.0       0.2       0.1
 4 H  s               0.1       6.4       0.1       2.3       0.5       4.6
 5 C  s               0.0       0.1       0.1       0.0       0.2       0.1
 5 C  pz              0.2       2.5       0.1       0.1       0.9       0.1
 5 C  px              0.0       2.1       0.4       0.1      12.5       0.3
 5 C  py              0.1       0.2       0.8      17.5       0.2       3.5
 5 C  dz2             0.1       0.3       0.0       0.1       0.0       0.1
 5 C  dxz             0.0       0.1       0.0       0.0       0.1       0.1
 5 C  dx2y2           0.0       0.0       0.0       0.1       0.0       0.0
 5 C  dxy             0.0       0.0       0.1       0.0       0.0       0.2
 6 H  s               0.0       0.0       0.0       8.5       0.2       2.2
 7 C  s               0.1       0.0       0.1       0.2       0.2       0.2
 7 C  pz              4.4       0.0       2.3       0.0       0.2       0.2
 7 C  px              0.1       0.1       7.9       0.5       3.6       3.1
 7 C  py              1.6       0.3       2.8       3.9       0.5       4.0
 7 C  dz2             0.5       0.0       0.0       0.0       0.1       0.0
 7 C  dyz             0.0       0.0       0.0       0.0       0.2       0.0
 7 C  dx2y2           0.1       0.0       0.1       0.1       0.1       0.0
 7 C  dxy             0.0       0.0       0.0       0.1       0.0       0.0
 8 H  s               0.3       0.0       3.8       0.0       2.3       0.6
 9 C  s               1.3       0.0       0.5       0.0       0.1       0.2
 9 C  pz             17.6       0.2       0.2       0.5       0.2       0.3
 9 C  px              0.3       0.1       0.2       2.1       0.4       0.2
 9 C  py              0.2       0.2       3.7       9.5       0.7       0.4
 9 C  dxz             0.0       0.0       0.0       0.0       0.0       0.3
 9 C  dyz             0.2       0.0       0.0       0.0       0.0       0.0
 9 C  dx2y2           0.1       0.0       0.3       0.1       0.0       0.1
10 H  s               7.6       0.2       0.0       3.2       0.3       0.3
11 O  s               0.4       0.0       0.0       0.5       0.3       0.2
11 O  pz              5.0       0.1       1.2       2.5       0.0      10.3
11 O  px              3.7       0.1       0.1       3.0       1.6       0.0
11 O  py              1.7       0.0       0.5       3.8       0.0       1.9
12 O  s               0.0       0.0       0.1       1.1       0.1       0.9
12 O  pz              1.6       0.1       2.1       4.4       1.0       0.5
12 O  px              5.0       0.1       0.2       0.9       0.5       0.8
12 O  py              4.6       0.0       0.0       4.6       0.0       1.6
13 O  s               0.3       0.2       0.5       0.6       1.1       0.8
13 O  pz              9.6       0.0       1.6       1.9       0.1       5.4
13 O  px              0.0       0.0       3.5       0.0       2.4       1.7
13 O  py              3.3       0.8       0.4       2.6       2.5       4.6
14 O  s               0.1       0.1       0.1       0.8       2.3       0.3
14 O  pz              0.2       5.7       0.2       0.1      15.3       0.4
14 O  px              1.1       2.0       0.7       1.0       5.6       0.7
14 O  py              0.0       0.0       0.6       6.4       0.0       1.9
15 O  s               0.1       0.4       0.0       0.4       1.1       0.1
15 O  pz              0.0       0.3       2.5       0.6       6.2       4.2
15 O  px              0.0       9.4       0.9       2.0       1.2       0.6
15 O  py              0.4       1.3       0.2       0.4       7.0       0.7
16 O  s               0.0       0.0       2.0       0.2       0.4       0.0
16 O  pz              1.8       6.3       7.3       0.6       0.2       3.7
16 O  px              2.5       0.2       0.3       0.2       0.1       0.0
16 O  py              0.0       2.0      11.3       0.0       4.8       1.1
17 H  s               1.2       7.5       0.1       0.0       0.8       1.3
18 H  s               0.7       6.1       0.2       0.4       0.9       1.3
19 H  s               1.7       0.0       0.4       0.1       0.2       0.8
20 H  s               3.5       0.1       0.0       0.1       0.6       0.1
21 H  s               0.4       1.8       0.0       0.3       0.1       0.1
22 H  s               0.0       2.7       0.3       0.2       0.2       0.0
23 H  s               0.7       0.1       0.0       0.1       0.0       0.0

                     36        37        38        39        40        41   
                  -0.32243  -0.32100  -0.30683  -0.29982  -0.26908  -0.26516
                   2.00000   2.00000   2.00000   2.00000   2.00000   2.00000
                  --------  --------  --------  --------  --------  --------
 0 C  s               0.2       0.1       0.1       0.2       0.1       0.4
 0 C  pz              0.5       1.8       2.5       0.0       0.1       1.1
 0 C  px              0.1       0.4       0.9       1.1       0.2       2.2
 0 C  py              3.6       0.3       2.9       0.0       0.0       1.4
 0 C  dz2             0.0       0.1       0.1       0.0       0.0       0.1
 0 C  dx2y2           0.4       0.1       0.3       0.0       0.0       0.2
 1 C  s               0.7       0.8       0.1       0.1       0.1       0.2
 1 C  pz              0.5       4.0       0.5       1.3       1.9       1.3
 1 C  px              0.5       0.1       7.3       0.0       0.0       2.0
 1 C  py              1.2       0.1       0.6       0.2       0.1       2.9
 1 C  dz2             0.1       0.0       0.0       0.1       0.1       0.3
 1 C  dx2y2           0.0       0.2       0.0       0.1       0.1       0.1
 2 H  s               1.8       2.2       0.3       0.8       1.0       3.1
 3 C  s               0.1       0.6       0.0       0.1       0.4       0.2
 3 C  pz              4.1       0.1       0.0       0.9       0.1       1.4
 3 C  px              0.4       3.8       0.2       0.7       1.9       2.5
 3 C  py              0.6       0.0       0.8       0.4       0.2       1.3
 3 C  dz2             0.0       0.0       0.0       0.0       0.0       0.2
 3 C  dxz             0.1       0.0       0.0       0.0       0.0       0.3
 3 C  dx2y2           0.0       0.3       0.0       0.1       0.1       0.3
 3 C  dxy             0.0       0.0       0.1       0.0       0.0       0.0
 4 H  s               1.4       0.0       0.0       0.1       0.1       3.8
 5 C  s               0.1       0.7       0.0       0.1       0.1       1.4
 5 C  pz              0.0       0.2       0.2       1.6       2.7       0.3
 5 C  px              0.0       2.2       0.0       0.0       3.8       3.0
 5 C  py              0.8       1.6       0.1       1.0       0.0       0.5
 5 C  dz2             0.1       0.1       0.0       0.0       0.0       0.0
 5 C  dxz             0.0       0.0       0.0       0.1       0.3       0.0
 5 C  dx2y2           0.0       0.1       0.0       0.1       0.1       0.0
 6 H  s               0.2       0.7       0.2       1.1       0.6       0.2
 7 C  s               0.1       0.2       0.0       1.0       0.1       0.3
[...]
 3 C  py              0.0       0.3       0.5       0.5       0.2       0.1
 3 C  dz2             0.1       0.1       0.1       0.8       0.1       0.1
 3 C  dxz             0.0       1.1       0.9       0.7       0.1       0.2
 3 C  dyz             0.0       0.6       1.8       2.0       1.9       0.2
 3 C  dx2y2           0.0       0.0       0.1       0.3       0.6       0.0
 3 C  dxy             0.0       0.2       0.9       0.9       0.6       0.0
 5 C  s               0.0       1.0       0.5       0.2       0.8       0.0
 5 C  pz              0.0       1.0       0.7       0.5       1.5       0.0
 5 C  px              0.0       0.0       0.0       0.1       0.1       0.0
 5 C  py              0.0       0.0       0.0       0.1       0.1       0.0
 5 C  dz2             0.2       4.3       1.5       2.2       3.9       0.0
 5 C  dxz             0.0       0.5       0.8       0.1       0.6       0.0
 5 C  dyz             0.0       0.1       0.1       0.0       0.1       0.0
 5 C  dx2y2           0.0       0.0       0.1       0.1       0.0       0.0
 7 C  s               0.2       0.9       0.5       0.2       0.6       0.0
 7 C  pz              0.2       1.1       0.7       0.6       1.4       0.1
 7 C  px              0.0       0.0       0.0       0.1       0.2       0.1
 7 C  dz2             0.7       4.8       1.7       2.2       3.0       0.0
 7 C  dxz             0.0       0.0       0.5       0.1       0.6       0.0
 7 C  dyz             0.2       0.0       0.2       0.2       0.1       0.0
 7 C  dxy             0.0       0.0       0.1       0.0       0.0       0.2
 9 C  s               1.4       0.1       0.5       0.7       0.3       0.3
 9 C  pz              0.8       0.1       0.2       0.6       0.2       0.0
 9 C  px              0.0       0.2       0.2       0.5       0.0       2.9
 9 C  py              0.1       0.0       0.0       0.1       0.0       0.0
 9 C  dz2             0.1       0.0       0.0       0.2       0.0       2.1
 9 C  dxz             0.4       0.5       1.6       3.3       1.2       3.3
 9 C  dyz             0.5       0.2       0.0       0.0       0.1       0.5
 9 C  dx2y2           1.4       0.0       0.2       0.8       1.1       2.1
 9 C  dxy             0.0       0.2       0.7       0.8       0.1       0.4
11 O  s               0.4       0.1       0.5       0.3       0.1       0.1
11 O  px              0.1       0.0       0.2       0.0       0.4       5.8
11 O  py              0.0       0.0       0.0       0.0       0.0       0.5
11 O  dz2             0.5       0.7       1.3       2.2       0.2       0.4
11 O  dxz             1.1       0.0       2.9       0.4       3.6      22.2
11 O  dyz             0.0       0.1       0.0       0.0       0.3       3.7
11 O  dx2y2           4.0       1.1       2.6       0.8       1.1       8.5
11 O  dxy             0.5       0.2       2.3       2.6       3.1      18.4
12 O  s               1.0       0.1       0.4       1.8       0.5       0.9
12 O  pz              0.7       0.1       0.4       0.9       0.3       0.3
12 O  px              0.2       0.0       0.1       0.3       0.1       0.3
12 O  py              0.3       0.0       0.1       0.4       0.2       0.1
12 O  dz2             1.6       0.6       2.6       2.1       1.4       0.0
12 O  dxz            10.6       1.7       5.4      11.2       2.6       6.9
12 O  dyz             0.9       0.0       0.4       1.9       0.8       0.3
12 O  dx2y2           2.0       0.3       0.4       1.0       0.0       2.9
12 O  dxy             1.6       0.0       0.4       2.6       1.0       0.4
13 O  s               0.2       1.3       0.7       0.8       2.3       0.1
13 O  pz              0.2       1.5       0.8       0.5       1.4       0.0
13 O  py              0.0       0.2       0.1       0.2       0.1       0.0
13 O  dz2             3.5      20.2      12.4       7.0      16.6       0.3
13 O  dxz             0.5       3.3       0.6       0.6       0.1       0.0
13 O  dyz             0.0       0.3       0.0       0.6       0.0       0.3
13 O  dx2y2           0.1       0.3       0.0       0.1       0.0       0.1
14 O  s               0.0       1.2       0.8       0.8       2.6       0.0
14 O  pz              0.0       1.3       0.7       0.4       1.5       0.0
14 O  px              0.0       0.3       0.1       0.2       0.4       0.0
14 O  dz2             0.3      21.0      13.3       5.1      18.7       0.2
14 O  dxz             0.3       2.5       0.2       2.4       1.8       0.0
14 O  dyz             0.1       0.8       0.0       0.0       0.2       0.0
15 O  s               0.0       0.5       0.9       2.3       1.0       0.3
15 O  pz              0.0       0.3       0.6       0.7       0.4       0.0
15 O  px              0.0       0.2       0.4       0.8       0.5       0.0
15 O  py              0.0       0.2       0.2       0.5       0.1       0.1
15 O  dz2             0.0       0.6       2.9       0.6       1.1       0.0
15 O  dxz             0.0       1.3       2.9       4.1       2.4       0.2
15 O  dyz             0.0       6.0      10.1      11.4       4.6       1.1
15 O  dx2y2           0.1       1.5       1.4       1.5       0.1       0.2
15 O  dxy             0.0       1.3       2.9       5.2       3.1       0.1
16 O  s               2.1       0.3       0.2       0.1       0.0       0.0
16 O  pz              0.3       0.1       0.0       0.0       0.0       0.0
16 O  px              2.2       0.3       0.3       0.1       0.0       0.1
16 O  py              0.5       0.1       0.0       0.0       0.0       0.0
16 O  dz2             1.0       0.2       0.1       0.1       0.0       0.1
16 O  dxz            13.1       1.9       1.6       0.3       0.2       0.0
16 O  dyz             7.5       1.1       0.8       0.2       0.0       0.0
16 O  dx2y2           0.0       0.0       0.0       0.0       0.0       0.5
16 O  dxy            21.5       3.1       2.9       0.4       0.4       0.0
19 H  s               0.2       0.0       0.1       0.1       0.0       0.1
20 H  s               0.0       0.2       0.1       0.1       0.1       0.0
21 H  s               0.0       0.2       0.2       0.0       0.2       0.0
22 H  s               0.0       0.1       0.3       0.3       0.1       0.0
23 H  s               0.6       0.1       0.1       0.0       0.0       0.0



                      *****************************
                      * MAYER POPULATION ANALYSIS *
                      *****************************

  NA   - Mulliken gross atomic population
  ZA   - Total nuclear charge
  QA   - Mulliken gross atomic charge
  VA   - Mayer's total valence
  BVA  - Mayer's bonded valence
  FA   - Mayer's free valence

  ATOM       NA         ZA         QA         VA         BVA        FA
  0 C      5.9327     6.0000     0.0673     3.9546     3.9546     0.0000
  1 C      6.0211     6.0000    -0.0211     4.1029     4.1029    -0.0000
  2 H      0.9223     1.0000     0.0777     1.0011     1.0011     0.0000
  3 C      5.9038     6.0000     0.0962     4.0240     4.0240    -0.0000
  4 H      0.9421     1.0000     0.0579     0.9846     0.9846    -0.0000
  5 C      5.9494     6.0000     0.0506     4.0469     4.0469    -0.0000
  6 H      0.9414     1.0000     0.0586     0.9804     0.9804    -0.0000
  7 C      6.0347     6.0000    -0.0347     3.9903     3.9903    -0.0000
  8 H      0.9326     1.0000     0.0674     0.9748     0.9748     0.0000
  9 C      5.7631     6.0000     0.2369     4.0932     4.0932     0.0000
 10 H      0.9408     1.0000     0.0592     0.9749     0.9749    -0.0000
 11 O      8.3237     8.0000    -0.3237     2.1399     2.1399    -0.0000
 12 O      8.3944     8.0000    -0.3944     2.0491     2.0491    -0.0000
 13 O      8.4045     8.0000    -0.4045     2.0273     2.0273    -0.0000
 14 O      8.4061     8.0000    -0.4061     2.0191     2.0191    -0.0000
 15 O      8.4295     8.0000    -0.4295     2.0183     2.0183     0.0000
 16 O      8.4463     8.0000    -0.4463     2.0228     2.0228    -0.0000
 17 H      0.9192     1.0000     0.0808     0.9552     0.9552     0.0000
 18 H      0.9211     1.0000     0.0789     0.9631     0.9631    -0.0000
 19 H      0.6952     1.0000     0.3048     0.8954     0.8954     0.0000
 20 H      0.6925     1.0000     0.3075     0.8871     0.8871    -0.0000
 21 H      0.7016     1.0000     0.2984     0.8959     0.8959    -0.0000
 22 H      0.6954     1.0000     0.3046     0.9212     0.9212     0.0000
 23 H      0.6864     1.0000     0.3136     0.8720     0.8720    -0.0000

  Mayer bond orders larger than 0.100000
B(  0-C ,  1-C ) :   1.0592 B(  0-C , 16-O ) :   1.0603 B(  0-C , 17-H ) :   0.9186 
B(  0-C , 18-H ) :   0.9073 B(  1-C ,  2-H ) :   0.8635 B(  1-C ,  3-C ) :   1.0188 
B(  1-C , 11-O ) :   1.0230 B(  3-C ,  4-H ) :   0.8819 B(  3-C ,  5-C ) :   0.9851 
B(  3-C , 15-O ) :   1.0905 B(  5-C ,  6-H ) :   0.8904 B(  5-C ,  7-C ) :   1.0341 
B(  5-C , 14-O ) :   1.0772 B(  7-C ,  8-H ) :   0.8959 B(  7-C ,  9-C ) :   0.9285 
B(  7-C , 13-O ) :   1.0653 B(  9-C , 10-H ) :   0.9136 B(  9-C , 11-O ) :   1.0232 
B(  9-C , 12-O ) :   1.1592 B( 12-O , 19-H ) :   0.8402 B( 13-O , 20-H ) :   0.8398 
B( 14-O , 21-H ) :   0.8412 B( 15-O , 22-H ) :   0.8204 B( 16-O , 23-H ) :   0.8442 


-------
TIMINGS
-------

Total SCF time: 0 days 0 hours 0 min 9 sec 

Total time                  ....       9.348 sec
Sum of individual times     ....       8.882 sec  ( 95.0%)

SCF preparation             ....       0.156 sec  (  1.7%)
Fock matrix formation       ....       7.996 sec  ( 85.5%)
  Startup                   ....       0.050 sec  (  0.6% of F)
  Split-RI-J                ....       3.584 sec  ( 44.8% of F)
  XC integration            ....       3.945 sec  ( 49.3% of F)
    Basis function eval.    ....       1.323 sec  ( 33.5% of XC)
    Density eval.           ....       0.731 sec  ( 18.5% of XC)
    XC-Functional eval.     ....       0.275 sec  (  7.0% of XC)
    XC-Potential eval.      ....       0.971 sec  ( 24.6% of XC)
Diagonalization             ....       0.000 sec  (  0.0%)
Density matrix formation    ....       0.158 sec  (  1.7%)
Total Energy calculation    ....       0.025 sec  (  0.3%)
Population analysis         ....       0.103 sec  (  1.1%)
Orbital Transformation      ....       0.059 sec  (  0.6%)
Orbital Orthonormalization  ....       0.000 sec  (  0.0%)
DIIS solution               ....       0.304 sec  (  3.3%)
  MO trafo                  ....       0.000 sec  (  0.0 % of DIIS)
  Orb grad                  ....       0.000 sec  (  0.0 % of DIIS)
  Energy W gradient         ....       0.000 sec  (  0.0 % of DIIS)
  DIIS error                ....       0.006 sec  (  1.9 % of DIIS)
  DIIS work                 ....       0.249 sec  ( 81.9 % of DIIS)
  Form Q                    ....       0.000 sec  (  0.0 % of DIIS)
  Form QpQm                 ....       0.000 sec  (  0.0 % of DIIS)
  Exp/Cayley                ....       0.000 sec  (  0.0 % of DIIS)
  Orb update                ....       0.000 sec  (  0.0 % of DIIS)
  Wake-sleep                ....       0.016 sec  (  5.2 % of DIIS)
SOSCF solution              ....       0.081 sec  (  0.9%)
  MO trafo                  ....       0.046 sec  ( 56.9 % of SOSCF)
  Orb grad                  ....       0.001 sec  (  1.6 % of SOSCF)
  Rot update                ....       0.016 sec  ( 19.8 % of SOSCF)
  Step                      ....       0.018 sec  ( 21.6 % of SOSCF)
Finished LeanSCF after   9.4 sec

Maximum memory used throughout the entire LEANSCF-calculation: 18.4 MB


-------------------------------------------------------------------------------
                          DFT DISPERSION CORRECTION                            
                                                                               
                                DFTD4 V3.4.0                                   
-------------------------------------------------------------------------------
The PBE functional is recognized
Active option DFTDOPT                   ...         5   

-------------------------   ----------------
Dispersion correction           -0.024835293
-------------------------   ----------------

------------------   -----------------
gCP correction             0.155181374
------------------   -----------------

-------------------------   --------------------
FINAL SINGLE POINT ENERGY      -685.689214396231
-------------------------   --------------------


------------------------------------------------------------------------------
                              ORCA PROPERTY CALCULATIONS
------------------------------------------------------------------------------

GBWName                                 ... sp.gbw
Number of atoms                         ...     24
Number of basis functions               ...    192
Max core memory                         ...   1024 MB

Electric properties:
Dipole moment                           ... YES
Quadrupole moment                       ...  NO
Static polarizability (Dipole/Dipole)   ...  NO
Static polarizability (Dipole/Quad.)    ...  NO
Static polarizability (Quad./Quad.)     ...  NO
Static polarizability (Velocity)        ...  NO

Atomic electric properties:
Dipole moment                           ...  NO
Quadrupole moment                       ...  NO
Static polarizability                   ...  NO

Choice of electric origin               ... Center of mass
Position of electric origin             ...    -0.000004    -0.000002     0.000000

General magnetic properties:
Magnetizability                         ...  NO

EPR properties:
g-Tensor (aka g-matrix)                 ...  NO
Zero-Field splitting spin-orbit         ...  NO
Zero-field splitting spin-spin          ...  NO
Hyperfine couplings                     ...  NO (   0 nuclei)
Quadrupole couplings                    ...  NO (   0 nuclei)
Contact density                         ...  NO (   0 nuclei)

NMR properties:
Chemical shifts                         ...  NO (   0 nuclei)
Spin-rotation constants                 ...  NO (   0 nuclei)
Spin-spin couplings                     ...  NO (   0 nuclei,    0 pairs)

Choice of magnetic origin               ... GIAO
Position of magnetic origin             ...     0.000000     0.000000     0.000000

Properties with geometric perturbations:
SCF Hessian                             ...  NO
IR spectrum                             ...  NO
VCD spectrum                            ...  NO
X-ray spectroscopy properties:
SCF XES/XAS/RIXS spectra                ...  NO


-------------
DIPOLE MOMENT
-------------

Method             : SCF
Type of density    : Electron Density
Multiplicity       :   1
Irrep              :   0
Energy             :  -685.8195604782229111 Eh
Relativity type    : 
Basis              : AO
                                X                 Y                 Z
Electronic contribution:      1.817707347       0.043566355      -0.361343800
Nuclear contribution   :     -2.327198782      -0.418584678       0.226882190
                        -----------------------------------------
Total Dipole Moment    :     -0.509491436      -0.375018323      -0.134461610
                        -----------------------------------------
Magnitude (a.u.)       :      0.646761309
Magnitude (Debye)      :      1.643936601



--------------------
Rotational spectrum 
--------------------
 
Rotational constants in cm-1:             0.044264             0.025127             0.021880 
Rotational constants in MHz :          1326.987103           753.283469           655.938907 

Dipole components along the rotational axes: 
x,y,z [a.u.] :    -0.457650    -0.450259     0.078253 
x,y,z [Debye]:    -1.163255    -1.144467     0.198902 

 

Dipole moment calculation done in   0.0 sec 

Maximum memory used throughout the entire PROP-calculation: 11.9 MB

--------------------------------
SUGGESTED CITATIONS FOR THIS RUN
--------------------------------

Below you find a list of papers that are relevant to this ORCA run
We neither can nor want to force you to cite these papers, but we appreciate if you do
You receive ORCA, which is the product of decades of hard work by many enthusiastic individuals, for free
The only thing we kindly ask in return is that you cite our papers,
We deeply appreciate it, if you show your appreciation for ORCA by not just citing the generic ORCA reference.

Please note that relegating all ORCA citations to the supporting information does *not* help us.
SI sections are not indexed - citations you put there will not count into any citation statistics
But we need these citations in order to attract the funding resources that allow us to do what we are doing

Therefore, if you are a happy ORCA user, please consider citing a few of the papers listed below in the main body of your paper

In addition to the list printed below, the program has created the file sp.bibtex that contains the list in bibtex format
You can import this file easily into all common literature databanks and citation aid programs


List of essential papers. We consider these as the minimum necessary citations

  1. Neese,F.
     Software update: the ORCA program system, version 5.0
     WIRES Comput. Molec. Sci., 2022 12(1)e1606
     doi.org/10.1002/wcms.1606

List of papers to cite with high priority. The work reported in these papers was absolutely
necessary for this run to complete.
Our perspective: the developers of density functionals and basis sets usually get cited in chemistry papers
Good! But without the algorithms to do something with them, the functionals or basis sets would not do anything.
Hence, in our opinion, the algorithm design and method developments papers are equally worthy of getting cited

  1. Neese,F.
     An improvement of the resolution of the identity approximation for the formation of the Coulomb matrix
     J. Comp. Chem., 2003 24(14)1740-1747
     doi.org/10.1002/jcc.10318
  2. Neese,F.
     The SHARK Integral Generation and Digestion System
     J. Comp. Chem., 2022  1-16
     doi.org/10.1002/jcc.26942
  3. Caldeweyher,E.; Bannwarth,C.; Grimme,S.
     Extension of the D3 dispersion coefficient model
     J. Chem. Phys., 2017 147 034112-XXXX
     doi.org/10.1063/1.4993215
  4. Caldeweyher,E.; Ehlert,S.; Hansen,A.; Neugebauer,H.; Spicher,S.; Bannwarth,C.; Grimme,S.
     A generally applicable atomic-charge dependent London dispersion correction
     J. Chem. Phys., 2019 150 154122-XXXX
     doi.org/10.1063/1.5090222
  5. Caldeweyher,E.; Mewes,J.; Ehlert,S.; Grimme,S.
     Extension and evaluation of the D4 London-dispersion model for periodic systems
     Phys. Chem. Chem. Phys., 2020 22(16)8499-8512
     doi.org/10.1039/D0CP00502A

List of suggested additional citations. These are papers that are important in the 'surrounding' of 
of this run, or papers that preceded the highly important papers. If you like your results we are grateful for a citation.

  1. Neese,F.
     The ORCA program system
     WIRES Comput. Molec. Sci., 2012 2(1)73-78
     doi.org/10.1002/wcms.81
  2. Neese,F.
     Software update: the ORCA program system, version 4.0
     WIRES Comput. Molec. Sci., 2018 8(1)1-6
     doi.org/10.1002/wcms.1327
  3. Neese,F.; Wennmohs,F.; Becker,U.; Riplinger,C.
     The ORCA quantum chemistry program package
     J. Chem. Phys., 2020 152 Art. No. L224108
     doi.org/10.1063/5.0004608

List of optional additional citations

  1. Neese,F.
     Approximate second-order SCF convergence for spin unrestricted wavefunctions
     Chem. Phys. Lett., 2000 325(1-3)93-98
     doi.org/10.1016/s0009-2614(00)00662-x

Timings for individual modules:

Sum of individual times          ...       11.439 sec (=   0.191 min)
Startup calculation              ...        0.872 sec (=   0.015 min)   7.6 %
SCF iterations                   ...       10.470 sec (=   0.174 min)  91.5 %
Property calculations            ...        0.097 sec (=   0.002 min)   0.9 %
                             ****ORCA TERMINATED NORMALLY****
TOTAL RUN TIME: 0 days 0 hours 0 minutes 12 seconds 135 msec
