22
 energy: -3680.220709855857 gnorm: 0.001009508802 xtb: 6.7.1 (edcfbbe)
C            1.51789288114821        1.28474580122389       -1.43980515827167
C            2.88614477740697        1.43976215783455       -1.59403546271708
C            3.74913291400494        0.84913015144702       -0.68116801508112
C            3.25333692330663        0.10516257249079        0.39478516655038
C            1.86810096317646       -0.04078846669187        0.53383274966826
C            0.99041638848146        0.53942452530561       -0.38630236940297
C           -0.48099615589048        0.41924214292683       -0.25027120166342
C           -1.20832209241424        1.53174675009460        0.16139777618414
C           -2.58846926402394        1.47083405105718        0.27353829507817
C           -3.27744380585005        0.29359075388604       -0.02818633111439
C           -2.55455358571922       -0.82897073709463       -0.45381491566015
C           -1.16236812994501       -0.75916531547209       -0.56629725747834
Cl          -0.26733302166322       -2.13593052216755       -1.13375445947124
Cl          -3.39036611209882       -2.29179202127033       -0.84976474708011
Cl          -4.99960297537129        0.22207147083662        0.11057649154147
Cl          -3.44840129640274        2.89005684897068        0.79795456040980
Cl           1.22328805063592       -0.92793528988747        1.88524754440328
Cl           4.33444086961225       -0.61273951274636        1.54270261359354
Cl           5.46616998602362        1.05686607870104       -0.89188569885184
H            0.84018732710496        1.74275518262401       -2.15169144462441
H            3.28458115274109        2.01603041678635       -2.42047953110782
H           -0.68525736492430        2.44996331267101        0.40164152276327
22
 energy: -3680.220718328862 gnorm: 0.000424796003 xtb: 6.7.1 (edcfbbe)
C            1.51902776347584        1.28507995865613       -1.44090277229463
C            2.88768999378346        1.43868641510813       -1.59435909515869
C            3.74977711429893        0.84724234572251       -0.68108569769078
C            3.25274642438971        0.10536092936784        0.39561117416356
C            1.86718073106888       -0.03757684058702        0.53438804473620
C            0.99020015208533        0.54175451898646       -0.38695981618509
C           -0.48127274657079        0.42114234858389       -0.25172378308313
C           -1.20949398160763        1.53205974044729        0.16184212554429
C           -2.58974379187143        1.46969177011769        0.27473597597254
C           -3.27781833985452        0.29228608971176       -0.02708540776583
C           -2.55410309183269       -0.82914224563108       -0.45477143948921
C           -1.16232113131581       -0.75731441925225       -0.56881850985205
Cl          -0.26679800263389       -2.13278641465973       -1.13899891480113
Cl          -3.38770543872376       -2.29352382281611       -0.85054677934560
Cl          -5.00003581721348        0.21876550663349        0.11590080286873
Cl          -3.45002957684749        2.88822036974680        0.79997804777158
Cl           1.22035666014217       -0.92053435865297        1.88750863696494
Cl           4.33306069245708       -0.61405083658070        1.54363504869269
Cl           5.46740996268283        1.05090117080404       -0.89261231917838
H            0.84238274289402        1.74283157930197       -2.15392781642844
H            3.28709976140409        2.01458072772334       -2.42061522813875
H           -0.68703247028822        2.45038473858101        0.40302779534137
22
 energy: -3680.220731288930 gnorm: 0.000936409234 xtb: 6.7.1 (edcfbbe)
C            1.52255692353305        1.28640007229774       -1.44484800531516
C            2.89229063021586        1.43487679616654       -1.59637446979660
C            3.75109840204733        0.84151138259827       -0.68126615134715
C            3.24993899584185        0.10597613224996        0.39785628762872
C            1.86370224334922       -0.02873937204950        0.53616045527540
C            0.98959863540257        0.54869485643571       -0.38927555954282
C           -0.48200283035824        0.42739925817681       -0.25575377007928
C           -1.21290121835688        1.53422556482865        0.16305584052214
C           -2.59315861246560        1.46714356995976        0.27879427772061
C           -3.27753147510239        0.28806050927293       -0.02261611134678
C           -2.55168953979892       -0.82936963829970       -0.45710612713553
C           -1.16078802338465       -0.75186438619552       -0.57617102064941
Cl          -0.26033476982045       -2.12191925468530       -1.15320091271678
Cl          -3.38365756292488       -2.29512394037175       -0.85264974271708
Cl          -4.99952034355914        0.20518054928199        0.12904876011873
Cl          -3.45569433335765        2.88210308169006        0.80905013284156
Cl           1.21147413252510       -0.90177780807649        1.89332311051797
Cl           4.32555512677375       -0.61691283723235        1.54853289200494
Cl           5.47024691229919        1.03386103791278       -0.89468182252590
H            0.84914983164663        1.74370935641419       -2.16127100408546
H            3.29495774191421        2.00747184165313       -2.42335555443215
H           -0.69271592362345        2.45314910074451        0.40696853914624
22
 energy: -3680.220739217397 gnorm: 0.001192714008 xtb: 6.7.1 (edcfbbe)
C            1.52569855469830        1.28764593952642       -1.44908390083992
C            2.89627908993985        1.42994392806744       -1.59960835107652
C            3.75155035202459        0.83605805206744       -0.68168817039365
C            3.24639807928798        0.10707922179152        0.39999721992615
C            1.85959161365974       -0.02129855462220        0.53768307614965
C            0.98892852873287        0.55557873936890       -0.39148205710591
C           -0.48278038374046        0.43389598752310       -0.25942293415720
C           -1.21583901695319        1.53718467097560        0.16471381083289
C           -2.59569647903750        1.46500469710951        0.28411240799362
C           -3.27666397848766        0.28441491838462       -0.01846022828614
C           -2.54845691434279       -0.82931189512544       -0.45929620333730
C           -1.15863372975062       -0.74658989944625       -0.58210546650305
Cl          -0.25609503152254       -2.11311933352899       -1.16484287956030
Cl          -3.37386740945666       -2.29800138030041       -0.85761685969193
Cl          -4.99800453742520        0.19664652161142        0.14059449081485
Cl          -3.46265572686158        2.87471101919869        0.82091793850024
Cl           1.20144200959978       -0.88720154252307        1.89691086000070
Cl           4.31826130033226       -0.61642124294260        1.55372986499878
Cl           5.47193639664701        1.01843246026778       -0.89462468317449
H            0.85516611198157        1.74472782623327       -2.16838768599969
H            3.30227426003286        1.99759350951999       -2.42838075009341
H           -0.69826091537178        2.45707897381660        0.41056087613806
22
 energy: -3680.220743818074 gnorm: 0.000665521486 xtb: 6.7.1 (edcfbbe)
C            1.52717391503641        1.28739296539361       -1.45190061763030
C            2.89815706349091        1.42583628222779       -1.60230253268116
C            3.75159852936693        0.83305797850169       -0.68191356162184
C            3.24425962322563        0.10830597506363        0.40157522640041
C            1.85718827025931       -0.01747448078312        0.53820982076524
C            0.98851198917993        0.55959446828598       -0.39255258860677
C           -0.48327782233819        0.43796125811219       -0.26132049595126
C           -1.21728479784329        1.53913555602780        0.16618902333433
C           -2.59665180972855        1.46387714957133        0.28800929217263
C           -3.27613036459069        0.28263502240721       -0.01698621270420
C           -2.54662770186058       -0.82868905369901       -0.46114018140256
C           -1.15703762267382       -0.74318205690662       -0.58513397845602
Cl          -0.25241539660110       -2.10692606043384       -1.17063931590591
Cl          -3.37041939619631       -2.29766557180134       -0.86097462771809
Cl          -4.99665612487027        0.18989350553086        0.14450591058107
Cl          -3.46545698272435        2.87030744478162        0.83072031165190
Cl           1.19642205359775       -0.88057751651024        1.89782204659584
Cl           4.31397558498833       -0.61362741241394        1.55809528143670
Cl           5.47241404387410        1.01086079712134       -0.89384252078963
H            0.85794681509689        1.74412119453011       -2.17253150819076
H            3.30600863809990        1.98972289905441       -2.43275699106485
H           -0.70112807503313        2.45949048938826        0.41308939025604
22
 energy: -3680.220743818074 gnorm: 0.000665521486 xtb: 6.7.1 (edcfbbe)
C            1.52717391503641        1.28739296539361       -1.45190061763030
C            2.89815706349091        1.42583628222779       -1.60230253268116
C            3.75159852936693        0.83305797850169       -0.68191356162184
C            3.24425962322563        0.10830597506363        0.40157522640041
C            1.85718827025931       -0.01747448078312        0.53820982076524
C            0.98851198917993        0.55959446828598       -0.39255258860677
C           -0.48327782233819        0.43796125811219       -0.26132049595126
C           -1.21728479784329        1.53913555602780        0.16618902333433
C           -2.59665180972855        1.46387714957133        0.28800929217263
C           -3.27613036459069        0.28263502240721       -0.01698621270420
C           -2.54662770186058       -0.82868905369901       -0.46114018140256
C           -1.15703762267382       -0.74318205690662       -0.58513397845602
Cl          -0.25241539660110       -2.10692606043384       -1.17063931590591
Cl          -3.37041939619631       -2.29766557180134       -0.86097462771809
Cl          -4.99665612487027        0.18989350553086        0.14450591058107
Cl          -3.46545698272435        2.87030744478162        0.83072031165190
Cl           1.19642205359775       -0.88057751651024        1.89782204659584
Cl           4.31397558498833       -0.61362741241394        1.55809528143670
Cl           5.47241404387410        1.01086079712134       -0.89384252078963
H            0.85794681509689        1.74412119453011       -2.17253150819076
H            3.30600863809990        1.98972289905441       -2.43275699106485
H           -0.70112807503313        2.45949048938826        0.41308939025604
