
                                 *****************
                                 * O   R   C   A *
                                 *****************

                                            #,                                       
                                            ###                                      
                                            ####                                     
                                            #####                                    
                                            ######                                   
                                           ########,                                 
                                     ,,################,,,,,                         
                               ,,#################################,,                 
                          ,,##########################################,,             
                       ,#########################################, ''#####,          
                    ,#############################################,,   '####,        
                  ,##################################################,,,,####,       
                ,###########''''           ''''###############################       
              ,#####''   ,,,,##########,,,,          '''####'''          '####       
            ,##' ,,,,###########################,,,                        '##       
           ' ,,###''''                  '''############,,,                           
         ,,##''                                '''############,,,,        ,,,,,,###''
      ,#''                                            '''#######################'''  
     '                                                          ''''####''''         
             ,#######,   #######,   ,#######,      ##                                
            ,#'     '#,  ##    ##  ,#'     '#,    #''#        ,####,   ,####,        
            ##       ##  ##   ,#'  ##            #'  '#       #'       #'  '#        
            ##       ##  #######   ##           ,######,      #####,   #    #        
            '#,     ,#'  ##    ##  '#,     ,#' ,#      #,     #,   #   #,  ,#        
             '#######'   ##     ##  '#######'  #'      '#     '####' # '####'        



                #########################################################
                #                        -***-                          #
                #          Department of theory and spectroscopy        #
                #                                                       #
                #                      Frank Neese                      #
                #                                                       #
                #     Directorship, Architecture, Infrastructure        #
                #                    SHARK, DRIVERS                     #
                #        Core code/Algorithms in most modules           #
                #                                                       #
                #        Max Planck Institute fuer Kohlenforschung      #
                #                Kaiser Wilhelm Platz 1                 #
                #                 D-45470 Muelheim/Ruhr                 #
                #                      Germany                          #
                #                                                       #
                #                  All rights reserved                  #
                #                        -***-                          #
                #########################################################


                         Program Version 6.0.0  -   RELEASE  -


 With contributions from (in alphabetic order):
   Daniel Aravena         : Magnetic Suceptibility
   Michael Atanasov       : Ab Initio Ligand Field Theory (pilot matlab implementation)
   Alexander A. Auer      : GIAO ZORA, VPT2 properties, NMR spectrum
   Ute Becker             : All parallelization in ORCA, NUMFREQ, NUMCALC
   Giovanni Bistoni       : ED, misc. LED, open-shell LED, HFLD
   Martin Brehm           : Molecular dynamics
   Dmytro Bykov           : pre 5.0 version of the SCF Hessian
   Marcos Casanova-Páez   : Triplet and SCS-CIS(D). UHF-(DLPNO)-IP/EA/STEOM-CCSD. UHF-CVS-IP/STEOM-CCSD
   Vijay G. Chilkuri      : MRCI spin determinant printing, contributions to CSF-ICE
   Pauline Colinet        : FMM embedding
   Dipayan Datta          : RHF DLPNO-CCSD density
   Achintya Kumar Dutta   : EOM-CC, STEOM-CC
   Nicolas Foglia         : Exact transition moments, OPA infrastructure, MCD improvements
   Dmitry Ganyushin       : Spin-Orbit,Spin-Spin,Magnetic field MRCI
   Miquel Garcia          : C-PCM and meta-GGA Hessian, CCSD/C-PCM, Gaussian charge scheme
   Tiago L. C. Gouveia    : GS-ROHF, GS-ROCIS
   Yang Guo               : DLPNO-NEVPT2, F12-NEVPT2, CIM, IAO-localization
   Andreas Hansen         : Spin unrestricted coupled pair/coupled cluster methods
   Ingolf Harden          : AUTO-CI MPn and infrastructure 
   Benjamin Helmich-Paris : MC-RPA, TRAH-(SCF,CASSCF), AVAS, COSX integrals, SCF dyn. polar.
   Lee Huntington         : MR-EOM, pCC
   Robert Izsak           : Overlap fitted RIJCOSX, COSX-SCS-MP3, EOM
   Riya Kayal             : Wick's Theorem for AUTO-CI, AUTO-CI UHF-CCSDT
   Emily Kempfer          : AUTO-CI, RHF CISDT and CCSDT
   Christian Kollmar      : KDIIS, OOCD, Brueckner-CCSD(T), CCSD density, CASPT2, CASPT2-K, improved NEVPT2
   Axel Koslowski         : Symmetry handling
   Simone Kossmann        : Meta GGA functionals, TD-DFT gradient, OOMP2, (MP2 Hessian; deprecated post 5.0)
   Lucas Lang             : DCDCAS
   Marvin Lechner         : AUTO-CI (C++ implementation), FIC-MRCC
   Spencer Leger          : CASSCF response
   Dagmar Lenk            : GEPOL surface, SMD, ORCA-2-JSON
   Dimitrios Liakos       : Extrapolation schemes; Compound Job, initial MDCI parallelization
   Dimitrios Manganas     : Further ROCIS development; embedding schemes. LFT, Crystal Embedding
   Dimitrios Pantazis     : SARC Basis sets
   Anastasios Papadopoulos: AUTO-CI, single reference methods and gradients
   Taras Petrenko         : pre 6.0 DFT Hessian and TD-DFT gradient, (ASA, deprecated), ECA, 1-Electron XAS/XES, NRVS
   Peter Pinski           : DLPNO-MP2, DLPNO-MP2 Gradient
   Christoph Reimann      : Effective Core Potentials
   Marius Retegan         : Local ZFS, SOC
   Christoph Riplinger    : Optimizer, TS searches, QM/MM, DLPNO-CCSD(T), (RO)-DLPNO pert. Triples
   Michael Roemelt        : Original ROCIS implementation
   Masaaki Saitow         : Open-shell DLPNO-CCSD energy and density
   Barbara Sandhoefer     : DKH picture change effects
   Kantharuban Sivalingam : CASSCF convergence/infrastructure, NEVPT2 and variants, FIC-MRCI
   Bernardo de Souza      : ESD, SOC TD-DFT
   Georgi Stoychev        : AutoAux, RI-MP2 NMR, DLPNO-MP2 response, X2C
   Van Anh Tran           : RI-MP2 g-tensors
   Willem Van den Heuvel  : Paramagnetic NMR
   Zikuan Wang            : NOTCH, Electric field optimization 
   Frank Wennmohs         : Technical directorship and infrastructure
   Hang Xu                : AUTO-CI-Response properties 


 We gratefully acknowledge several colleagues who have allowed us to
 interface, adapt or use parts of their codes:
   Stefan Grimme, W. Hujo, H. Kruse, P. Pracht,  : VdW corrections, initial TS optimization,
                  C. Bannwarth, S. Ehlert,         DFT functionals, gCP, sTDA/sTD-DF
                  L. Wittmann, M. Mueller
   Ed Valeev, F. Pavosevic, A. Kumar             : LibInt (2-el integral package), F12 methods
   Garnet Chan, S. Sharma, J. Yang, R. Olivares  : DMRG
   Ulf Ekstrom                                   : XCFun DFT Library
   Mihaly Kallay                                 : mrcc  (arbitrary order and MRCC methods)
   Frank Weinhold                                : gennbo (NPA and NBO analysis)
   Simon Mueller                                 : openCOSMO-RS
   Christopher J. Cramer and Donald G. Truhlar   : smd solvation model
   Lars Goerigk                                  : TD-DFT with DH, B97 family of functionals
   V. Asgeirsson, H. Jonsson                     : NEB implementation
   FAccTs GmbH                                   : IRC, NEB, NEB-TS, DLPNO-Multilevel, CI-OPT
                                                   MM, QMMM, 2- and 3-layer-ONIOM, Crystal-QMMM,
                                                   LR-CPCM, SF, NACMEs, symmetry and pop. for TD-DFT,
                                                   nearIR, NL-DFT gradient (VV10), updates on ESD,
                                                   ML-optimized integration grids, MBIS, APM,
                                                   GOAT, DOCKER, SOLVATOR, interface openCOSMO-RS
   S Lehtola, MJT Oliveira, MAL Marques          : LibXC Library
   Liviu Ungur et al                             : ANISO software


 Your calculation uses the libint2 library for the computation of 2-el integrals
 For citations please refer to: http://libint.valeyev.net

 Your ORCA version has been built with support for libXC version: 6.2.2
 For citations please refer to: https://libxc.gitlab.io

 This ORCA versions uses:
   CBLAS   interface :  Fast vector & matrix operations
   LAPACKE interface :  Fast linear algebra routines
   SCALAPACK package :  Parallel linear algebra routines
   Shared memory     :  Shared parallel matrices
   BLAS/LAPACK       :  OpenBLAS 0.3.27  USE64BITINT DYNAMIC_ARCH NO_AFFINITY SkylakeX SINGLE_THREADED
        Core in use  :  SkylakeX
   Copyright (c) 2011-2014, The OpenBLAS Project


Your calculation utilizes the geometrical counterpoise correction gCP
Please cite in your paper:
H.Kruse, S. Grimme J.Chem.Phys., 136, (2012), 154101 
   

Your calculation utilizes the atom-pairwise dispersion correction
based on EEQ partial charges (D4)


Your calculation utilizes the SMD solvation module
Please cite in your paper:
A.V. Marenich, C.J. Cramer, D.G. Truhlar J. Phys. Chem. B, 113, (2009), 6378 

================================================================================

----- Orbital basis set information -----
Your calculation utilizes the basis: def2-mTZVPP
   Stefan Grimme, Andreas Hansen, Sebastian Ehlert, and Jan-Michael Mewes 
   J. Chem. Phys. 154, 064103 (2021). DOI: 10.1063/5.0040021

----- AuxJ basis set information -----
Your calculation utilizes the auxiliary basis: def2/J
   F. Weigend, Phys. Chem. Chem. Phys. 8, 1057 (2006).

================================================================================
                                        WARNINGS
                       Please study these warnings very carefully!
================================================================================

Using LibXC functional ID 497 : Re-regularized SCAN exchange by Furness et al
[ 1]  J. W. Furness, A. D. Kaplan, J. Ning, J. P. Perdew, and J. Sun.,  J. Phys. Chem. Lett. 11, 8208-8215 (2020)
[ 2]  J. W. Furness, A. D. Kaplan, J. Ning, J. P. Perdew, and J. Sun.,  J. Phys. Chem. Lett. 11, 9248-9248 (2020)
Using LibXC functional ID 498 : Re-regularized SCAN correlation by Furness et al
[ 1]  J. W. Furness, A. D. Kaplan, J. Ning, J. P. Perdew, and J. Sun.,  J. Phys. Chem. Lett. 11, 8208-8215 (2020)
[ 2]  J. W. Furness, A. D. Kaplan, J. Ning, J. P. Perdew, and J. Sun.,  J. Phys. Chem. Lett. 11, 9248-9248 (2020)
Using LibXC functional ID 497 : Re-regularized SCAN exchange by Furness et al
[ 1]  J. W. Furness, A. D. Kaplan, J. Ning, J. P. Perdew, and J. Sun.,  J. Phys. Chem. Lett. 11, 8208-8215 (2020)
[ 2]  J. W. Furness, A. D. Kaplan, J. Ning, J. P. Perdew, and J. Sun.,  J. Phys. Chem. Lett. 11, 9248-9248 (2020)
Using LibXC functional ID 498 : Re-regularized SCAN correlation by Furness et al
[ 1]  J. W. Furness, A. D. Kaplan, J. Ning, J. P. Perdew, and J. Sun.,  J. Phys. Chem. Lett. 11, 8208-8215 (2020)
[ 2]  J. W. Furness, A. D. Kaplan, J. Ning, J. P. Perdew, and J. Sun.,  J. Phys. Chem. Lett. 11, 9248-9248 (2020)

================================================================================
                                       INPUT FILE
================================================================================
NAME = sp_solv.inp
|  1> ! r2scan-3c def2/J RI DEFGRID2 scfconv6 printgap
|  2> %output
|  3>     printlevel normal
|  4> end
|  5> %cpcm
|  6>     smd true
|  7>     smdsolvent "water"
|  8> end
|  9> * xyz 0 1
| 10> C -2.9865114533 1.2333729247 0.0001404397
| 11> C -1.7553536534 0.3775807803 0.0003006038
| 12> C -1.8331126403 -1.0041682084 -0.0008686022
| 13> C -0.6841127753 -1.779211085 -0.0008885116
| 14> C 0.5623518471 -1.1808884641 8.88103e-05
| 15> C 0.6535117108 0.2210095868 0.0008706128
| 16> C -0.4997011908 0.9822848212 0.0011393078
| 17> O 1.9395966573 0.7162663962 0.0013716463
| 18> C 2.1181571524 2.1174002502 -0.0020120953
| 19> O 1.6870206284 -1.9537680603 0.0001632816
| 20> H -3.0055979404 1.8698186537 -0.8828912293
| 21> H -3.8818068771 0.6186569842 0.0054654022
| 22> H -3.0004545242 1.8780422472 0.877228819
| 23> H -2.7966051932 -1.4900721029 -0.0017066719
| 24> H -0.735913477 -2.8562022363 -0.0017222362
| 25> H -0.4431060388 2.0593463893 0.0020493868
| 26> H 3.1952513245 2.2689268596 -0.0039860533
| 27> H 1.6837574883 2.5717559048 0.8920883608
| 28> H 1.6810221642 2.5676200314 -0.8968660079
| 29> H 2.4639093856 -1.3719331428 0.000625787
| 30> *
| 31> 
| 32>                          ****END OF INPUT****
================================================================================

                       ****************************
                       * Single Point Calculation *
                       ****************************

---------------------------------
CARTESIAN COORDINATES (ANGSTROEM)
---------------------------------
  C     -2.986511    1.233373    0.000140
  C     -1.755354    0.377581    0.000301
  C     -1.833113   -1.004168   -0.000869
  C     -0.684113   -1.779211   -0.000889
  C      0.562352   -1.180888    0.000089
  C      0.653512    0.221010    0.000871
  C     -0.499701    0.982285    0.001139
  O      1.939597    0.716266    0.001372
  C      2.118157    2.117400   -0.002012
  O      1.687021   -1.953768    0.000163
  H     -3.005598    1.869819   -0.882891
  H     -3.881807    0.618657    0.005465
  H     -3.000455    1.878042    0.877229
  H     -2.796605   -1.490072   -0.001707
  H     -0.735913   -2.856202   -0.001722
  H     -0.443106    2.059346    0.002049
  H      3.195251    2.268927   -0.003986
  H      1.683757    2.571756    0.892088
  H      1.681022    2.567620   -0.896866
  H      2.463909   -1.371933    0.000626

----------------------------
CARTESIAN COORDINATES (A.U.)
----------------------------
  NO LB      ZA    FRAG     MASS         X           Y           Z
   0 C     6.0000    0    12.011   -5.643689    2.330737    0.000265
   1 C     6.0000    0    12.011   -3.317138    0.713524    0.000568
   2 C     6.0000    0    12.011   -3.464081   -1.897603   -0.001641
   3 C     6.0000    0    12.011   -1.292786   -3.362222   -0.001679
   4 C     6.0000    0    12.011    1.062691   -2.231556    0.000168
   5 C     6.0000    0    12.011    1.234958    0.417648    0.001645
   6 C     6.0000    0    12.011   -0.944298    1.856249    0.002153
   7 O     8.0000    0    15.999    3.665306    1.353547    0.002592
   8 C     6.0000    0    12.011    4.002737    4.001307   -0.003802
   9 O     8.0000    0    15.999    3.188007   -3.692087    0.000309
  10 H     1.0000    0     1.008   -5.679757    3.533445   -1.668423
  11 H     1.0000    0     1.008   -7.335552    1.169092    0.010328
  12 H     1.0000    0     1.008   -5.670037    3.548986    1.657722
  13 H     1.0000    0     1.008   -5.284818   -2.815828   -0.003225
  14 H     1.0000    0     1.008   -1.390675   -5.397440   -0.003255
  15 H     1.0000    0     1.008   -0.837349    3.891601    0.003873
  16 H     1.0000    0     1.008    6.038150    4.287650   -0.007533
  17 H     1.0000    0     1.008    3.181841    4.859914    1.685803
  18 H     1.0000    0     1.008    3.176672    4.852099   -1.694831
  19 H     1.0000    0     1.008    4.656114   -2.592578    0.001183

--------------------------------
INTERNAL COORDINATES (ANGSTROEM)
--------------------------------
 C      0   0   0     0.000000000000     0.00000000     0.00000000
 C      1   0   0     1.499376453171     0.00000000     0.00000000
 C      2   1   0     1.383935726419   121.58262874     0.00000000
 C      3   2   1     1.385962535834   120.78014202   179.99093120
 C      4   3   2     1.382629729441   120.35713271     0.00000000
 C      5   4   3     1.404859023917   119.36223002     0.00000000
 C      6   5   4     1.381824898865   119.70968781     0.02316419
 O      6   5   4     1.378148775679   114.78161866   180.02030852
 C      8   6   5     1.412469956120   118.32361087   179.80734438
 O      5   4   3     1.364632823656   119.86115724   179.99497223
 H      1   2   3     1.088656230593   110.37487639   239.96796761
 H      1   2   3     1.086028516480   110.72233504     0.36326296
 H      1   2   3     1.088612405635   110.39158912   120.78893753
 H      3   2   1     1.079083498412   119.98348997     0.00000000
 H      4   3   2     1.078236498998   121.24744242   179.99546857
 H      7   6   5     1.078547848244   120.42227263   179.98083028
 H      9   8   6     1.087702195198   105.27068432   180.16795446
 H      9   8   6     1.092958258414   111.11068327    61.47997478
 H      9   8   6     1.092953967095   111.10162103   298.85383384
 H     10   5   4     0.970612294481   108.67227703   179.98285720

---------------------------
INTERNAL COORDINATES (A.U.)
---------------------------
 C      0   0   0     0.000000000000     0.00000000     0.00000000
 C      1   0   0     2.833410868144     0.00000000     0.00000000
 C      2   1   0     2.615259509882   121.58262874     0.00000000
 C      3   2   1     2.619089624601   120.78014202   179.99093120
 C      4   3   2     2.612791533261   120.35713271     0.00000000
 C      5   4   3     2.654798811972   119.36223002     0.00000000
 C      6   5   4     2.611270623889   119.70968781     0.02316419
 O      6   5   4     2.604323757832   114.78161866   180.02030852
 C      8   6   5     2.669181389459   118.32361087   179.80734438
 O      5   4   3     2.578782310069   119.86115724   179.99497223
 H      1   2   3     2.057262129808   110.37487639   239.96796761
 H      1   2   3     2.052296469776   110.72233504     0.36326296
 H      1   2   3     2.057179312639   110.39158912   120.78893753
 H      3   2   1     2.039172287632   119.98348997     0.00000000
 H      4   3   2     2.037571690705   121.24744242   179.99546857
 H      7   6   5     2.038160055511   120.42227263   179.98083028
 H      9   8   6     2.055459264189   105.27068432   180.16795446
 H      9   8   6     2.065391784210   111.11068327    61.47997478
 H      9   8   6     2.065383674792   111.10162103   298.85383384
 H     10   5   4     1.834191418786   108.67227703   179.98285720

---------------------
BASIS SET INFORMATION
---------------------
There are 3 groups of distinct atoms

 Group   1 Type C   : 11s6p1d contracted to 5s3p1d pattern {62111/411/1}
 Group   2 Type O   : 11s6p2d contracted to 5s3p2d pattern {62111/411/11}
 Group   3 Type H   : 4s1p contracted to 2s1p pattern {31/1}

Atom   0C    basis set group =>   1
Atom   1C    basis set group =>   1
Atom   2C    basis set group =>   1
Atom   3C    basis set group =>   1
Atom   4C    basis set group =>   1
Atom   5C    basis set group =>   1
Atom   6C    basis set group =>   1
Atom   7O    basis set group =>   2
Atom   8C    basis set group =>   1
Atom   9O    basis set group =>   2
Atom  10H    basis set group =>   3
Atom  11H    basis set group =>   3
Atom  12H    basis set group =>   3
Atom  13H    basis set group =>   3
Atom  14H    basis set group =>   3
Atom  15H    basis set group =>   3
Atom  16H    basis set group =>   3
Atom  17H    basis set group =>   3
Atom  18H    basis set group =>   3
Atom  19H    basis set group =>   3
---------------------------------
AUXILIARY/J BASIS SET INFORMATION
---------------------------------
There are 3 groups of distinct atoms

 Group   1 Type C   : 12s5p4d2f1g contracted to 6s4p3d1f1g pattern {711111/2111/211/2/1}
 Group   2 Type O   : 12s5p4d2f1g contracted to 6s4p3d1f1g pattern {711111/2111/211/2/1}
 Group   3 Type H   : 5s2p1d contracted to 3s1p1d pattern {311/2/1}

Atom   0C    basis set group =>   1
Atom   1C    basis set group =>   1
Atom   2C    basis set group =>   1
Atom   3C    basis set group =>   1
Atom   4C    basis set group =>   1
Atom   5C    basis set group =>   1
Atom   6C    basis set group =>   1
Atom   7O    basis set group =>   2
Atom   8C    basis set group =>   1
Atom   9O    basis set group =>   2
Atom  10H    basis set group =>   3
Atom  11H    basis set group =>   3
Atom  12H    basis set group =>   3
Atom  13H    basis set group =>   3
Atom  14H    basis set group =>   3
Atom  15H    basis set group =>   3
Atom  16H    basis set group =>   3
Atom  17H    basis set group =>   3
Atom  18H    basis set group =>   3
Atom  19H    basis set group =>   3

Checking for AutoStart:
The File: sp_solv.gbw exists
Trying to determine its content:
     ... Fine, the file contains calculation information
     ... Fine, the calculation information was read
     ... Fine, the file contains a basis set
     ... Fine, the basis set was read
     ... Fine, the file contains a geometry
     ... Fine, the geometry was read
     ... Fine, the file contains a set of orbitals
     ... Fine, the orbitals can be read
     => possible old guess file was deleted
     => GBW file was renamed to GES file
     => GES file is set as startup file
     => Guess is set to MORead
     ... now leaving AutoStart

------------------------------------------------------------------------------
                             ORCA STARTUP CALCULATIONS
                           -- RI-GTO INTEGRALS CHOSEN --
------------------------------------------------------------------------------
------------------------------------------------------------------------------
                   ___                                                        
                  /   \      - P O W E R E D   B Y -                         
                 /     \                                                     
                 |  |  |   _    _      __       _____    __    __             
                 |  |  |  | |  | |    /  \     |  _  \  |  |  /  |          
                  \  \/   | |  | |   /    \    | | | |  |  | /  /          
                 / \  \   | |__| |  /  /\  \   | |_| |  |  |/  /          
                |  |  |   |  __  | /  /__\  \  |    /   |      \           
                |  |  |   | |  | | |   __   |  |    \   |  |\   \          
                \     /   | |  | | |  |  |  |  | |\  \  |  | \   \       
                 \___/    |_|  |_| |__|  |__|  |_| \__\ |__|  \__/        
                                                                              
                      - O R C A' S   B I G   F R I E N D -                    
                                      &                                       
                       - I N T E G R A L  F E E D E R -                       
                                                                              
 v1 FN, 2020, v2 2021, v3 2022-2024                                           
------------------------------------------------------------------------------


----------------------
SHARK INTEGRAL PACKAGE
----------------------

Number of atoms                             ...     20
Number of basis functions                   ...    250
Number of shells                            ...    122
Maximum angular momentum                    ...      2
Integral batch strategy                     ... SHARK/LIBINT Hybrid
RI-J (if used) integral strategy            ... SPLIT-RIJ (Revised 2003 algorithm where possible)
Printlevel                                  ...      1
Contraction scheme used                     ... SEGMENTED contraction
Prescreening option                         ... SCHWARTZ
   Thresh                                   ... 1.000e-10
   Tcut                                     ... 1.000e-11
   Tpresel                                  ... 1.000e-11 
Coulomb Range Separation                    ... NOT USED
Exchange Range Separation                   ... NOT USED
Multipole approximations                    ... NOT USED
Finite Nucleus Model                        ... NOT USED
CABS basis                                  ... NOT available
Auxiliary Coulomb fitting basis             ... AVAILABLE
   # of basis functions in Aux-J            ...    600
   # of shells in Aux-J                     ...    200
   Maximum angular momentum in Aux-J        ...      4
Auxiliary J/K fitting basis                 ... NOT available
Auxiliary Correlation fitting basis         ... NOT available
Auxiliary 'external' fitting basis          ... NOT available

Checking pre-screening integrals            ... done (  0.0 sec) Dimension = 122
Check shell pair data                       ... done (  0.0 sec)
Shell pair information
Shell pair cut-off parameter TPreSel        ...   1.0e-11
Total number of shell pairs                 ...      7503
Shell pairs after pre-screening             ...      6469
Total number of primitive shell pairs       ...     27278
Primitive shell pairs kept                  ...     16316
          la=0 lb=0:   2074 shell pairs
          la=1 lb=0:   2433 shell pairs
          la=1 lb=1:    733 shell pairs
          la=2 lb=0:    727 shell pairs
          la=2 lb=1:    429 shell pairs
          la=2 lb=2:     73 shell pairs

Calculating one electron integrals          ... done (  0.0 sec)
Calculating RI/J V-Matrix + Cholesky decomp.... done (  0.1 sec)
Calculating Nuclear repulsion               ... done (  0.0 sec) ENN=    519.202138727535 Eh

Diagonalization of the overlap matrix:
Smallest eigenvalue                        ... 2.021e-05
Time for diagonalization                   ...    0.006 sec
Threshold for overlap eigenvalues          ... 1.000e-07
Number of eigenvalues below threshold      ... 0
Time for construction of square roots      ...    0.019 sec
Total time needed                          ...    0.035 sec

-------------------
DFT GRID GENERATION
-------------------

General Integration Accuracy     IntAcc      ... 4.388
Radial Grid Type                 RadialGrid  ... OptM3 with GC (2021)
Angular Grid (max. ang.)         AngularGrid ... 4 (Lebedev-302)
Angular grid pruning method      GridPruning ... 4 (adaptive)
Weight generation scheme         WeightScheme... mBecke (2022)
Basis function cutoff            BFCut       ... 1.0000e-10
Integration weight cutoff        WCut        ... 1.0000e-14
Partially contracted basis set               ... off
Rotationally invariant grid construction     ... off
Angular grids for H and He will be reduced by one unit
Diffuse basis detected: some atoms will have their outermost
                        angular grid increased by 1.

Total number of grid points                  ...    92790
Total number of batches                      ...     1461
Average number of points per batch           ...       63
Average number of grid points per atom       ...     4640
Initializing property integral containers    ... done (  0.0 sec)

SHARK setup successfully completed in   1.3 seconds

Maximum memory used throughout the entire STARTUP-calculation: 42.6 MB
-------------------------------------------------------------------------------
                                 ORCA GUESS
                   Start orbitals & Density for SCF / CASSCF
-------------------------------------------------------------------------------

------------
SCF SETTINGS
------------
Hamiltonian:
 Density Functional     Method          .... DFT(GTOs)
  Functional kind                       .... Exchange
  Functional name                       .... Re-regularized SCAN exchange by Furness et al
  Functional family                     .... MGGA
  Functional refs                              
    [ 0] J. W. Furness, A. D. Kaplan, J. Ning, J. P. Perdew, and J. Sun.,  J. Phys. Chem. Lett. 11, 8208-8215 (2020), doi: 10.1021/acs.jpclett.0c02405
    [ 1] J. W. Furness, A. D. Kaplan, J. Ning, J. P. Perdew, and J. Sun.,  J. Phys. Chem. Lett. 11, 9248-9248 (2020), doi: 10.1021/acs.jpclett.0c03077
  Functional external parameters        .... 6
    Parameter  0 _c1        =  6.670000e-01 : c1 parameter        
    Parameter  1 _c2        =  8.000000e-01 : c2 parameter        
    Parameter  2 _d         =  1.240000e+00 : d parameter         
    Parameter  3 _k1        =  6.500000e-02 : k1 parameter        
    Parameter  4 _eta       =  1.000000e-03 : eta parameter       
    Parameter  5 _dp2       =  3.610000e-01 : dp2 parameter       
  Functional kind                       .... Correlation
  Functional name                       .... Re-regularized SCAN correlation by Furness et al
  Functional family                     .... MGGA
  Functional refs                              
    [ 0] J. W. Furness, A. D. Kaplan, J. Ning, J. P. Perdew, and J. Sun.,  J. Phys. Chem. Lett. 11, 8208-8215 (2020), doi: 10.1021/acs.jpclett.0c02405
    [ 1] J. W. Furness, A. D. Kaplan, J. Ning, J. P. Perdew, and J. Sun.,  J. Phys. Chem. Lett. 11, 9248-9248 (2020), doi: 10.1021/acs.jpclett.0c03077
  Functional external parameters        .... 1
    Parameter  0 _eta       =  1.000000e-03 : Regularization parameter
 Gradients option       PostSCFGGA      .... off
 RI-approximation to the Coulomb term is turned on
   Number of AuxJ basis functions       .... 600


General Settings:
 Integral files         IntName         .... sp_solv
 Hartree-Fock type      HFTyp           .... RHF
 Total Charge           Charge          ....    0
 Multiplicity           Mult            ....    1
 Number of Electrons    NEL             ....   74
 Basis Dimension        Dim             ....  250
 Nuclear Repulsion      ENuc            ....    519.2021387275 Eh

Convergence Acceleration:
 AO-DIIS                CNVDIIS         .... on
   Start iteration      DIISMaxIt       ....    12
   Startup error        DIISStart       ....  0.200000
   # of expansion vecs  DIISMaxEq       ....     5
   Bias factor          DIISBfac        ....   1.050
   Max. coefficient     DIISMaxC        ....  10.000
 MO-DIIS                CNVKDIIS        .... off
 Trust-Rad. Augm. Hess. CNVTRAH         .... auto
   Auto Start mean grad. ratio tolernc. ....  1.125000
   Auto Start start iteration           ....     1
   Auto Start num. interpolation iter.  ....    10
   Max. Number of Micro iterations      ....    24
   Max. Number of Macro iterations      .... Maxiter - #DIIS iter
   Number of Davidson start vectors     ....     2
   Converg. threshold    (grad. norm)   ....   3.330e-04
   Grad. Scal. Fac. for Micro threshold ....   0.100
   Minimum threshold for Micro iter.    ....   1.000e-02
   NR start threshold (gradient norm)   ....   1.000e-04
   Initial trust radius                 ....   0.400
   Minimum AH scaling param. (alpha)    ....   1.000
   Maximum AH scaling param. (alpha)    .... 1000.000
   Quad. conv. algorithm                .... NR
   White noise on init. David. guess    .... on
   Maximum white noise                  ....   0.010
   Pseudo random numbers                .... off
   Inactive MOs                         .... canonical
   Orbital update algorithm             .... Taylor
   Preconditioner                       .... Diag
   Full preconditioner red. dimension   ....   250
   COSX micro iterations for RIJONX calc.... off
 SOSCF                  CNVSOSCF        .... on
   Start iteration      SOSCFMaxIt      ....   150
   Startup grad/error   SOSCFStart      ....  0.003300
   Hessian update       SOSCFHessUp     .... L-BFGS
 Level Shifting         CNVShift        .... on
   Level shift para.    LevelShift      ....    0.2500
   Turn off err/grad.   ShiftErr        ....    0.0010
 Zerner damping         CNVZerner       .... off
 Static damping         CNVDamp         .... on
   Fraction old density DampFac         ....    0.7000
   Max. Damping (<1)    DampMax         ....    0.9800
   Min. Damping (>=0)   DampMin         ....    0.0000
   Turn off err/grad.   DampErr         ....    0.1000

SCF Procedure:
 Maximum # iterations   MaxIter         ....   125
 SCF integral mode      SCFMode         .... Direct
   Integral package                     .... SHARK and LIBINT hybrid scheme
 Reset frequency        DirectResetFreq ....    20
 Integral Threshold     Thresh          ....  1.000e-10 Eh
 Primitive CutOff       TCut            ....  1.000e-11 Eh

Convergence Tolerance:
 Convergence Check Mode ConvCheckMode   .... Total+1el-Energy
 Convergence forced     ConvForced      .... 0
 Energy Change          TolE            ....  1.000e-06 Eh
 1-El. energy change                    ....  1.000e-03 Eh
 Orbital Gradient       TolG            ....  3.330e-04
 Orbital Rotation angle TolX            ....  3.330e-04
 DIIS Error             TolErr          ....  1.000e-06

---------------------
INITIAL GUESS: MOREAD
---------------------
Guess MOs are being read from file: sp_solv.ges
Input Geometry matches current geometry (good)
Atom 0: N(Shells)= 9 and 6 - projection required
Input basis set needs projection
NBasis(read)= 160
NBasis(calc)= 250
Basis set overlap was calculated
Using GuessMode=FMatrix for the initial guess
C*T matrix was formed
Effective Fockian was calculated
Effective Fockian was diagonalized
Initial density was built
                      ------------------
                      INITIAL GUESS DONE (   0.1 sec)
                      ------------------
             **** ENERGY FILE WAS UPDATED (sp_solv.en.tmp) ****
Finished Guess after   0.3 sec
Maximum memory used throughout the entire GUESS-calculation: 18.3 MB

-------------------------------------------------------------------------------------------
                                      ORCA LEAN-SCF
                              memory conserving SCF solver
-------------------------------------------------------------------------------------------

--------------------
CPCM SOLVATION MODEL
--------------------
CPCM parameters:
  Epsilon                                         ...      78.3550
  Refrac                                          ...       1.3328
  Rsolv                                           ...       1.3000
  Surface type                                    ... GAUSSIAN VDW
  Discretization scheme                           ... Constant charge density
    Threshold for H atoms                         ...       5.0000 (charges/Ang^2)
    Threshold for non-H atoms                     ...       5.0000 (charges/Ang^2)
  Epsilon function type                           ...         CPCM
Solvent:                                          ... WATER
SMD-CDS solvent descriptors:
  Soln                                            ...       1.3328
  Soln25                                          ...       1.3323
  Sola                                            ...       0.0000
  Solb                                            ...       0.0000
  Solg                                            ...       0.0000
  Solc                                            ...       0.0000
  Solh                                            ...       0.0000
Radii:
  Scheme                                          ... Element-dependent radii
  Radius for C  used is    3.4960 Bohr (=   1.8500 Ang.)
  Radius for O  used is    2.8724 Bohr (=   1.5200 Ang.)
  Radius for H  used is    2.2677 Bohr (=   1.2000 Ang.)
Calculating surface                               ...        done! (  0.0s)
Cavity surface points                             ...         1486
Cavity Volume                                     ...     965.7395
Cavity Surface-area                               ...     604.7736
Calculating surface distance matrix               ...        done! (  0.0s)
Performing Cholesky decomposition & store         ...        done! (  0.1s)
Overall time for CPCM initialization              ...                 0.1s

----------------------------------------D-I-I-S--------------------------------------------
Iteration    Energy (Eh)           Delta-E    RMSDP     MaxDP     DIISErr   Damp  Time(sec)
-------------------------------------------------------------------------------------------
               ***  Starting incremental Fock matrix formation  ***
    1    -460.9941772235920325     0.00e+00  1.92e-02  8.06e-01  6.24e-01  0.700   3.9
    2    -461.0622767392161450    -6.81e-02  1.41e-02  5.67e-01  4.38e-01  0.700   3.5
    3    -461.1104924301920391    -4.82e-02  9.95e-03  3.90e-01  3.07e-01  0.700   3.4
    4    -461.1443735827548380    -3.39e-02  6.97e-03  2.69e-01  2.15e-01  0.700   3.4
                               ***Turning on AO-DIIS***
    5    -461.1681544154433823    -2.38e-02  4.87e-03  1.86e-01  1.51e-01  0.700   3.3
    6    -461.1848314143187508    -1.67e-02  3.41e-03  1.29e-01  1.05e-01  0.700   3.3
    7    -461.1965285317353391    -1.17e-02  2.38e-03  8.99e-02  7.38e-02  0.700   3.2
    8    -461.2047268216422253    -8.20e-03  5.56e-03  2.09e-01  5.17e-02  0.000   3.2
                              *** Initializing SOSCF ***
---------------------------------------S-O-S-C-F--------------------------------------
Iteration    Energy (Eh)           Delta-E    RMSDP     MaxDP     MaxGrad    Time(sec)
--------------------------------------------------------------------------------------
    9    -461.2238909428696161    -1.92e-02  2.14e-05  4.48e-04  2.42e-04     3.3
               *** Restarting incremental Fock matrix formation ***
   10    -461.2238911556072480    -2.13e-07  2.09e-05  8.88e-04  1.19e-04     3.9
   11    -461.2238907131829819     4.42e-07  7.55e-06  1.89e-04  2.31e-04     2.8
                 **** Energy Check signals convergence ****

               *****************************************************
               *                     SUCCESS                       *
               *           SCF CONVERGED AFTER  11 CYCLES          *
               *****************************************************


SMD CDS free energy correction energy :                 4.97938     Kcal/mol
Total Energy after SMD CDS correction =              -461.215955568 Eh
             **** ENERGY FILE WAS UPDATED (sp_solv.en.tmp) ****

----------------
TOTAL SCF ENERGY
----------------

Total Energy       :       -461.21595556799616 Eh          -12550.32420 eV

Components:
Nuclear Repulsion  :        519.20213872753504 Eh           14128.20846 eV
Electronic Energy  :       -980.40862726547289 Eh          -26678.27505 eV
One Electron Energy:      -1655.85369400093941 Eh          -45058.06972 eV
Two Electron Energy:        675.44506673546653 Eh           18379.79468 eV
CPCM Dielectric    :         -0.01740217524517 Eh              -0.47354 eV
SMD CDS (Gcds)     :          0.00793514518684 Eh               0.21593 eV

Virial components:
Potential Energy   :       -920.57867910867435 Eh          -25050.21939 eV
Kinetic Energy     :        459.36272354067819 Eh           12499.89519 eV
Virial Ratio       :          2.00403435440524

DFT components:
N(Alpha)           :       36.999987886439 electrons
N(Beta)            :       36.999987886439 electrons
N(Total)           :       73.999975772878 electrons
E(X)               :      -61.819821482735 Eh       
E(C)               :       -2.403342180674 Eh       
E(XC)              :      -64.223163663409 Eh       

CPCM Solvation Model Properties:
Surface-charge          :         -0.04775513924504
Corrected charge        :          0.00000000000000
Outlying charge corr.   :          0.00016804587670 Eh               0.00457 eV
Free-energy (cav+disp)  :          0.00793514518684 Eh               0.21593 eV

---------------
SCF CONVERGENCE
---------------

  Last Energy change         ...   -4.4242e-07  Tolerance :   1.0000e-06
  Last MAX-Density change    ...    1.8869e-04  Tolerance :   1.0000e-05
  Last RMS-Density change    ...    7.5499e-06  Tolerance :   1.0000e-06
  Last DIIS Error            ...    2.4241e-04  Tolerance :   1.0000e-06
  Last Orbital Gradient      ...    2.3128e-04  Tolerance :   3.3300e-04
  Last Orbital Rotation      ...    4.2881e-04  Tolerance :   3.3300e-04


----------------
ORBITAL ENERGIES
----------------

  NO   OCC          E(Eh)            E(eV) 
   0   2.0000     -18.991815      -516.7936 
   1   2.0000     -18.981632      -516.5165 
   2   2.0000     -10.094994      -274.6988 
   3   2.0000     -10.091630      -274.6072 
   4   2.0000     -10.074276      -274.1350 
   5   2.0000     -10.037633      -273.1379 
   6   2.0000     -10.029392      -272.9136 
   7   2.0000     -10.028572      -272.8913 
   8   2.0000     -10.024109      -272.7699 
   9   2.0000     -10.016684      -272.5678 
  10   2.0000      -1.042791       -28.3758 
  11   2.0000      -1.016236       -27.6532 
  12   2.0000      -0.824460       -22.4347 
  13   2.0000      -0.737368       -20.0648 
  14   2.0000      -0.721391       -19.6301 
  15   2.0000      -0.669543       -18.2192 
  16   2.0000      -0.643459       -17.5094 
  17   2.0000      -0.574065       -15.6211 
  18   2.0000      -0.556904       -15.1541 
  19   2.0000      -0.519954       -14.1487 
  20   2.0000      -0.482741       -13.1361 
  21   2.0000      -0.455475       -12.3941 
  22   2.0000      -0.435713       -11.8563 
  23   2.0000      -0.414698       -11.2845 
  24   2.0000      -0.407374       -11.0852 
  25   2.0000      -0.390325       -10.6213 
  26   2.0000      -0.389821       -10.6076 
  27   2.0000      -0.373673       -10.1682 
  28   2.0000      -0.369153       -10.0452 
  29   2.0000      -0.340493        -9.2653 
  30   2.0000      -0.335766        -9.1367 
  31   2.0000      -0.312088        -8.4923 
  32   2.0000      -0.310524        -8.4498 
  33   2.0000      -0.301785        -8.2120 
  34   2.0000      -0.288389        -7.8475 
  35   2.0000      -0.222000        -6.0409 
  36   2.0000      -0.189584        -5.1589 
  37   0.0000      -0.026352        -0.7171 
  38   0.0000      -0.010030        -0.2729 
  39   0.0000       0.045337         1.2337 
  40   0.0000       0.088804         2.4165 
  41   0.0000       0.111099         3.0232 
  42   0.0000       0.116254         3.1634 
  43   0.0000       0.121351         3.3021 
  44   0.0000       0.129391         3.5209 
  45   0.0000       0.134328         3.6552 
  46   0.0000       0.149825         4.0769 
  47   0.0000       0.158102         4.3022 
*Only the first 10 virtual orbitals were printed.

                    ********************************
                    * MULLIKEN POPULATION ANALYSIS *
                    ********************************

-----------------------
MULLIKEN ATOMIC CHARGES
-----------------------
   0 C :   -0.559843
   1 C :    0.129567
   2 C :   -0.268162
   3 C :   -0.332933
   4 C :    0.194148
   5 C :    0.194298
   6 C :   -0.285335
   7 O :   -0.239547
   8 C :   -0.335715
   9 O :   -0.442912
  10 H :    0.175138
  11 H :    0.169430
  12 H :    0.174782
  13 H :    0.178585
  14 H :    0.183799
  15 H :    0.182512
  16 H :    0.174379
  17 H :    0.171591
  18 H :    0.171604
  19 H :    0.364614
Sum of atomic charges:    0.0000000

--------------------------------
MULLIKEN REDUCED ORBITAL CHARGES
--------------------------------
  0 C s       :     3.387299  s :     3.387299
      pz      :     1.102452  p :     3.145335
      px      :     0.981357
      py      :     1.061525
      dz2     :     0.004851  d :     0.027209
      dxz     :     0.002252
      dyz     :     0.007789
      dx2y2   :     0.004337
      dxy     :     0.007980

  1 C s       :     3.101443  s :     3.101443
      pz      :     0.990464  p :     2.720327
      px      :     0.849548
      py      :     0.880314
      dz2     :     0.003510  d :     0.048663
      dxz     :     0.006639
      dyz     :     0.007575
      dx2y2   :     0.015611
      dxy     :     0.015327

  2 C s       :     3.221424  s :     3.221424
      pz      :     1.035624  p :     3.008745
      px      :     1.031870
      py      :     0.941251
      dz2     :     0.003229  d :     0.037992
      dxz     :     0.003467
      dyz     :     0.006371
      dx2y2   :     0.012012
      dxy     :     0.012913

  3 C s       :     3.271645  s :     3.271645
      pz      :     1.048710  p :     3.024938
      px      :     0.944337
      py      :     1.031891
      dz2     :     0.003350  d :     0.036350
      dxz     :     0.007615
      dyz     :     0.002391
      dx2y2   :     0.012389
      dxy     :     0.010606

  4 C s       :     3.162491  s :     3.162491
      pz      :     1.009166  p :     2.571576
      px      :     0.793921
      py      :     0.768489
      dz2     :     0.004905  d :     0.071785
      dxz     :     0.014225
      dyz     :     0.009386
      dx2y2   :     0.022534
      dxy     :     0.020734

  5 C s       :     3.131857  s :     3.131857
      pz      :     1.018670  p :     2.604079
      px      :     0.747562
      py      :     0.837847
      dz2     :     0.004807  d :     0.069766
      dxz     :     0.015263
      dyz     :     0.007601
      dx2y2   :     0.023893
      dxy     :     0.018203

  6 C s       :     3.263693  s :     3.263693
      pz      :     1.072253  p :     2.985676
      px      :     0.885613
      py      :     1.027810
      dz2     :     0.003390  d :     0.035966
      dxz     :     0.007171
      dyz     :     0.002394
      dx2y2   :     0.011631
      dxy     :     0.011380

  7 O s       :     3.719381  s :     3.719381
      pz      :     1.824736  p :     4.473074
      px      :     1.369338
      py      :     1.279000
      dz2     :     0.005709  d :     0.047093
      dxz     :     0.003883
      dyz     :     0.006963
      dx2y2   :     0.018995
      dxy     :     0.011541

  8 C s       :     3.351290  s :     3.351290
      pz      :     1.106206  p :     2.938256
      px      :     1.137145
      py      :     0.694905
      dz2     :     0.007124  d :     0.046169
      dxz     :     0.002996
      dyz     :     0.014112
      dx2y2   :     0.014267
      dxy     :     0.007670

  9 O s       :     3.751979  s :     3.751979
      pz      :     1.851699  p :     4.662733
      px      :     1.209314
      py      :     1.601720
      dz2     :     0.004242  d :     0.028199
      dxz     :     0.003022
      dyz     :     0.003986
      dx2y2   :     0.007980
      dxy     :     0.008968

 10 H s       :     0.806463  s :     0.806463
      pz      :     0.008553  p :     0.018399
      px      :     0.003539
      py      :     0.006306

 11 H s       :     0.812324  s :     0.812324
      pz      :     0.003679  p :     0.018246
      px      :     0.008777
      py      :     0.005790

 12 H s       :     0.806819  s :     0.806819
      pz      :     0.008492  p :     0.018399
      px      :     0.003534
      py      :     0.006373

 13 H s       :     0.801660  s :     0.801660
      pz      :     0.004336  p :     0.019755
      px      :     0.010523
      py      :     0.004896

 14 H s       :     0.796397  s :     0.796397
      pz      :     0.004278  p :     0.019804
      px      :     0.003019
      py      :     0.012507

 15 H s       :     0.797138  s :     0.797138
      pz      :     0.004469  p :     0.020350
      px      :     0.003154
      py      :     0.012727

 16 H s       :     0.807908  s :     0.807908
      pz      :     0.003668  p :     0.017713
      px      :     0.011699
      py      :     0.002347

 17 H s       :     0.810777  s :     0.810777
      pz      :     0.008958  p :     0.017632
      px      :     0.004771
      py      :     0.003903

 18 H s       :     0.810762  s :     0.810762
      pz      :     0.008974  p :     0.017634
      px      :     0.004787
      py      :     0.003873

 19 H s       :     0.592477  s :     0.592477
      pz      :     0.011275  p :     0.042909
      px      :     0.017782
      py      :     0.013852


------------------------
MULLIKEN OVERLAP CHARGES
------------------------
B(  0-C ,  1-C ) :   0.3365 B(  0-C ,  2-C ) :  -0.0908 B(  0-C ,  6-C ) :  -0.0755 
B(  0-C , 10-H ) :   0.8421 B(  0-C , 11-H ) :   0.8613 B(  0-C , 12-H ) :   0.8423 
B(  1-C ,  2-C ) :   0.9390 B(  1-C ,  3-C ) :  -0.1631 B(  1-C ,  4-C ) :  -0.1201 
B(  1-C ,  6-C ) :   0.7068 B(  1-C , 10-H ) :  -0.0905 B(  1-C , 11-H ) :  -0.1355 
B(  1-C , 12-H ) :  -0.0915 B(  1-C , 13-H ) :  -0.0725 B(  1-C , 15-H ) :  -0.0617 
B(  2-C ,  3-C ) :   0.7169 B(  2-C ,  4-C ) :  -0.1130 B(  2-C ,  5-C ) :  -0.1098 
B(  2-C ,  6-C ) :  -0.1148 B(  2-C , 13-H ) :   0.8167 B(  2-C , 14-H ) :  -0.0524 
B(  3-C ,  4-C ) :   0.6507 B(  3-C ,  6-C ) :  -0.1339 B(  3-C , 14-H ) :   0.8477 
B(  4-C ,  5-C ) :   0.7809 B(  4-C ,  6-C ) :  -0.1790 B(  4-C ,  7-O ) :  -0.1221 
B(  4-C ,  9-O ) :   0.4601 B(  4-C , 14-H ) :  -0.0958 B(  4-C , 19-H ) :  -0.0947 
B(  5-C ,  6-C ) :   0.4040 B(  5-C ,  7-O ) :   0.5544 B(  5-C ,  8-C ) :  -0.2709 
B(  5-C ,  9-O ) :  -0.1640 B(  6-C ,  7-O ) :  -0.1804 B(  6-C , 15-H ) :   0.7834 
B(  7-O ,  8-C ) :   0.3828 B(  7-O , 16-H ) :  -0.0813 B(  7-O , 17-H ) :  -0.0739 
B(  7-O , 18-H ) :  -0.0737 B(  7-O , 19-H ) :   0.0509 B(  8-C , 16-H ) :   0.7840 
B(  8-C , 17-H ) :   0.8163 B(  8-C , 18-H ) :   0.8161 B(  9-O , 19-H ) :   0.6136 
B( 10-H , 12-H ) :  -0.0507 B( 17-H , 18-H ) :  -0.0702 


                     *******************************
                     * LOEWDIN POPULATION ANALYSIS *
                     *******************************

----------------------
LOEWDIN ATOMIC CHARGES
----------------------
   0 C :   -0.394410
   1 C :   -0.117499
   2 C :   -0.190894
   3 C :   -0.154629
   4 C :    0.185704
   5 C :    0.188606
   6 C :   -0.161528
   7 O :   -0.716414
   8 C :   -0.044776
   9 O :   -0.500943
  10 H :    0.168049
  11 H :    0.164446
  12 H :    0.168001
  13 H :    0.178569
  14 H :    0.188298
  15 H :    0.192554
  16 H :    0.188157
  17 H :    0.175001
  18 H :    0.175068
  19 H :    0.308640

-------------------------------
LOEWDIN REDUCED ORBITAL CHARGES
-------------------------------
  0 C s       :     2.954822  s :     2.954822
      pz      :     1.160507  p :     3.376452
      px      :     1.087638
      py      :     1.128307
      dz2     :     0.011812  d :     0.063137
      dxz     :     0.003807
      dyz     :     0.019332
      dx2y2   :     0.009251
      dxy     :     0.018935

  1 C s       :     2.865047  s :     2.865047
      pz      :     0.977402  p :     3.151768
      px      :     1.072692
      py      :     1.101674
      dz2     :     0.006356  d :     0.100685
      dxz     :     0.011489
      dyz     :     0.013229
      dx2y2   :     0.034770
      dxy     :     0.034840

  2 C s       :     2.895280  s :     2.895280
      pz      :     1.026629  p :     3.212255
      px      :     1.101029
      py      :     1.084597
      dz2     :     0.005545  d :     0.083359
      dxz     :     0.005767
      dyz     :     0.011889
      dx2y2   :     0.029012
      dxy     :     0.031146

  3 C s       :     2.891714  s :     2.891714
      pz      :     1.024122  p :     3.183881
      px      :     1.055606
      py      :     1.104152
      dz2     :     0.005523  d :     0.079035
      dxz     :     0.014104
      dyz     :     0.003573
      dx2y2   :     0.029894
      dxy     :     0.025941

  4 C s       :     2.775112  s :     2.775112
      pz      :     0.948275  p :     2.883651
      px      :     0.945478
      py      :     0.989898
      dz2     :     0.010586  d :     0.155533
      dxz     :     0.027329
      dyz     :     0.017172
      dx2y2   :     0.051243
      dxy     :     0.049203

  5 C s       :     2.773181  s :     2.773181
      pz      :     0.953472  p :     2.885515
      px      :     0.923307
      py      :     1.008735
      dz2     :     0.010534  d :     0.152698
      dxz     :     0.028986
      dyz     :     0.014064
      dx2y2   :     0.056203
      dxy     :     0.042912

  6 C s       :     2.883667  s :     2.883667
      pz      :     1.050330  p :     3.199186
      px      :     1.045046
      py      :     1.103810
      dz2     :     0.005689  d :     0.078675
      dxz     :     0.013303
      dyz     :     0.003641
      dx2y2   :     0.029058
      dxy     :     0.026983

  7 O s       :     3.468515  s :     3.468515
      pz      :     1.805456  p :     4.741905
      px      :     1.507141
      py      :     1.429308
      dz2     :     0.049559  d :     0.505995
      dxz     :     0.063408
      dyz     :     0.092200
      dx2y2   :     0.148268
      dxy     :     0.152560

  8 C s       :     2.901171  s :     2.901171
      pz      :     1.109901  p :     3.033749
      px      :     1.113105
      py      :     0.810743
      dz2     :     0.016843  d :     0.109855
      dxz     :     0.007178
      dyz     :     0.033007
      dx2y2   :     0.035299
      dxy     :     0.017528

  9 O s       :     3.481312  s :     3.481312
      pz      :     1.817532  p :     4.761649
      px      :     1.327770
      py      :     1.616348
      dz2     :     0.029464  d :     0.257982
      dxz     :     0.052428
      dyz     :     0.020363
      dx2y2   :     0.074004
      dxy     :     0.081722

 10 H s       :     0.787876  s :     0.787876
      pz      :     0.021331  p :     0.044074
      px      :     0.007780
      py      :     0.014963

 11 H s       :     0.791762  s :     0.791762
      pz      :     0.008226  p :     0.043792
      px      :     0.021403
      py      :     0.014163

 12 H s       :     0.787929  s :     0.787929
      pz      :     0.021163  p :     0.044070
      px      :     0.007769
      py      :     0.015139

 13 H s       :     0.775591  s :     0.775591
      pz      :     0.009821  p :     0.045840
      px      :     0.024746
      py      :     0.011274

 14 H s       :     0.765673  s :     0.765673
      pz      :     0.009772  p :     0.046029
      px      :     0.006492
      py      :     0.029765

 15 H s       :     0.760207  s :     0.760207
      pz      :     0.010308  p :     0.047238
      px      :     0.006766
      py      :     0.030164

 16 H s       :     0.771645  s :     0.771645
      pz      :     0.007731  p :     0.040198
      px      :     0.028033
      py      :     0.004434

 17 H s       :     0.783747  s :     0.783747
      pz      :     0.021911  p :     0.041251
      px      :     0.010954
      py      :     0.008386

 18 H s       :     0.783676  s :     0.783676
      pz      :     0.021938  p :     0.041256
      px      :     0.010995
      py      :     0.008323

 19 H s       :     0.568991  s :     0.568991
      pz      :     0.029400  p :     0.122370
      px      :     0.050592
      py      :     0.042378


---------------------------------
LOEWDIN BOND ORDERS (THRESH 0.050000)
---------------------------------
B(  0-C ,  1-C ) :   1.1124 B(  0-C ,  2-C ) :   0.0896 B(  0-C ,  6-C ) :   0.0890 
B(  0-C , 10-H ) :   0.9110 B(  0-C , 11-H ) :   0.9177 B(  0-C , 12-H ) :   0.9112 
B(  1-C ,  2-C ) :   1.4633 B(  1-C ,  3-C ) :   0.0935 B(  1-C ,  4-C ) :   0.1042 
B(  1-C ,  5-C ) :   0.0978 B(  1-C ,  6-C ) :   1.4076 B(  1-C , 13-H ) :   0.0527 
B(  1-C , 15-H ) :   0.0505 B(  2-C ,  3-C ) :   1.4748 B(  2-C ,  4-C ) :   0.0978 
B(  2-C ,  5-C ) :   0.1004 B(  2-C ,  6-C ) :   0.0873 B(  2-C , 13-H ) :   0.8638 
B(  2-C , 14-H ) :   0.0530 B(  3-C ,  4-C ) :   1.3600 B(  3-C ,  5-C ) :   0.0907 
B(  3-C ,  6-C ) :   0.1139 B(  3-C ,  9-O ) :   0.2309 B(  3-C , 13-H ) :   0.0543 
B(  3-C , 14-H ) :   0.8561 B(  4-C ,  5-C ) :   1.1335 B(  4-C ,  6-C ) :   0.0888 
B(  4-C ,  7-O ) :   0.1907 B(  4-C ,  9-O ) :   1.4773 B(  4-C , 14-H ) :   0.0565 
B(  5-C ,  6-C ) :   1.3584 B(  5-C ,  7-O ) :   1.4168 B(  5-C ,  8-C ) :   0.0791 
B(  5-C ,  9-O ) :   0.1855 B(  5-C , 15-H ) :   0.0528 B(  6-C ,  7-O ) :   0.2090 
B(  6-C , 15-H ) :   0.8434 B(  7-O ,  8-C ) :   1.4031 B(  7-O ,  9-O ) :   0.1024 
B(  7-O , 16-H ) :   0.1041 B(  7-O , 17-H ) :   0.1057 B(  7-O , 18-H ) :   0.1057 
B(  8-C , 16-H ) :   0.8546 B(  8-C , 17-H ) :   0.8537 B(  8-C , 18-H ) :   0.8536 
B(  9-O , 19-H ) :   0.9124 

------------------------------------------
LOEWDIN REDUCED ORBITAL POPULATIONS PER MO
-------------------------------------------
THRESHOLD FOR PRINTING IS 0.1%%
                      0         1         2         3         4         5   
                 -18.99182 -18.98163 -10.09499 -10.09163 -10.07428 -10.03763
                   2.00000   2.00000   2.00000   2.00000   2.00000   2.00000
                  --------  --------  --------  --------  --------  --------
 1 C  s               0.0       0.0       0.0       0.0       0.0      99.4
 2 C  py              0.0       0.0       0.0       0.0       0.0       0.1
 3 C  px              0.0       0.0       0.0       0.1       0.0       0.0
 4 C  s               0.0       0.0       0.3      98.9       0.0       0.0
 4 C  py              0.0       0.0       0.1       0.0       0.0       0.0
 5 C  s               0.0       0.0      98.9       0.4       0.0       0.0
 5 C  py              0.0       0.0       0.0       0.1       0.0       0.0
 6 C  px              0.0       0.0       0.1       0.0       0.0       0.1
 7 O  s              99.9       0.0       0.0       0.0       0.0       0.0
 7 O  px              0.0       0.0       0.1       0.0       0.0       0.0
 7 O  py              0.0       0.0       0.0       0.0       0.1       0.0
 7 O  dx2y2           0.0       0.0       0.1       0.0       0.2       0.0
 7 O  dxy             0.0       0.0       0.1       0.0       0.0       0.0
 8 C  s               0.0       0.0       0.0       0.0      99.4       0.0
 9 O  s               0.0      99.9       0.0       0.0       0.0       0.0
 9 O  dxy             0.0       0.0       0.0       0.2       0.0       0.0

                      6         7         8         9        10        11   
                 -10.02939 -10.02857 -10.02411 -10.01668  -1.04279  -1.01624
                   2.00000   2.00000   2.00000   2.00000   2.00000   2.00000
                  --------  --------  --------  --------  --------  --------
 0 C  s               0.0       0.0       0.0      99.7       0.0       0.0
 1 C  px              0.1       0.0       0.0       0.1       0.1       0.0
 1 C  py              0.0       0.0       0.1       0.0       0.0       0.0
 2 C  s               0.0       0.3      99.3       0.0       0.1       0.0
 3 C  s               0.0      99.3       0.3       0.0       0.4       0.4
 3 C  px              0.0       0.0       0.1       0.0       0.7       0.8
 4 C  s               0.0       0.0       0.0       0.0       5.4       5.0
 4 C  px              0.0       0.1       0.0       0.0       2.8       4.1
 4 C  py              0.0       0.0       0.0       0.0       0.2       3.9
 4 C  dz2             0.0       0.0       0.0       0.0       0.2       0.2
 4 C  dx2y2           0.0       0.0       0.0       0.0       0.0       0.1
 4 C  dxy             0.0       0.0       0.0       0.0       0.1       0.4
 5 C  s               0.0       0.0       0.0       0.0       8.0       1.0
 5 C  px              0.1       0.0       0.0       0.0       5.2       2.0
 5 C  py              0.0       0.0       0.0       0.0       0.2       3.2
 5 C  dz2             0.0       0.0       0.0       0.0       0.2       0.1
 5 C  dx2y2           0.0       0.0       0.0       0.0       0.1       0.2
 5 C  dxy             0.0       0.0       0.0       0.0       0.2       0.1
 6 C  s              99.5       0.0       0.0       0.0       0.7       0.1
 6 C  px              0.0       0.0       0.0       0.0       1.0       0.2
 6 C  py              0.0       0.0       0.0       0.0       0.2       0.0
 7 O  s               0.0       0.0       0.0       0.0      38.4      19.6
 7 O  px              0.0       0.0       0.0       0.0       1.3       0.4
 7 O  py              0.0       0.0       0.0       0.0       0.2       0.6
 7 O  dz2             0.0       0.0       0.0       0.0       0.4       0.0
 7 O  dxy             0.0       0.0       0.0       0.0       0.2       0.0
 8 C  s               0.0       0.0       0.0       0.0       4.4       2.6
 8 C  px              0.0       0.0       0.0       0.0       0.2       0.1
 8 C  py              0.0       0.0       0.0       0.0       4.7       2.5
 8 C  dz2             0.0       0.0       0.0       0.0       0.1       0.1
 8 C  dx2y2           0.0       0.0       0.0       0.0       0.3       0.2
 9 O  s               0.0       0.0       0.0       0.0      17.5      41.6
 9 O  px              0.0       0.0       0.0       0.0       0.1       0.1
 9 O  py              0.0       0.0       0.0       0.0       1.0       1.5
 9 O  dz2             0.0       0.0       0.0       0.0       0.2       0.1
16 H  s               0.0       0.0       0.0       0.0       0.3       0.2
17 H  s               0.0       0.0       0.0       0.0       0.3       0.2
18 H  s               0.0       0.0       0.0       0.0       0.3       0.2
19 H  s               0.0       0.0       0.0       0.0       3.1       6.2
19 H  px              0.0       0.0       0.0       0.0       0.5       1.1
19 H  py              0.0       0.0       0.0       0.0       0.2       0.5

                     12        13        14        15        16        17   
                  -0.82446  -0.73737  -0.72139  -0.66954  -0.64346  -0.57406
                   2.00000   2.00000   2.00000   2.00000   2.00000   2.00000
                  --------  --------  --------  --------  --------  --------
 0 C  s               2.8      13.8       0.5       7.9      16.4       0.0
 0 C  px              1.1       1.1       0.1       0.1       0.4       0.3
 0 C  py              0.5       0.5       0.1       0.1       0.6       0.5
 1 C  s              15.0      14.6       0.2       0.2       0.5       0.1
 1 C  px              1.1       1.9       1.2       8.2       3.4       2.1
 1 C  py              0.5       0.8       5.8       0.3       7.8       5.9
 1 C  dz2             0.2       0.1       0.0       0.0       0.0       0.0
 1 C  dx2y2           0.0       0.0       0.2       0.0       0.1       0.1
 1 C  dxy             0.0       0.0       0.0       0.1       0.1       0.0
 2 C  s              12.3       1.7      10.0       1.6       9.8       2.0
 2 C  px              1.8       1.5       1.2       0.4       0.1       1.7
 2 C  py              1.0       4.3       2.4       0.0       0.1       2.0
 2 C  dz2             0.1       0.0       0.1       0.0       0.0       0.0
 2 C  dx2y2           0.0       0.1       0.0       0.0       0.0       0.0
 3 C  s               9.9       3.4      16.3       0.2       0.2       5.8
 3 C  px              0.1       2.6       0.7       0.5       9.9       0.7
 3 C  py              2.6       0.1       0.3       0.0       0.2       4.0
 3 C  dz2             0.1       0.0       0.1       0.0       0.0       0.0
 3 C  dxy             0.0       0.1       0.0       0.0       0.3       0.0
 4 C  s               5.9       7.8       0.6       0.0       7.8       0.7
 4 C  px              4.4       1.5       4.1       0.2       0.5       1.6
 4 C  py              1.2       1.2       6.0       0.1       0.1      14.2
 4 C  dx2y2           0.0       0.0       0.2       0.0       0.0       0.1
 5 C  s               7.1       5.2       8.2       0.3       0.1       2.5
 5 C  px              4.8       0.1       0.8      10.1       0.1       0.4
 5 C  py              0.4       3.3       0.9       1.9       2.7       8.8
 5 C  dx2y2           0.0       0.0       0.0       0.1       0.2       0.2
 5 C  dxy             0.0       0.0       0.1       0.2       0.0       0.0
 6 C  s              11.9       1.1      10.0       9.4       0.5       5.6
 6 C  px              0.4       6.0       0.7       0.9       0.0       0.6
 6 C  py              2.6       0.3       0.2       0.2       0.2       3.3
 6 C  dz2             0.1       0.0       0.1       0.0       0.0       0.0
 6 C  dxy             0.0       0.1       0.0       0.0       0.0       0.0
 7 O  s               0.9       0.1       0.4       2.8       0.5       1.9
 7 O  px              0.9       2.0       4.4       1.5       0.3       0.1
 7 O  py              0.7       3.4       4.8      11.2       1.0       0.3
 7 O  dz2             0.1       0.0       0.0       0.6       0.1       0.5
 7 O  dx2y2           0.5       0.5       1.4       0.4       0.2       0.8
 7 O  dxy             0.1       0.3       0.0       0.0       0.3       1.2
 8 C  s               0.5       3.0       5.3      17.0       3.2       5.6
 8 C  px              0.1       0.0       0.3       0.0       0.0       0.3
 8 C  py              0.2       0.2       0.3       0.7       0.3       3.6
 8 C  dx2y2           0.0       0.0       0.0       0.0       0.0       0.1
 9 O  s               1.4       2.2       0.0       0.2       1.2       0.5
 9 O  px              0.9       2.5       0.8       0.0       8.6       1.2
 9 O  py              0.1       0.4       0.2       0.2       0.1       2.5
 9 O  dz2             0.1       0.3       0.0       0.0       0.1       0.0
 9 O  dx2y2           0.0       0.0       0.5       0.1       0.2       0.5
 9 O  dxy             0.3       0.6       0.0       0.0       0.7       0.3
10 H  s               0.3       2.1       0.1       1.6       4.2       0.0
10 H  pz              0.0       0.1       0.0       0.1       0.2       0.0
10 H  py              0.0       0.1       0.0       0.0       0.1       0.0
11 H  s               0.3       2.1       0.0       2.0       3.7       0.1
11 H  px              0.0       0.1       0.0       0.1       0.2       0.0
11 H  py              0.0       0.1       0.0       0.1       0.1       0.0
12 H  s               0.3       2.1       0.1       1.6       4.2       0.0
12 H  pz              0.0       0.1       0.0       0.1       0.2       0.0
12 H  py              0.0       0.1       0.0       0.1       0.1       0.0
13 H  s               1.1       0.3       1.6       0.5       2.2       0.9
13 H  px              0.1       0.0       0.1       0.0       0.2       0.0
14 H  s               0.9       0.5       2.7       0.1       0.1       4.1
14 H  py              0.1       0.0       0.3       0.0       0.0       0.3
15 H  s               1.1       0.3       1.6       2.2       0.0       3.5
15 H  py              0.1       0.0       0.2       0.2       0.0       0.3
16 H  s               0.1       0.7       1.3       4.2       1.0       2.6
16 H  px              0.0       0.1       0.1       0.4       0.1       0.2
17 H  s               0.0       0.5       0.8       4.1       0.8       2.3
17 H  pz              0.0       0.0       0.0       0.2       0.0       0.1
18 H  s               0.0       0.5       0.8       4.1       0.8       2.3
18 H  pz              0.0       0.0       0.0       0.2       0.0       0.1
19 H  s               0.3       0.8       0.2       0.0       2.1       0.4
19 H  px              0.1       0.1       0.0       0.0       0.1       0.0
19 H  py              0.1       0.1       0.0       0.0       0.2       0.0

                     18        19        20        21        22        23   
                  -0.55690  -0.51995  -0.48274  -0.45548  -0.43571  -0.41470
                   2.00000   2.00000   2.00000   2.00000   2.00000   2.00000
                  --------  --------  --------  --------  --------  --------
 0 C  s               4.6       0.1       0.6       0.0       0.0       0.4
 0 C  pz              0.0       0.0       0.0       0.0       0.3       0.0
 0 C  px              3.0       0.0       5.1       0.1       0.0       1.7
 0 C  py              1.3       0.7       0.1       1.7       0.0      13.3
 0 C  dz2             0.0       0.0       0.0       0.0       0.0       0.1
 1 C  s               7.2       0.0       1.6       2.0       0.0       0.7
 1 C  pz              0.0       0.0       0.0       0.0       0.7       0.0
 1 C  px              1.2       2.0       0.7       0.6       0.0       9.4
 1 C  py              0.2       1.5       5.9       2.4       0.0       0.3
 2 C  s               0.5       2.8       0.4       1.6       0.0       0.8
 2 C  pz              0.0       0.0       0.0       0.0       0.4       0.0
 2 C  px              0.2       6.4       1.0       2.4       0.0      17.0
 2 C  py             10.4       0.1       0.8      12.1       0.0       0.6
 2 C  dx2y2           0.1       0.0       0.0       0.1       0.0       0.0
 2 C  dxy             0.1       0.0       0.0       0.0       0.0       0.0
 3 C  s               3.7       0.8       1.7       0.3       0.0       0.4
 3 C  pz              0.0       0.0       0.0       0.0       0.8       0.0
 3 C  px              4.6       0.5       0.4       8.2       0.0       6.5
 3 C  py              0.7       1.6       2.3       0.3       0.0      13.9
 3 C  dxy             0.0       0.1       0.0       0.0       0.0       0.4
 4 C  s               2.4       0.0       0.0       0.3       0.0       0.4
 4 C  pz              0.0       0.0       0.0       0.0       4.1       0.0
 4 C  px              1.0       6.5       0.3       7.7       0.0       1.3
 4 C  py              1.1       4.7       0.2       2.5       0.0       0.3
 4 C  dx2y2           0.0       0.0       0.0       0.0       0.0       0.1
 4 C  dxy             0.1       0.2       0.4       0.2       0.0       0.3
 5 C  s               2.5       0.4       0.4       0.1       0.0       0.5
 5 C  pz              0.0       0.0       0.0       0.0      11.5       0.0
 5 C  px              0.4       1.5      11.6       0.9       0.0       0.9
 5 C  py              3.1       5.5       1.6       3.5       0.0       0.1
 5 C  dxz             0.0       0.0       0.0       0.0       0.1       0.0
 5 C  dx2y2           0.0       0.0       0.1       0.2       0.0       0.1
 5 C  dxy             0.0       0.0       0.0       0.3       0.0       0.0
 6 C  s               0.1       0.1       0.1       2.3       0.0       0.1
 6 C  pz              0.0       0.0       0.0       0.0       2.6       0.0
 6 C  px             10.2       2.8      11.6       0.2       0.0       1.5
 6 C  py              0.7       2.2       3.8       3.2       0.0       0.5
 6 C  dx2y2           0.0       0.0       0.0       0.1       0.0       0.0
 6 C  dxy             0.3       0.0       0.2       0.0       0.0       0.1
 7 O  s               1.7       1.5       0.1       0.3       0.0       0.0
 7 O  pz              0.0       0.0       0.0       0.0      31.8       0.0
 7 O  px              4.1      11.2       2.5      12.8       0.0       1.5
 7 O  py              0.1       0.5      13.7       0.3       0.0       0.1
 7 O  dz2             0.2       0.0       0.0       0.0       0.0       0.1
 7 O  dxz             0.0       0.0       0.0       0.0       0.3       0.0
 7 O  dyz             0.0       0.0       0.0       0.0       0.8       0.0
 7 O  dx2y2           0.1       0.1       1.4       0.0       0.0       0.1
 7 O  dxy             0.1       0.1       0.1       0.7       0.0       0.1
 8 C  s               0.7       0.5       1.8       0.1       0.0       0.0
 8 C  pz              0.0       0.0       0.0       0.0      29.4       0.0
 8 C  px              0.7       2.5       0.0       4.5       0.0       1.4
 8 C  py              1.7       3.1      11.2       2.2       0.0       0.4
 8 C  dz2             0.0       0.1       0.1       0.1       0.0       0.0
 8 C  dxz             0.0       0.0       0.0       0.0       0.2       0.0
 8 C  dx2y2           0.1       0.1       0.2       0.0       0.0       0.0
 9 O  s               0.4       0.1       0.8       0.9       0.0       0.4
 9 O  pz              0.0       0.0       0.0       0.0       2.1       0.0
 9 O  px             14.5      24.6       1.1       3.3       0.0       4.5
 9 O  py              0.1       0.3       2.1       7.0       0.0       0.2
 9 O  dz2             0.0       0.1       0.1       0.0       0.0       0.2
 9 O  dyz             0.0       0.0       0.0       0.0       0.2       0.0
 9 O  dx2y2           0.0       0.0       0.1       0.5       0.0       0.2
 9 O  dxy             0.4       0.2       0.0       0.1       0.0       0.1
10 H  s               2.1       0.2       0.2       0.3       0.1       2.8
10 H  pz              0.1       0.0       0.0       0.0       0.0       0.1
11 H  s               2.2       0.0       2.1       0.0       0.0       0.1
12 H  s               2.1       0.2       0.2       0.3       0.1       2.8
12 H  pz              0.1       0.0       0.0       0.0       0.0       0.1
13 H  s               0.7       3.9       0.5       5.7       0.0       2.9
13 H  px              0.1       0.2       0.0       0.3       0.0       0.0
13 H  py              0.0       0.1       0.0       0.0       0.0       0.1
14 H  s               1.9       0.0       2.3       0.0       0.0       6.8
14 H  py              0.1       0.0       0.1       0.0       0.0       0.2
15 H  s               0.4       0.9       1.2       3.4       0.0       0.3
15 H  py              0.0       0.0       0.0       0.2       0.0       0.0
16 H  s               0.1       0.0       1.1       0.7       0.0       0.4
16 H  pz              0.0       0.0       0.0       0.0       0.2       0.0
17 H  s               0.8       1.1       2.4       1.1       6.8       0.2
17 H  pz              0.0       0.1       0.1       0.1       0.1       0.0
17 H  py              0.0       0.0       0.0       0.0       0.1       0.0
18 H  s               0.8       1.1       2.4       1.1       6.8       0.3
18 H  pz              0.0       0.1       0.1       0.1       0.1       0.0
18 H  py              0.0       0.0       0.0       0.0       0.1       0.0
19 H  s               3.1       6.0       0.5       0.1       0.0       1.2
19 H  py              0.3       0.3       0.0       0.2       0.0       0.0

                     24        25        26        27        28        29   
                  -0.40737  -0.39033  -0.38982  -0.37367  -0.36915  -0.34049
                   2.00000   2.00000   2.00000   2.00000   2.00000   2.00000
                  --------  --------  --------  --------  --------  --------
 0 C  pz              0.0       0.1      23.3      25.2       0.0       0.0
 0 C  px              0.9       3.5       0.0       0.0      13.0      16.3
 0 C  py              0.1       0.1       0.0       0.0       3.7       4.5
 0 C  dyz             0.0       0.0       0.1       0.2       0.0       0.0
 0 C  dxy             0.0       0.1       0.0       0.0       0.1       0.3
 1 C  s               0.2       1.0       0.0       0.0       0.0       0.1
 1 C  pz              0.0       0.0      11.7       3.2       0.0       0.0
 1 C  px              2.2       0.1       0.0       0.0       0.5       6.9
 1 C  py              0.1       2.4       0.0       0.0       5.7       0.5
 1 C  dx2y2           0.2       0.1       0.0       0.0       0.0       0.3
 1 C  dxy             0.0       0.0       0.0       0.0       0.0       0.4
 2 C  s               0.3       0.4       0.0       0.0       0.2       0.2
 2 C  pz              0.0       0.0       4.8       0.0       0.0       0.0
 2 C  px              0.4       0.1       0.0       0.0       4.7       1.8
 2 C  py              0.0       1.1       0.0       0.0       4.7       1.4
 2 C  dx2y2           0.1       0.1       0.0       0.0       0.2       0.0
 2 C  dxy             0.0       0.0       0.0       0.0       0.0       0.2
 3 C  s               0.1       0.1       0.0       0.0       0.5       0.2
 3 C  pz              0.0       0.0       4.8       3.2       0.0       0.0
 3 C  px              1.6       3.3       0.0       0.0       0.1       0.0
 3 C  py              9.6       8.2       0.0       0.0       1.5       0.5
 3 C  dx2y2           0.1       0.1       0.0       0.0       0.1       0.0
 4 C  s               2.5       0.0       0.0       0.0       0.1       0.0
 4 C  pz              0.0       0.0       9.3      15.3       0.0       0.0
 4 C  px              1.7       4.2       0.0       0.0       2.9       0.1
 4 C  py              0.4       2.0       0.0       0.0       1.2       1.3
 4 C  dx2y2           0.2       0.1       0.0       0.0       0.4       0.3
 5 C  s               1.2       0.4       0.0       0.0       0.7       0.2
 5 C  pz              0.0       0.0       2.9       3.1       0.0       0.0
 5 C  px              0.6       0.4       0.0       0.0       0.0       0.0
 5 C  py              1.1       0.6       0.0       0.0       1.2       5.1
 5 C  dx2y2           0.7       0.1       0.0       0.0       0.0       0.0
 5 C  dxy             0.1       0.0       0.0       0.0       0.2       0.0
 6 C  s               0.2       1.0       0.0       0.0       0.4       0.6
 6 C  pz              0.0       0.0       4.4       0.1       0.0       0.0
 6 C  px              0.1       1.1       0.0       0.0       0.6       6.9
 6 C  py             17.7       9.0       0.0       0.0       0.2       0.5
 6 C  dx2y2           0.2       0.2       0.0       0.0       0.1       0.0
 7 O  s               0.2       1.1       0.0       0.0       0.0       0.7
 7 O  pz              0.0       0.0       0.9       0.0       0.0       0.0
 7 O  px              0.6       3.4       0.0       0.0       0.6       1.9
 7 O  py              5.5      14.7       0.0       0.0       0.2       0.9
 7 O  dz2             0.0       0.0       0.0       0.0       0.0       0.1
 7 O  dxz             0.0       0.0       0.1       0.1       0.0       0.0
 7 O  dyz             0.0       0.0       1.0       0.9       0.0       0.0
 7 O  dx2y2           0.5       0.3       0.0       0.0       0.2       0.3
 7 O  dxy             1.2       0.1       0.0       0.0       0.3       0.2
 8 C  s               0.2       0.4       0.0       0.0       0.0       0.0
 8 C  pz              0.0       0.0       8.0       4.0       0.0       0.0
 8 C  px             15.3      11.1       0.0       0.0       0.2       8.7
 8 C  py              1.4       3.0       0.0       0.0       0.0       0.5
 8 C  dx2y2           0.2       0.2       0.0       0.0       0.0       0.1
 8 C  dxy             0.0       0.0       0.0       0.0       0.0       0.1
 9 O  s               0.6       0.3       0.0       0.0       3.6       0.9
 9 O  pz              0.0       0.0       9.2      24.7       0.0       0.0
 9 O  px              2.0       0.1       0.0       0.0       0.1       0.0
 9 O  py              4.1       4.1       0.0       0.0      32.3      10.9
 9 O  dxz             0.0       0.0       0.2       0.4       0.0       0.0
 9 O  dyz             0.0       0.0       0.1       0.3       0.0       0.0
 9 O  dx2y2           0.2       0.0       0.0       0.0       0.0       0.1
 9 O  dxy             0.3       0.0       0.0       0.0       0.3       0.0
10 H  s               0.1       0.0       6.3       7.5       0.4       0.9
10 H  px              0.0       0.0       0.0       0.0       0.1       0.1
10 H  py              0.0       0.0       0.2       0.2       0.0       0.0
11 H  s               0.2       1.5       0.0       0.0       7.8      11.7
11 H  pz              0.0       0.0       0.1       0.2       0.0       0.0
12 H  s               0.1       0.0       6.3       7.4       0.4       0.9
12 H  px              0.0       0.0       0.0       0.0       0.1       0.1
12 H  py              0.0       0.0       0.2       0.2       0.0       0.0
13 H  s               0.5       0.1       0.0       0.0       5.5       1.9
13 H  px              0.0       0.0       0.0       0.0       0.1       0.0
[...]
 4 C  dx2y2          10.1       0.7       0.0       0.5       1.4       0.2
 4 C  dxy             2.8       0.9       2.9       2.7       1.9       2.4
 5 C  s               0.3       0.5       1.7       0.2       1.1       0.1
 5 C  px              1.6       0.2       1.6       0.6       4.0       0.3
 5 C  py              1.2       0.7       0.7       0.0       0.8       0.1
 5 C  dz2             0.5       0.1       1.1       0.0       0.9       0.0
 5 C  dx2y2           2.3       0.1       2.8       0.1       4.2       0.4
 5 C  dxy             6.6       2.0       0.5       0.3       2.8       0.6
 6 C  s               0.2       0.2       0.1       0.0       0.1       0.0
 6 C  px              1.6       0.0       0.3       0.1       0.1       0.0
 6 C  py              0.1       1.2       0.2       0.0       0.6       0.0
 6 C  dx2y2           0.0       5.9       0.5       0.0       2.2       0.3
 6 C  dxy             3.1       0.8       0.1       0.0       0.0       0.0
 7 O  s               2.7       0.8      23.4       4.3       4.2       0.3
 7 O  px              3.8       0.3       5.2       2.1       9.3       0.5
 7 O  py              5.5       2.1       1.3      17.5       7.9       0.3
 7 O  dz2             0.7       0.3      13.7       2.3       1.1       0.2
 7 O  dx2y2           5.6       0.2       0.3      15.3      10.8       0.5
 7 O  dxy             0.1       0.6       8.1       0.2       3.1       0.1
 8 C  s               0.9       0.2       0.4       1.7       1.1       0.0
 8 C  px              0.0       0.0       0.0       0.3       0.1       0.0
 8 C  py              0.4       0.1       2.5       6.0       1.5       0.0
 8 C  dz2             0.2       0.0       1.8       2.1       0.3       0.0
 8 C  dx2y2           0.0       0.0       3.0       7.1       1.4       0.0
 8 C  dxy             0.4       0.0       0.1       0.5       0.1       0.0
 9 O  s               0.3       2.9       6.0       9.0      11.6       4.7
 9 O  px              0.8       2.1       2.9       3.3       0.4      19.3
 9 O  py              2.1       2.3       2.5       4.2       6.3       2.8
 9 O  dz2             0.5       1.2       4.1       5.6       5.8       3.6
 9 O  dx2y2          17.1       0.4       1.8       1.1       0.2       0.2
 9 O  dxy             0.1       1.6       2.6       2.4       0.0      32.7
11 H  s               0.2       0.4       0.0       0.0       0.0       0.0
11 H  px              0.4       0.5       0.0       0.0       0.0       0.0
11 H  py              0.0       0.3       0.0       0.0       0.0       0.0
13 H  s               0.6       3.9       0.0       0.1       0.3       0.0
13 H  px              1.3       7.3       0.0       0.1       0.3       0.0
13 H  py              0.1       1.7       0.1       0.1       0.1       0.0
14 H  s               0.2       2.3       0.3       0.4       0.4       0.1
14 H  px              0.1       0.1       0.0       0.0       0.0       0.0
14 H  py              0.7       5.1       0.5       0.6       0.5       0.1
15 H  s               0.0       1.5       0.3       0.0       0.7       0.1
15 H  py              0.0       3.6       0.5       0.0       1.1       0.1
16 H  s               0.0       0.0       0.0       0.3       0.1       0.0
16 H  px              0.1       0.0       0.1       0.5       0.1       0.0
16 H  py              0.0       0.0       0.2       0.3       0.0       0.0
17 H  s               0.1       0.0       0.2       0.1       0.0       0.0
17 H  pz              0.2       0.0       0.3       0.2       0.0       0.0
17 H  px              0.0       0.0       0.1       0.1       0.0       0.0
18 H  s               0.1       0.0       0.2       0.1       0.0       0.0
18 H  pz              0.2       0.0       0.2       0.2       0.0       0.0
18 H  px              0.0       0.0       0.1       0.1       0.0       0.0
19 H  s               0.1       0.0       0.0       0.2       1.4      12.2
19 H  px              0.3       0.1       0.1       0.3       1.7       9.1
19 H  py              5.8       0.7       0.1       0.1       0.1       5.2

                    240       241       242       243       244       245   
                  21.43306  21.88638  21.99411  22.00453  22.07298  22.19789
                   0.00000   0.00000   0.00000   0.00000   0.00000   0.00000
                  --------  --------  --------  --------  --------  --------
 0 C  s               1.2      36.5       2.6       0.5      54.5       3.3
 1 C  s              26.1      20.5       0.3       0.6       6.9      30.0
 2 C  s              19.6       0.7       5.9      17.3       7.6       5.0
 3 C  s              15.2      12.9      14.3       5.5       2.0      15.3
 4 C  s              10.6      20.4       4.0       3.8      14.8      30.3
 5 C  s               9.4       6.7      16.3       8.7       1.9       1.2
 6 C  s              17.5       0.6      20.1      13.5       1.4      13.4
 7 O  s               0.0       0.0       0.1       0.0       0.0       0.0
 8 C  s               0.0       1.1      35.7      49.6      10.4       1.0

                    246       247       248       249   
                  22.22512  22.36315  43.62115  43.84813
                   0.00000   0.00000   0.00000   0.00000
                  --------  --------  --------  --------
 0 C  s               0.8       0.0       0.0       0.0
 1 C  s               3.8      11.6       0.0       0.0
 2 C  s              29.7      13.8       0.0       0.0
 3 C  s              19.2      15.0       0.0       0.0
 4 C  s               0.0      15.5       0.0       0.0
 5 C  s              30.9      24.2       0.0       0.0
 6 C  s              14.1      18.9       0.0       0.0
 7 O  s               0.0       0.0      34.7      65.2
 8 C  s               1.1       0.6       0.0       0.0
 9 O  s               0.0       0.0      65.2      34.7


                      *****************************
                      * MAYER POPULATION ANALYSIS *
                      *****************************

  NA   - Mulliken gross atomic population
  ZA   - Total nuclear charge
  QA   - Mulliken gross atomic charge
  VA   - Mayer's total valence
  BVA  - Mayer's bonded valence
  FA   - Mayer's free valence

  ATOM       NA         ZA         QA         VA         BVA        FA
  0 C      6.5598     6.0000    -0.5598     3.7631     3.7631     0.0000
  1 C      5.8704     6.0000     0.1296     3.4585     3.4585     0.0000
  2 C      6.2682     6.0000    -0.2682     3.8181     3.8181    -0.0000
  3 C      6.3329     6.0000    -0.3329     3.8002     3.8002    -0.0000
  4 C      5.8059     6.0000     0.1941     3.7004     3.7004     0.0000
  5 C      5.8057     6.0000     0.1943     3.7524     3.7524     0.0000
  6 C      6.2853     6.0000    -0.2853     3.6971     3.6971     0.0000
  7 O      8.2395     8.0000    -0.2395     1.9908     1.9908    -0.0000
  8 C      6.3357     6.0000    -0.3357     3.7387     3.7387    -0.0000
  9 O      8.4429     8.0000    -0.4429     1.9487     1.9487     0.0000
 10 H      0.8249     1.0000     0.1751     0.9525     0.9525     0.0000
 11 H      0.8306     1.0000     0.1694     0.9591     0.9591    -0.0000
 12 H      0.8252     1.0000     0.1748     0.9527     0.9527     0.0000
 13 H      0.8214     1.0000     0.1786     0.9604     0.9604    -0.0000
 14 H      0.8162     1.0000     0.1838     0.9595     0.9595     0.0000
 15 H      0.8175     1.0000     0.1825     0.9598     0.9598     0.0000
 16 H      0.8256     1.0000     0.1744     0.9513     0.9513    -0.0000
 17 H      0.8284     1.0000     0.1716     0.9486     0.9486    -0.0000
 18 H      0.8284     1.0000     0.1716     0.9487     0.9487    -0.0000
 19 H      0.6354     1.0000     0.3646     0.8818     0.8818     0.0000

  Mayer bond orders larger than 0.100000
B(  0-C ,  1-C ) :   0.8115 B(  0-C , 10-H ) :   0.9704 B(  0-C , 11-H ) :   0.9898 
B(  0-C , 12-H ) :   0.9708 B(  1-C ,  2-C ) :   1.4124 B(  1-C ,  6-C ) :   1.3338 
B(  2-C ,  3-C ) :   1.3510 B(  2-C , 13-H ) :   0.9474 B(  3-C ,  4-C ) :   1.3385 
B(  3-C , 14-H ) :   0.9690 B(  4-C ,  5-C ) :   1.3781 B(  4-C ,  9-O ) :   0.9639 
B(  5-C ,  6-C ) :   1.3292 B(  5-C ,  7-O ) :   1.0434 B(  6-C , 15-H ) :   0.9298 
B(  7-O ,  8-C ) :   0.8523 B(  8-C , 16-H ) :   0.9601 B(  8-C , 17-H ) :   0.9533 
B(  8-C , 18-H ) :   0.9534 B(  9-O , 19-H ) :   0.8322 

-------
TIMINGS
-------

Total SCF time: 0 days 0 hours 0 min 37 sec 

Total time                  ....      37.859 sec
Sum of individual times     ....      37.288 sec  ( 98.5%)

SCF preparation             ....       0.319 sec  (  0.8%)
Fock matrix formation       ....      35.896 sec  ( 94.8%)
  Startup                   ....       0.081 sec  (  0.2% of F)
  Split-RI-J                ....       6.613 sec  ( 18.4% of F)
  XC integration            ....      21.715 sec  ( 60.5% of F)
    XC Preparation          ....       0.000 sec  (  0.0% of XC)
    Basis function eval.    ....       3.611 sec  ( 16.6% of XC)
    Density eval.           ....       6.973 sec  ( 32.1% of XC)
    XC-Functional eval.     ....       2.326 sec  ( 10.7% of XC)
    XC-Potential eval.      ....       7.781 sec  ( 35.8% of XC)
  CPCM terms                ....       6.904 sec  ( 19.2% of F)
Diagonalization             ....       0.000 sec  (  0.0%)
Density matrix formation    ....       0.272 sec  (  0.7%)
Total Energy calculation    ....       0.050 sec  (  0.1%)
Population analysis         ....       0.141 sec  (  0.4%)
Orbital Transformation      ....       0.061 sec  (  0.2%)
Orbital Orthonormalization  ....       0.000 sec  (  0.0%)
DIIS solution               ....       0.460 sec  (  1.2%)
  MO trafo                  ....       0.000 sec  (  0.0 % of DIIS)
  Orb grad                  ....       0.000 sec  (  0.0 % of DIIS)
  Energy W gradient         ....       0.000 sec  (  0.0 % of DIIS)
  DIIS error                ....       0.020 sec  (  4.3 % of DIIS)
  DIIS work                 ....       0.388 sec  ( 84.5 % of DIIS)
  Form Q                    ....       0.000 sec  (  0.0 % of DIIS)
  Form QpQm                 ....       0.000 sec  (  0.0 % of DIIS)
  Exp/Cayley                ....       0.000 sec  (  0.0 % of DIIS)
  Orb update                ....       0.000 sec  (  0.0 % of DIIS)
  Wake-sleep                ....       0.023 sec  (  5.0 % of DIIS)
SOSCF solution              ....       0.090 sec  (  0.2%)
  MO trafo                  ....       0.050 sec  ( 55.5 % of SOSCF)
  Orb grad                  ....       0.001 sec  (  1.3 % of SOSCF)
  Rot update                ....       0.011 sec  ( 12.5 % of SOSCF)
  Step                      ....       0.028 sec  ( 30.6 % of SOSCF)
Finished LeanSCF after  38.0 sec

Maximum memory used throughout the entire LEANSCF-calculation: 32.7 MB


-------------------------------------------------------------------------------
                          DFT DISPERSION CORRECTION                            
                                                                               
                                DFTD4 V3.4.0                                   
-------------------------------------------------------------------------------
The R2SCAN3C composite method is recognized
Using three-body term ABC
Active option DFTDOPT                   ...         5   

-------------------------   ----------------
Dispersion correction           -0.006568872
-------------------------   ----------------

------------------   -----------------
gCP correction             0.010337354
------------------   -----------------

-------------------------   --------------------
FINAL SINGLE POINT ENERGY      -461.212187086578
-------------------------   --------------------


------------------------------------------------------------------------------
                              ORCA PROPERTY CALCULATIONS
------------------------------------------------------------------------------

GBWName                                 ... sp_solv.gbw
Number of atoms                         ...     20
Number of basis functions               ...    250
Max core memory                         ...   1024 MB

Electric properties:
Dipole moment                           ... YES
Quadrupole moment                       ...  NO
Static polarizability (Dipole/Dipole)   ...  NO
Static polarizability (Dipole/Quad.)    ...  NO
Static polarizability (Quad./Quad.)     ...  NO
Static polarizability (Velocity)        ...  NO

Atomic electric properties:
Dipole moment                           ...  NO
Quadrupole moment                       ...  NO
Static polarizability                   ...  NO

Choice of electric origin               ... Center of mass
Position of electric origin             ...    -0.000026     0.000018    -0.000000

General magnetic properties:
Magnetizability                         ...  NO

EPR properties:
g-Tensor (aka g-matrix)                 ...  NO
Zero-Field splitting spin-orbit         ...  NO
Zero-field splitting spin-spin          ...  NO
Hyperfine couplings                     ...  NO (   0 nuclei)
Quadrupole couplings                    ...  NO (   0 nuclei)
Contact density                         ...  NO (   0 nuclei)

NMR properties:
Chemical shifts                         ...  NO (   0 nuclei)
Spin-rotation constants                 ...  NO (   0 nuclei)
Spin-spin couplings                     ...  NO (   0 nuclei,    0 pairs)

Choice of magnetic origin               ... GIAO
Position of magnetic origin             ...     0.000000     0.000000     0.000000

Properties with geometric perturbations:
SCF Hessian                             ...  NO
IR spectrum                             ...  NO
VCD spectrum                            ...  NO
X-ray spectroscopy properties:
SCF XES/XAS/RIXS spectra                ...  NO


-------------
DIPOLE MOMENT
-------------

Method             : SCF
Type of density    : Electron Density
Multiplicity       :   1
Irrep              :   0
Energy             :  -461.2159555679961613 Eh
Relativity type    : 
Basis              : AO
                                X                 Y                 Z
Electronic contribution:      4.670853789      -6.039238835       0.006861493
Nuclear contribution   :     -4.486578853       7.595811100      -0.009091053
                        -----------------------------------------
Total Dipole Moment    :      0.184274936       1.556572265      -0.002229560
                        -----------------------------------------
Magnitude (a.u.)       :      1.567443600
Magnitude (Debye)      :      3.984125008



--------------------
Rotational spectrum 
--------------------
 
Rotational constants in cm-1:             0.062914             0.039300             0.024412 
Rotational constants in MHz :          1886.122510          1178.187164           731.857276 

Dipole components along the rotational axes: 
x,y,z [a.u.] :     0.184286    -1.556571    -0.002230 
x,y,z [Debye]:     0.468419    -3.956489    -0.005667 

 

Dipole moment calculation done in   0.0 sec 

Maximum memory used throughout the entire PROP-calculation: 16.7 MB

--------------------------------
SUGGESTED CITATIONS FOR THIS RUN
--------------------------------

Below you find a list of papers that are relevant to this ORCA run
We neither can nor want to force you to cite these papers, but we appreciate if you do
You receive ORCA, which is the product of decades of hard work by many enthusiastic individuals, for free
The only thing we kindly ask in return is that you cite our papers,
We deeply appreciate it, if you show your appreciation for ORCA by not just citing the generic ORCA reference.

Please note that relegating all ORCA citations to the supporting information does *not* help us.
SI sections are not indexed - citations you put there will not count into any citation statistics
But we need these citations in order to attract the funding resources that allow us to do what we are doing

Therefore, if you are a happy ORCA user, please consider citing a few of the papers listed below in the main body of your paper

In addition to the list printed below, the program has created the file sp_solv.bibtex that contains the list in bibtex format
You can import this file easily into all common literature databanks and citation aid programs


List of essential papers. We consider these as the minimum necessary citations

  1. Neese,F.
     Software update: the ORCA program system, version 5.0
     WIRES Comput. Molec. Sci., 2022 12(1)e1606
     doi.org/10.1002/wcms.1606
  2. Grimme,S.; Hansen,A.; Ehlert,S.; Mewes,J.
     r2SCAN-3c: A 'Swiss army knife' composite electronic-structure method
     J. Chem. Phys., 2021 154 064103
     doi.org/10.1063/5.0040021

List of papers to cite with high priority. The work reported in these papers was absolutely
necessary for this run to complete.
Our perspective: the developers of density functionals and basis sets usually get cited in chemistry papers
Good! But without the algorithms to do something with them, the functionals or basis sets would not do anything.
Hence, in our opinion, the algorithm design and method developments papers are equally worthy of getting cited

  1. Neese,F.
     An improvement of the resolution of the identity approximation for the formation of the Coulomb matrix
     J. Comp. Chem., 2003 24(14)1740-1747
     doi.org/10.1002/jcc.10318
  2. Garcia-Rates,M.; Neese,F.
     Effect of the Solute Cavity on the Solvation Energy and its Derivatives within the Framework of the Gaussian Charge Scheme
     J. Comput. Chem., 2020 41 922-939
     doi.org/10.1002/jcc.26139
  3. Neese,F.
     The SHARK Integral Generation and Digestion System
     J. Comp. Chem., 2022  1-16
     doi.org/10.1002/jcc.26942
  4. Lehtola,S.; Steigemann,C.; Oliveira,M.; Marques,M.
     Recent developments in Libxc - A comprehensive library of functionals for density functional theory
     Software X, 2018 7 
     doi.org/10.1016/j.softx.2017.11.002
  5. Caldeweyher,E.; Bannwarth,C.; Grimme,S.
     Extension of the D3 dispersion coefficient model
     J. Chem. Phys., 2017 147 034112-XXXX
     doi.org/10.1063/1.4993215
  6. Caldeweyher,E.; Ehlert,S.; Hansen,A.; Neugebauer,H.; Spicher,S.; Bannwarth,C.; Grimme,S.
     A generally applicable atomic-charge dependent London dispersion correction
     J. Chem. Phys., 2019 150 154122-XXXX
     doi.org/10.1063/1.5090222
  7. Caldeweyher,E.; Mewes,J.; Ehlert,S.; Grimme,S.
     Extension and evaluation of the D4 London-dispersion model for periodic systems
     Phys. Chem. Chem. Phys., 2020 22(16)8499-8512
     doi.org/10.1039/D0CP00502A

List of suggested additional citations. These are papers that are important in the 'surrounding' of 
of this run, or papers that preceded the highly important papers. If you like your results we are grateful for a citation.

  1. Neese,F.
     The ORCA program system
     WIRES Comput. Molec. Sci., 2012 2(1)73-78
     doi.org/10.1002/wcms.81
  2. Neese,F.
     Software update: the ORCA program system, version 4.0
     WIRES Comput. Molec. Sci., 2018 8(1)1-6
     doi.org/10.1002/wcms.1327
  3. Neese,F.; Wennmohs,F.; Becker,U.; Riplinger,C.
     The ORCA quantum chemistry program package
     J. Chem. Phys., 2020 152 Art. No. L224108
     doi.org/10.1063/5.0004608

List of optional additional citations

  1. Neese,F.
     Approximate second-order SCF convergence for spin unrestricted wavefunctions
     Chem. Phys. Lett., 2000 325(1-3)93-98
     doi.org/10.1016/s0009-2614(00)00662-x

Timings for individual modules:

Sum of individual times          ...       39.767 sec (=   0.663 min)
Startup calculation              ...        1.340 sec (=   0.022 min)   3.4 %
SCF iterations                   ...       38.322 sec (=   0.639 min)  96.4 %
Property calculations            ...        0.106 sec (=   0.002 min)   0.3 %
                             ****ORCA TERMINATED NORMALLY****
TOTAL RUN TIME: 0 days 0 hours 0 minutes 40 seconds 481 msec
