      -----------------------------------------------------------      
     |                   =====================                   |     
     |                           x T B                           |     
     |                   =====================                   |     
     |                         S. Grimme                         |     
     |          Mulliken Center for Theoretical Chemistry        |     
     |                    University of Bonn                     |     
      -----------------------------------------------------------      

   * xtb version 6.7.1 (edcfbbe) compiled by 'albert@albert-system' on 2024-07-22

   xtb is free software: you can redistribute it and/or modify it under
   the terms of the GNU Lesser General Public License as published by
   the Free Software Foundation, either version 3 of the License, or
   (at your option) any later version.
   
   xtb is distributed in the hope that it will be useful,
   but WITHOUT ANY WARRANTY; without even the implied warranty of
   MERCHANTABILITY or FITNESS FOR A PARTICULAR PURPOSE.  See the
   GNU Lesser General Public License for more details.
   
   Cite this work as:
   * C. Bannwarth, E. Caldeweyher, S. Ehlert, A. Hansen, P. Pracht,
     J. Seibert, S. Spicher, S. Grimme, WIREs Comput. Mol. Sci., 2020, 11,
     e01493. DOI: 10.1002/wcms.1493
   
   for GFN2-xTB:
   * C. Bannwarth, S. Ehlert and S. Grimme., J. Chem. Theory Comput., 2019,
     15, 1652-1671. DOI: 10.1021/acs.jctc.8b01176
   for GFN1-xTB:
   * S. Grimme, C. Bannwarth, P. Shushkov, J. Chem. Theory Comput., 2017,
     13, 1989-2009. DOI: 10.1021/acs.jctc.7b00118
   for GFN0-xTB:
   * P. Pracht, E. Caldeweyher, S. Ehlert, S. Grimme, ChemRxiv, 2019, preprint.
     DOI: 10.26434/chemrxiv.8326202.v1
   for GFN-FF:
   * S. Spicher and S. Grimme, Angew. Chem. Int. Ed., 2020, 59, 15665-15673.
     DOI: 10.1002/anie.202004239
   
   for ALPB and GBSA implicit solvation:
   * S. Ehlert, M. Stahn, S. Spicher, S. Grimme, J. Chem. Theory Comput.,
     2021, 17, 4250-4261. DOI: 10.1021/acs.jctc.1c00471
   
   for ddCOSMO and CPCM-X implicit solvation:
   * M. Stahn, S. Ehlert, S. Grimme, J. Phys. Chem. A,
     2023, XX, XXXX-XXXX. DOI: 10.1021/acs.jpca.3c04382
   
   for DFT-D4:
   * E. Caldeweyher, C. Bannwarth and S. Grimme, J. Chem. Phys., 2017,
     147, 034112. DOI: 10.1063/1.4993215
   * E. Caldeweyher, S. Ehlert, A. Hansen, H. Neugebauer, S. Spicher,
     C. Bannwarth and S. Grimme, J. Chem. Phys., 2019, 150, 154122.
     DOI: 10.1063/1.5090222
   * E. Caldeweyher, J.-M. Mewes, S. Ehlert and S. Grimme, Phys. Chem. Chem. Phys.
     2020, 22, 8499-8512. DOI: 10.1039/D0CP00502A
   
   for sTDA-xTB:
   * S. Grimme and C. Bannwarth, J. Chem. Phys., 2016, 145, 054103.
     DOI: 10.1063/1.4959605
   
   in the mass-spec context:
   * V. Asgeirsson, C. Bauer and S. Grimme, Chem. Sci., 2017, 8, 4879.
     DOI: 10.1039/c7sc00601b
   * J. Koopman and S. Grimme, ACS Omega 2019, 4, 12, 15120-15133.
     DOI: 10.1021/acsomega.9b02011
   
   for metadynamics refer to:
   * S. Grimme, J. Chem. Theory Comput., 2019, 155, 2847-2862
     DOI: 10.1021/acs.jctc.9b00143
   
   for SPH calculations refer to:
   * S. Spicher and S. Grimme, J. Chem. Theory Comput., 2021, 17, 1701-1714
     DOI: 10.1021/acs.jctc.0c01306
   
   for ONIOM refer to:
   * C. Plett, A. Katbashev, S. Ehlert, S. Grimme, M. Bursch,
     Phys. Chem. Chem. Phys., 2023, 25, 17860-17868. DOI: 10.1039/D3CP02178E
   
   for DIPRO refer to:
   * J. Kohn, N. Gildemeister, S. Grimme, D. Fazzi, A. Hansen,
     J. Chem. Phys., 2023, just accepted.
   
   for PTB refer to:
   * S. Grimme, M. Mueller, A. Hansen, J. Chem. Phys., 2023, 158, 124111.
     DOI: 10.1063/5.0137838
   
   with help from (in alphabetical order)
   P. Atkinson, C. Bannwarth, F. Bohle, G. Brandenburg, E. Caldeweyher
   M. Checinski, S. Dohm, S. Ehlert, S. Ehrlich, I. Gerasimov, C. Hölzer
   A. Katbashev, J. Kohn, J. Koopman, C. Lavigne, S. Lehtola, F. März, M. Müller,
   F. Musil, H. Neugebauer, J. Pisarek, C. Plett, P. Pracht, F. Pultar,
   J. Seibert, P. Shushkov, S. Spicher, M. Stahn, M. Steiner, T. Strunk,
   J. Stückrath, T. Rose, and J. Unsleber
   
 * started run on 2025/04/03 at 21:39:55.958     
   ID    Z sym.   atoms
    1    6 C      1-6
    2   35 Br     7
    3    1 H      8-12

           -------------------------------------------------
          |                Calculation Setup                |
           -------------------------------------------------

          program call               : /srv/scratch/z5358697/.xtb/bin/xtb gas.coord --gfn2 --sp --chrg 0 --norestart --parallel 1
          hostname                   : k156
          coordinate file            : gas.coord
          omp threads                :                     1


           -------------------------------------------------
          |                 G F N 2 - x T B                 |
           -------------------------------------------------

        Reference                      10.1021/acs.jctc.8b01176
      * Hamiltonian:
        H0-scaling (s, p, d)           1.850000    2.230000    2.230000
        zeta-weighting                 0.500000
      * Dispersion:
        s8                             2.700000
        a1                             0.520000
        a2                             5.000000
        s9                             5.000000
      * Repulsion:
        kExp                           1.500000    1.000000
        rExp                           1.000000
      * Coulomb:
        alpha                          2.000000
        third order                    shell-resolved
        anisotropic                    true
        a3                             3.000000
        a5                             4.000000
        cn-shift                       1.200000
        cn-exp                         4.000000
        max-rad                        5.000000


          ...................................................
          :                      SETUP                      :
          :.................................................:
          :  # basis functions                  39          :
          :  # atomic orbitals                  38          :
          :  # shells                           20          :
          :  # electrons                        36          :
          :  max. iterations                   250          :
          :  Hamiltonian                  GFN2-xTB          :
          :  restarted?                      false          :
          :  GBSA solvation                  false          :
          :  PC potential                    false          :
          :  electronic temp.          300.0000000     K    :
          :  accuracy                    1.0000000          :
          :  -> integral cutoff          0.2500000E+02      :
          :  -> integral neglect         0.1000000E-07      :
          :  -> SCF convergence          0.1000000E-05 Eh   :
          :  -> wf. convergence          0.1000000E-03 e    :
          :  Broyden damping             0.4000000          :
          :  net charge                          0          :
          :  unpaired electrons                  0          :
          ...................................................

 iter      E             dE          RMSdq      gap      omega  full diag
   1    -19.7424804 -0.197425E+02  0.579E+00    4.56       0.0  T
   2    -19.7624864 -0.200060E-01  0.377E+00    4.06       1.0  T
   3    -19.7494988  0.129877E-01  0.156E+00    4.07       1.0  T
   4    -19.7668999 -0.174012E-01  0.531E-01    4.11       1.0  T
   5    -19.7670289 -0.128930E-03  0.374E-01    4.11       1.0  T
   6    -19.7672961 -0.267215E-03  0.180E-01    4.11       1.0  T
   7    -19.7673649 -0.688670E-04  0.143E-01    4.10       1.0  T
   8    -19.7674102 -0.452450E-04  0.363E-02    4.12       1.0  T
   9    -19.7674167 -0.650686E-05  0.160E-02    4.12       1.8  T
  10    -19.7674174 -0.735520E-06  0.477E-03    4.11       6.1  T
  11    -19.7674174 -0.179482E-07  0.174E-03    4.11      16.6  T
  12    -19.7674175 -0.280611E-08  0.107E-04    4.11     270.4  T
  13    -19.7674175 -0.651568E-11  0.249E-05    4.11    1160.8  T

   *** convergence criteria satisfied after 13 iterations ***

         #    Occupation            Energy/Eh            Energy/eV
      -------------------------------------------------------------
         1        2.0000           -0.8350050             -22.7216
       ...           ...                  ...                  ...
        12        2.0000           -0.4964694             -13.5096
        13        2.0000           -0.4482617             -12.1978
        14        2.0000           -0.4475752             -12.1791
        15        2.0000           -0.4447470             -12.1022
        16        2.0000           -0.4284706             -11.6593
        17        2.0000           -0.4091891             -11.1346
        18        2.0000           -0.4003220             -10.8933 (HOMO)
        19                         -0.2491287              -6.7791 (LUMO)
        20                         -0.2476248              -6.7382
        21                         -0.2078694              -5.6564
        22                         -0.1204025              -3.2763
        23                          0.0392969               1.0693
       ...                                ...                  ...
        38                          0.6424778              17.4827
      -------------------------------------------------------------
                  HL-Gap            0.1511933 Eh            4.1142 eV
             Fermi-level           -0.3247254 Eh           -8.8362 eV

 SCC (total)                   0 d,  0 h,  0 min,  0.022 sec
 SCC setup                      ...        0 min,  0.000 sec (  0.815%)
 Dispersion                     ...        0 min,  0.000 sec (  0.268%)
 classical contributions        ...        0 min,  0.000 sec (  0.073%)
 integral evaluation            ...        0 min,  0.014 sec ( 65.571%)
 iterations                     ...        0 min,  0.004 sec ( 19.703%)
 molecular gradient             ...        0 min,  0.003 sec ( 12.878%)
 printout                       ...        0 min,  0.000 sec (  0.592%)

         :::::::::::::::::::::::::::::::::::::::::::::::::::::
         ::                     SUMMARY                     ::
         :::::::::::::::::::::::::::::::::::::::::::::::::::::
         :: total energy             -19.461196209859 Eh    ::
         :: gradient norm              0.007530853727 Eh/a0 ::
         :: HOMO-LUMO gap              4.114178178056 eV    ::
         ::.................................................::
         :: SCC energy               -19.767406244289 Eh    ::
         :: -> isotropic ES            0.005491984921 Eh    ::
         :: -> anisotropic ES          0.000225882747 Eh    ::
         :: -> anisotropic XC          0.010248422684 Eh    ::
         :: -> dispersion             -0.010084371734 Eh    ::
         :: repulsion energy           0.306210034430 Eh    ::
         :: add. restraining           0.000000000000 Eh    ::
         :: total charge              -0.000000000000 e     ::
         :::::::::::::::::::::::::::::::::::::::::::::::::::::

           -------------------------------------------------
          |                Property Printout                |
           -------------------------------------------------

    * Orbital Energies and Occupations

         #    Occupation            Energy/Eh            Energy/eV
      -------------------------------------------------------------
         1        2.0000           -0.8350050             -22.7216
       ...           ...                  ...                  ...
         6        2.0000           -0.5895064             -16.0413
         7        2.0000           -0.5500634             -14.9680
         8        2.0000           -0.5193480             -14.1322
         9        2.0000           -0.5150443             -14.0151
        10        2.0000           -0.5061958             -13.7743
        11        2.0000           -0.5004638             -13.6183
        12        2.0000           -0.4964694             -13.5096
        13        2.0000           -0.4482617             -12.1978
        14        2.0000           -0.4475752             -12.1791
        15        2.0000           -0.4447470             -12.1022
        16        2.0000           -0.4284706             -11.6593
        17        2.0000           -0.4091891             -11.1346
        18        2.0000           -0.4003220             -10.8933 (HOMO)
        19                         -0.2491287              -6.7791 (LUMO)
        20                         -0.2476248              -6.7382
        21                         -0.2078694              -5.6564
        22                         -0.1204025              -3.2763
        23                          0.0392969               1.0693
        24                          0.0417622               1.1364
        25                          0.0438333               1.1928
        26                          0.0788297               2.1451
        27                          0.1105217               3.0074
        28                          0.1290579               3.5118
        29                          0.1560313               4.2458
       ...                                ...                  ...
        38                          0.6424778              17.4827
      -------------------------------------------------------------
                  HL-Gap            0.1511933 Eh            4.1142 eV
             Fermi-level           -0.3247254 Eh           -8.8362 eV

     #   Z          covCN         q      C6AA      α(0)
     1   6 C        2.919    -0.029    28.726     8.789
     2   6 C        2.924    -0.026    28.656     8.779
     3   6 C        2.983    -0.033    28.812     8.805
     4   6 C        2.919     0.084    26.121     8.381
     5   6 C        2.983    -0.033    28.812     8.805
     6   6 C        2.924    -0.026    28.656     8.779
     7  35 Br       1.050    -0.178   189.981    22.224
     8   1 H        0.926     0.043     2.414     2.429
     9   1 H        0.926     0.045     2.388     2.416
    10   1 H        0.926     0.054     2.265     2.353
    11   1 H        0.926     0.054     2.265     2.353
    12   1 H        0.926     0.045     2.388     2.416

 Mol. C6AA /au·bohr⁶  :       2844.783075
 Mol. C8AA /au·bohr⁸  :      94719.044362
 Mol. α(0) /au        :         86.529639


Wiberg/Mayer (AO) data.
largest (>0.10) Wiberg bond orders for each atom

 ---------------------------------------------------------------------------
     #   Z sym  total        # sym  WBO       # sym  WBO       # sym  WBO
 ---------------------------------------------------------------------------
     1   6 C    3.992 --     2 C    1.439     6 C    1.439     8 H    0.970
                             4 C    0.102
     2   6 C    3.992 --     1 C    1.439     3 C    1.437     9 H    0.969
                             5 C    0.111
     3   6 C    3.990 --     2 C    1.437     4 C    1.415    10 H    0.968
                             6 C    0.111
     4   6 C    3.937 --     5 C    1.415     3 C    1.415     7 Br   0.972
                             1 C    0.102
     5   6 C    3.990 --     6 C    1.437     4 C    1.415    11 H    0.968
                             2 C    0.111
     6   6 C    3.992 --     1 C    1.439     5 C    1.437    12 H    0.969
                             3 C    0.111
     7  35 Br   1.103 --     4 C    0.972
     8   1 H    0.997 --     1 C    0.970
     9   1 H    0.998 --     2 C    0.969
    10   1 H    0.997 --     3 C    0.968
    11   1 H    0.997 --     5 C    0.968
    12   1 H    0.998 --     6 C    0.969
 ---------------------------------------------------------------------------

Topologies differ in total number of bonds
Writing topology from bond orders to xtbtopo.mol

molecular dipole:
                 x           y           z       tot (Debye)
 q only:       -0.982       0.000      -0.000
   full:       -1.404       0.000      -0.000       3.570
molecular quadrupole (traceless):
                xx          xy          yy          xz          yz          zz
 q only:        0.114       0.000       1.909       0.001       0.000      -2.023
  q+dip:       -1.904       0.000       5.843       0.001       0.001      -3.939
   full:       -2.014       0.000       3.817       0.001       0.001      -1.804


           -------------------------------------------------
          | TOTAL ENERGY              -19.461196209859 Eh   |
          | GRADIENT NORM               0.007530853727 Eh/α |
          | HOMO-LUMO GAP               4.114178178056 eV   |
           -------------------------------------------------

------------------------------------------------------------------------
 * finished run on 2025/04/03 at 21:39:56.018     
------------------------------------------------------------------------
 total:
 * wall-time:     0 d,  0 h,  0 min,  0.059 sec
 *  cpu-time:     0 d,  0 h,  0 min,  0.017 sec
 * ratio c/w:     0.289 speedup
 SCF:
 * wall-time:     0 d,  0 h,  0 min,  0.022 sec
 *  cpu-time:     0 d,  0 h,  0 min,  0.010 sec
 * ratio c/w:     0.449 speedup

