      -----------------------------------------------------------      
     |                   =====================                   |     
     |                           x T B                           |     
     |                   =====================                   |     
     |                         S. Grimme                         |     
     |          Mulliken Center for Theoretical Chemistry        |     
     |                    University of Bonn                     |     
      -----------------------------------------------------------      

   * xtb version 6.7.1 (edcfbbe) compiled by 'albert@albert-system' on 2024-07-22

   xtb is free software: you can redistribute it and/or modify it under
   the terms of the GNU Lesser General Public License as published by
   the Free Software Foundation, either version 3 of the License, or
   (at your option) any later version.
   
   xtb is distributed in the hope that it will be useful,
   but WITHOUT ANY WARRANTY; without even the implied warranty of
   MERCHANTABILITY or FITNESS FOR A PARTICULAR PURPOSE.  See the
   GNU Lesser General Public License for more details.
   
   Cite this work as:
   * C. Bannwarth, E. Caldeweyher, S. Ehlert, A. Hansen, P. Pracht,
     J. Seibert, S. Spicher, S. Grimme, WIREs Comput. Mol. Sci., 2020, 11,
     e01493. DOI: 10.1002/wcms.1493
   
   for GFN2-xTB:
   * C. Bannwarth, S. Ehlert and S. Grimme., J. Chem. Theory Comput., 2019,
     15, 1652-1671. DOI: 10.1021/acs.jctc.8b01176
   for GFN1-xTB:
   * S. Grimme, C. Bannwarth, P. Shushkov, J. Chem. Theory Comput., 2017,
     13, 1989-2009. DOI: 10.1021/acs.jctc.7b00118
   for GFN0-xTB:
   * P. Pracht, E. Caldeweyher, S. Ehlert, S. Grimme, ChemRxiv, 2019, preprint.
     DOI: 10.26434/chemrxiv.8326202.v1
   for GFN-FF:
   * S. Spicher and S. Grimme, Angew. Chem. Int. Ed., 2020, 59, 15665-15673.
     DOI: 10.1002/anie.202004239
   
   for ALPB and GBSA implicit solvation:
   * S. Ehlert, M. Stahn, S. Spicher, S. Grimme, J. Chem. Theory Comput.,
     2021, 17, 4250-4261. DOI: 10.1021/acs.jctc.1c00471
   
   for ddCOSMO and CPCM-X implicit solvation:
   * M. Stahn, S. Ehlert, S. Grimme, J. Phys. Chem. A,
     2023, XX, XXXX-XXXX. DOI: 10.1021/acs.jpca.3c04382
   
   for DFT-D4:
   * E. Caldeweyher, C. Bannwarth and S. Grimme, J. Chem. Phys., 2017,
     147, 034112. DOI: 10.1063/1.4993215
   * E. Caldeweyher, S. Ehlert, A. Hansen, H. Neugebauer, S. Spicher,
     C. Bannwarth and S. Grimme, J. Chem. Phys., 2019, 150, 154122.
     DOI: 10.1063/1.5090222
   * E. Caldeweyher, J.-M. Mewes, S. Ehlert and S. Grimme, Phys. Chem. Chem. Phys.
     2020, 22, 8499-8512. DOI: 10.1039/D0CP00502A
   
   for sTDA-xTB:
   * S. Grimme and C. Bannwarth, J. Chem. Phys., 2016, 145, 054103.
     DOI: 10.1063/1.4959605
   
   in the mass-spec context:
   * V. Asgeirsson, C. Bauer and S. Grimme, Chem. Sci., 2017, 8, 4879.
     DOI: 10.1039/c7sc00601b
   * J. Koopman and S. Grimme, ACS Omega 2019, 4, 12, 15120-15133.
     DOI: 10.1021/acsomega.9b02011
   
   for metadynamics refer to:
   * S. Grimme, J. Chem. Theory Comput., 2019, 155, 2847-2862
     DOI: 10.1021/acs.jctc.9b00143
   
   for SPH calculations refer to:
   * S. Spicher and S. Grimme, J. Chem. Theory Comput., 2021, 17, 1701-1714
     DOI: 10.1021/acs.jctc.0c01306
   
   for ONIOM refer to:
   * C. Plett, A. Katbashev, S. Ehlert, S. Grimme, M. Bursch,
     Phys. Chem. Chem. Phys., 2023, 25, 17860-17868. DOI: 10.1039/D3CP02178E
   
   for DIPRO refer to:
   * J. Kohn, N. Gildemeister, S. Grimme, D. Fazzi, A. Hansen,
     J. Chem. Phys., 2023, just accepted.
   
   for PTB refer to:
   * S. Grimme, M. Mueller, A. Hansen, J. Chem. Phys., 2023, 158, 124111.
     DOI: 10.1063/5.0137838
   
   with help from (in alphabetical order)
   P. Atkinson, C. Bannwarth, F. Bohle, G. Brandenburg, E. Caldeweyher
   M. Checinski, S. Dohm, S. Ehlert, S. Ehrlich, I. Gerasimov, C. Hölzer
   A. Katbashev, J. Kohn, J. Koopman, C. Lavigne, S. Lehtola, F. März, M. Müller,
   F. Musil, H. Neugebauer, J. Pisarek, C. Plett, P. Pracht, F. Pultar,
   J. Seibert, P. Shushkov, S. Spicher, M. Stahn, M. Steiner, T. Strunk,
   J. Stückrath, T. Rose, and J. Unsleber
   
 * started run on 2025/04/05 at 18:53:39.686     
   ID    Z sym.   atoms
    1    6 C      1, 2, 4-9
    2    8 O      3
    3    1 H      10-23

           -------------------------------------------------
          |                Calculation Setup                |
           -------------------------------------------------

          program call               : /srv/scratch/z5358697/.xtb/bin/xtb gas.coord --gfn2 --sp --chrg 0 --norestart --parallel 1
          hostname                   : k140
          coordinate file            : gas.coord
          omp threads                :                     1


           -------------------------------------------------
          |                 G F N 2 - x T B                 |
           -------------------------------------------------

        Reference                      10.1021/acs.jctc.8b01176
      * Hamiltonian:
        H0-scaling (s, p, d)           1.850000    2.230000    2.230000
        zeta-weighting                 0.500000
      * Dispersion:
        s8                             2.700000
        a1                             0.520000
        a2                             5.000000
        s9                             5.000000
      * Repulsion:
        kExp                           1.500000    1.000000
        rExp                           1.000000
      * Coulomb:
        alpha                          2.000000
        third order                    shell-resolved
        anisotropic                    true
        a3                             3.000000
        a5                             4.000000
        cn-shift                       1.200000
        cn-exp                         4.000000
        max-rad                        5.000000


          ...................................................
          :                      SETUP                      :
          :.................................................:
          :  # basis functions                  50          :
          :  # atomic orbitals                  50          :
          :  # shells                           32          :
          :  # electrons                        52          :
          :  max. iterations                   250          :
          :  Hamiltonian                  GFN2-xTB          :
          :  restarted?                      false          :
          :  GBSA solvation                  false          :
          :  PC potential                    false          :
          :  electronic temp.          300.0000000     K    :
          :  accuracy                    1.0000000          :
          :  -> integral cutoff          0.2500000E+02      :
          :  -> integral neglect         0.1000000E-07      :
          :  -> SCF convergence          0.1000000E-05 Eh   :
          :  -> wf. convergence          0.1000000E-03 e    :
          :  Broyden damping             0.4000000          :
          :  net charge                          0          :
          :  unpaired electrons                  0          :
          ...................................................

 iter      E             dE          RMSdq      gap      omega  full diag
   1    -28.6440581 -0.286441E+02  0.343E+00    4.60       0.0  T
   2    -28.7121415 -0.680834E-01  0.179E+00    3.61       1.0  T
   3    -28.7181873 -0.604586E-02  0.116E+00    4.09       1.0  T
   4    -28.7221776 -0.399033E-02  0.194E-01    3.80       1.0  T
   5    -28.7224728 -0.295182E-03  0.785E-02    3.87       1.0  T
   6    -28.7224970 -0.242040E-04  0.274E-02    3.86       1.0  T
   7    -28.7224974 -0.390162E-06  0.639E-03    3.86       3.3  T
   8    -28.7224977 -0.252548E-06  0.201E-03    3.86      10.4  T
   9    -28.7224977 -0.114908E-08  0.843E-04    3.86      24.7  T
  10    -28.7224977 -0.502219E-08  0.276E-04    3.86      75.5  T

   *** convergence criteria satisfied after 10 iterations ***

         #    Occupation            Energy/Eh            Energy/eV
      -------------------------------------------------------------
         1        2.0000           -0.7038070             -19.1516
       ...           ...                  ...                  ...
        20        2.0000           -0.4633936             -12.6096
        21        2.0000           -0.4574148             -12.4469
        22        2.0000           -0.4506181             -12.2619
        23        2.0000           -0.4264770             -11.6050
        24        2.0000           -0.4201102             -11.4318
        25        2.0000           -0.4130331             -11.2392
        26        2.0000           -0.3900891             -10.6149 (HOMO)
        27                         -0.2483730              -6.7586 (LUMO)
        28                          0.0513256               1.3966
        29                          0.0705231               1.9190
        30                          0.0819121               2.2289
        31                          0.0919249               2.5014
       ...                                ...                  ...
        50                          0.6062387              16.4966
      -------------------------------------------------------------
                  HL-Gap            0.1417160 Eh            3.8563 eV
             Fermi-level           -0.3192311 Eh           -8.6867 eV

 SCC (total)                   0 d,  0 h,  0 min,  0.015 sec
 SCC setup                      ...        0 min,  0.000 sec (  1.019%)
 Dispersion                     ...        0 min,  0.000 sec (  0.680%)
 classical contributions        ...        0 min,  0.000 sec (  0.130%)
 integral evaluation            ...        0 min,  0.002 sec ( 12.451%)
 iterations                     ...        0 min,  0.008 sec ( 53.904%)
 molecular gradient             ...        0 min,  0.005 sec ( 31.064%)
 printout                       ...        0 min,  0.000 sec (  0.694%)

         :::::::::::::::::::::::::::::::::::::::::::::::::::::
         ::                     SUMMARY                     ::
         :::::::::::::::::::::::::::::::::::::::::::::::::::::
         :: total energy             -28.342125136199 Eh    ::
         :: gradient norm              0.023814460136 Eh/a0 ::
         :: HOMO-LUMO gap              3.856289204439 eV    ::
         ::.................................................::
         :: SCC energy               -28.722404536340 Eh    ::
         :: -> isotropic ES            0.028769765453 Eh    ::
         :: -> anisotropic ES          0.004765071278 Eh    ::
         :: -> anisotropic XC          0.012964796897 Eh    ::
         :: -> dispersion             -0.016895410052 Eh    ::
         :: repulsion energy           0.380279400140 Eh    ::
         :: add. restraining           0.000000000000 Eh    ::
         :: total charge               0.000000000000 e     ::
         :::::::::::::::::::::::::::::::::::::::::::::::::::::

           -------------------------------------------------
          |                Property Printout                |
           -------------------------------------------------

    * Orbital Energies and Occupations

         #    Occupation            Energy/Eh            Energy/eV
      -------------------------------------------------------------
         1        2.0000           -0.7038070             -19.1516
       ...           ...                  ...                  ...
        14        2.0000           -0.5024385             -13.6720
        15        2.0000           -0.4972539             -13.5310
        16        2.0000           -0.4822608             -13.1230
        17        2.0000           -0.4754986             -12.9390
        18        2.0000           -0.4695558             -12.7773
        19        2.0000           -0.4678218             -12.7301
        20        2.0000           -0.4633936             -12.6096
        21        2.0000           -0.4574148             -12.4469
        22        2.0000           -0.4506181             -12.2619
        23        2.0000           -0.4264770             -11.6050
        24        2.0000           -0.4201102             -11.4318
        25        2.0000           -0.4130331             -11.2392
        26        2.0000           -0.3900891             -10.6149 (HOMO)
        27                         -0.2483730              -6.7586 (LUMO)
        28                          0.0513256               1.3966
        29                          0.0705231               1.9190
        30                          0.0819121               2.2289
        31                          0.0919249               2.5014
        32                          0.1082986               2.9470
        33                          0.1101541               2.9974
        34                          0.1199432               3.2638
        35                          0.1540878               4.1929
        36                          0.1587675               4.3203
        37                          0.1681894               4.5767
       ...                                ...                  ...
        50                          0.6062387              16.4966
      -------------------------------------------------------------
                  HL-Gap            0.1417160 Eh            3.8563 eV
             Fermi-level           -0.3192311 Eh           -8.6867 eV

     #   Z          covCN         q      C6AA      α(0)
     1   6 C        3.754    -0.137    23.197     6.868
     2   6 C        2.818     0.236    23.071     7.870
     3   8 O        0.857    -0.366    21.020     6.147
     4   6 C        3.855    -0.041    21.266     6.559
     5   6 C        3.807    -0.057    21.601     6.616
     6   6 C        3.804    -0.056    21.583     6.614
     7   6 C        3.804    -0.056    21.583     6.614
     8   6 C        3.804    -0.056    21.572     6.612
     9   6 C        3.809    -0.049    21.442     6.591
    10   1 H        0.925     0.069     2.100     2.266
    11   1 H        0.925     0.067     2.113     2.273
    12   1 H        0.925     0.060     2.200     2.319
    13   1 H        0.924     0.039     2.456     2.451
    14   1 H        0.924     0.055     2.261     2.351
    15   1 H        0.924     0.028     2.615     2.529
    16   1 H        0.924     0.037     2.486     2.466
    17   1 H        0.924     0.031     2.578     2.511
    18   1 H        0.924     0.030     2.592     2.518
    19   1 H        0.924     0.032     2.559     2.502
    20   1 H        0.924     0.034     2.536     2.490
    21   1 H        0.924     0.029     2.600     2.521
    22   1 H        0.924     0.047     2.364     2.404
    23   1 H        0.924     0.026     2.643     2.542

 Mol. C6AA /au·bohr⁶  :       4062.121422
 Mol. C8AA /au·bohr⁸  :      88412.886071
 Mol. α(0) /au        :         94.635529


Wiberg/Mayer (AO) data.
largest (>0.10) Wiberg bond orders for each atom

 ---------------------------------------------------------------------------
     #   Z sym  total        # sym  WBO       # sym  WBO       # sym  WBO
 ---------------------------------------------------------------------------
     1   6 C    3.995 --     2 C    1.010    11 H    0.981    12 H    0.968
                            10 H    0.954
     2   6 C    3.916 --     3 O    1.855     1 C    1.010     4 C    0.977
     3   8 O    2.065 --     2 C    1.855
     4   6 C    3.995 --     5 C    0.988     2 C    0.977    13 H    0.965
                             9 C    0.964
     5   6 C    3.995 --     6 C    1.005     4 C    0.988    15 H    0.981
                            14 H    0.973
     6   6 C    3.997 --     7 C    1.010     5 C    1.005    16 H    0.979
                            17 H    0.978
     7   6 C    3.998 --     6 C    1.010     8 C    1.005    19 H    0.980
                            18 H    0.979
     8   6 C    3.997 --     7 C    1.005     9 C    1.002    21 H    0.981
                            20 H    0.979
     9   6 C    3.995 --     8 C    1.002    22 H    0.978    23 H    0.977
                             4 C    0.964
    10   1 H    0.995 --     1 C    0.954
    11   1 H    0.995 --     1 C    0.981
    12   1 H    0.996 --     1 C    0.968
    13   1 H    0.998 --     4 C    0.965
    14   1 H    0.997 --     5 C    0.973
    15   1 H    0.999 --     5 C    0.981
    16   1 H    0.999 --     6 C    0.979
    17   1 H    0.999 --     6 C    0.978
    18   1 H    0.999 --     7 C    0.979
    19   1 H    0.999 --     7 C    0.980
    20   1 H    0.999 --     8 C    0.979
    21   1 H    0.999 --     8 C    0.981
    22   1 H    0.998 --     9 C    0.978
    23   1 H    0.999 --     9 C    0.977
 ---------------------------------------------------------------------------

Topologies differ in total number of bonds
Writing topology from bond orders to xtbtopo.mol

molecular dipole:
                 x           y           z       tot (Debye)
 q only:        0.507      -0.008       0.939
   full:        0.526      -0.012       1.164       3.248
molecular quadrupole (traceless):
                xx          xy          yy          xz          yz          zz
 q only:       -0.696      -0.054       1.287      -6.826      -0.390      -0.590
  q+dip:       -1.788      -0.117       1.965      -8.226       0.709      -0.176
   full:       -1.711      -0.318       2.701      -8.250       0.253      -0.990


           -------------------------------------------------
          | TOTAL ENERGY              -28.342125136199 Eh   |
          | GRADIENT NORM               0.023814460136 Eh/α |
          | HOMO-LUMO GAP               3.856289204439 eV   |
           -------------------------------------------------

------------------------------------------------------------------------
 * finished run on 2025/04/05 at 18:53:39.730     
------------------------------------------------------------------------
 total:
 * wall-time:     0 d,  0 h,  0 min,  0.043 sec
 *  cpu-time:     0 d,  0 h,  0 min,  0.022 sec
 * ratio c/w:     0.511 speedup
 SCF:
 * wall-time:     0 d,  0 h,  0 min,  0.016 sec
 *  cpu-time:     0 d,  0 h,  0 min,  0.014 sec
 * ratio c/w:     0.870 speedup

