
                                 *****************
                                 * O   R   C   A *
                                 *****************

                                            #,                                       
                                            ###                                      
                                            ####                                     
                                            #####                                    
                                            ######                                   
                                           ########,                                 
                                     ,,################,,,,,                         
                               ,,#################################,,                 
                          ,,##########################################,,             
                       ,#########################################, ''#####,          
                    ,#############################################,,   '####,        
                  ,##################################################,,,,####,       
                ,###########''''           ''''###############################       
              ,#####''   ,,,,##########,,,,          '''####'''          '####       
            ,##' ,,,,###########################,,,                        '##       
           ' ,,###''''                  '''############,,,                           
         ,,##''                                '''############,,,,        ,,,,,,###''
      ,#''                                            '''#######################'''  
     '                                                          ''''####''''         
             ,#######,   #######,   ,#######,      ##                                
            ,#'     '#,  ##    ##  ,#'     '#,    #''#        ,####,   ,####,        
            ##       ##  ##   ,#'  ##            #'  '#       #'       #'  '#        
            ##       ##  #######   ##           ,######,      #####,   #    #        
            '#,     ,#'  ##    ##  '#,     ,#' ,#      #,     #,   #   #,  ,#        
             '#######'   ##     ##  '#######'  #'      '#     '####' # '####'        



                #########################################################
                #                        -***-                          #
                #          Department of theory and spectroscopy        #
                #                                                       #
                #                      Frank Neese                      #
                #                                                       #
                #     Directorship, Architecture, Infrastructure        #
                #                    SHARK, DRIVERS                     #
                #        Core code/Algorithms in most modules           #
                #                                                       #
                #        Max Planck Institute fuer Kohlenforschung      #
                #                Kaiser Wilhelm Platz 1                 #
                #                 D-45470 Muelheim/Ruhr                 #
                #                      Germany                          #
                #                                                       #
                #                  All rights reserved                  #
                #                        -***-                          #
                #########################################################


                         Program Version 6.0.0  -   RELEASE  -


 With contributions from (in alphabetic order):
   Daniel Aravena         : Magnetic Suceptibility
   Michael Atanasov       : Ab Initio Ligand Field Theory (pilot matlab implementation)
   Alexander A. Auer      : GIAO ZORA, VPT2 properties, NMR spectrum
   Ute Becker             : All parallelization in ORCA, NUMFREQ, NUMCALC
   Giovanni Bistoni       : ED, misc. LED, open-shell LED, HFLD
   Martin Brehm           : Molecular dynamics
   Dmytro Bykov           : pre 5.0 version of the SCF Hessian
   Marcos Casanova-Páez   : Triplet and SCS-CIS(D). UHF-(DLPNO)-IP/EA/STEOM-CCSD. UHF-CVS-IP/STEOM-CCSD
   Vijay G. Chilkuri      : MRCI spin determinant printing, contributions to CSF-ICE
   Pauline Colinet        : FMM embedding
   Dipayan Datta          : RHF DLPNO-CCSD density
   Achintya Kumar Dutta   : EOM-CC, STEOM-CC
   Nicolas Foglia         : Exact transition moments, OPA infrastructure, MCD improvements
   Dmitry Ganyushin       : Spin-Orbit,Spin-Spin,Magnetic field MRCI
   Miquel Garcia          : C-PCM and meta-GGA Hessian, CCSD/C-PCM, Gaussian charge scheme
   Tiago L. C. Gouveia    : GS-ROHF, GS-ROCIS
   Yang Guo               : DLPNO-NEVPT2, F12-NEVPT2, CIM, IAO-localization
   Andreas Hansen         : Spin unrestricted coupled pair/coupled cluster methods
   Ingolf Harden          : AUTO-CI MPn and infrastructure 
   Benjamin Helmich-Paris : MC-RPA, TRAH-(SCF,CASSCF), AVAS, COSX integrals, SCF dyn. polar.
   Lee Huntington         : MR-EOM, pCC
   Robert Izsak           : Overlap fitted RIJCOSX, COSX-SCS-MP3, EOM
   Riya Kayal             : Wick's Theorem for AUTO-CI, AUTO-CI UHF-CCSDT
   Emily Kempfer          : AUTO-CI, RHF CISDT and CCSDT
   Christian Kollmar      : KDIIS, OOCD, Brueckner-CCSD(T), CCSD density, CASPT2, CASPT2-K, improved NEVPT2
   Axel Koslowski         : Symmetry handling
   Simone Kossmann        : Meta GGA functionals, TD-DFT gradient, OOMP2, (MP2 Hessian; deprecated post 5.0)
   Lucas Lang             : DCDCAS
   Marvin Lechner         : AUTO-CI (C++ implementation), FIC-MRCC
   Spencer Leger          : CASSCF response
   Dagmar Lenk            : GEPOL surface, SMD, ORCA-2-JSON
   Dimitrios Liakos       : Extrapolation schemes; Compound Job, initial MDCI parallelization
   Dimitrios Manganas     : Further ROCIS development; embedding schemes. LFT, Crystal Embedding
   Dimitrios Pantazis     : SARC Basis sets
   Anastasios Papadopoulos: AUTO-CI, single reference methods and gradients
   Taras Petrenko         : pre 6.0 DFT Hessian and TD-DFT gradient, (ASA, deprecated), ECA, 1-Electron XAS/XES, NRVS
   Peter Pinski           : DLPNO-MP2, DLPNO-MP2 Gradient
   Christoph Reimann      : Effective Core Potentials
   Marius Retegan         : Local ZFS, SOC
   Christoph Riplinger    : Optimizer, TS searches, QM/MM, DLPNO-CCSD(T), (RO)-DLPNO pert. Triples
   Michael Roemelt        : Original ROCIS implementation
   Masaaki Saitow         : Open-shell DLPNO-CCSD energy and density
   Barbara Sandhoefer     : DKH picture change effects
   Kantharuban Sivalingam : CASSCF convergence/infrastructure, NEVPT2 and variants, FIC-MRCI
   Bernardo de Souza      : ESD, SOC TD-DFT
   Georgi Stoychev        : AutoAux, RI-MP2 NMR, DLPNO-MP2 response, X2C
   Van Anh Tran           : RI-MP2 g-tensors
   Willem Van den Heuvel  : Paramagnetic NMR
   Zikuan Wang            : NOTCH, Electric field optimization 
   Frank Wennmohs         : Technical directorship and infrastructure
   Hang Xu                : AUTO-CI-Response properties 


 We gratefully acknowledge several colleagues who have allowed us to
 interface, adapt or use parts of their codes:
   Stefan Grimme, W. Hujo, H. Kruse, P. Pracht,  : VdW corrections, initial TS optimization,
                  C. Bannwarth, S. Ehlert,         DFT functionals, gCP, sTDA/sTD-DF
                  L. Wittmann, M. Mueller
   Ed Valeev, F. Pavosevic, A. Kumar             : LibInt (2-el integral package), F12 methods
   Garnet Chan, S. Sharma, J. Yang, R. Olivares  : DMRG
   Ulf Ekstrom                                   : XCFun DFT Library
   Mihaly Kallay                                 : mrcc  (arbitrary order and MRCC methods)
   Frank Weinhold                                : gennbo (NPA and NBO analysis)
   Simon Mueller                                 : openCOSMO-RS
   Christopher J. Cramer and Donald G. Truhlar   : smd solvation model
   Lars Goerigk                                  : TD-DFT with DH, B97 family of functionals
   V. Asgeirsson, H. Jonsson                     : NEB implementation
   FAccTs GmbH                                   : IRC, NEB, NEB-TS, DLPNO-Multilevel, CI-OPT
                                                   MM, QMMM, 2- and 3-layer-ONIOM, Crystal-QMMM,
                                                   LR-CPCM, SF, NACMEs, symmetry and pop. for TD-DFT,
                                                   nearIR, NL-DFT gradient (VV10), updates on ESD,
                                                   ML-optimized integration grids, MBIS, APM,
                                                   GOAT, DOCKER, SOLVATOR, interface openCOSMO-RS
   S Lehtola, MJT Oliveira, MAL Marques          : LibXC Library
   Liviu Ungur et al                             : ANISO software


 Your calculation uses the libint2 library for the computation of 2-el integrals
 For citations please refer to: http://libint.valeyev.net

 Your ORCA version has been built with support for libXC version: 6.2.2
 For citations please refer to: https://libxc.gitlab.io

 This ORCA versions uses:
   CBLAS   interface :  Fast vector & matrix operations
   LAPACKE interface :  Fast linear algebra routines
   SCALAPACK package :  Parallel linear algebra routines
   Shared memory     :  Shared parallel matrices
   BLAS/LAPACK       :  OpenBLAS 0.3.27  USE64BITINT DYNAMIC_ARCH NO_AFFINITY SkylakeX SINGLE_THREADED
        Core in use  :  SkylakeX
   Copyright (c) 2011-2014, The OpenBLAS Project


Your calculation utilizes the geometrical counterpoise correction gCP
Please cite in your paper:
H.Kruse, S. Grimme J.Chem.Phys., 136, (2012), 154101 
   

Your calculation utilizes the atom-pairwise dispersion correction
based on EEQ partial charges (D4)


================================================================================

----- Orbital basis set information -----
Your calculation utilizes the basis: def2-mTZVPP
   Stefan Grimme, Andreas Hansen, Sebastian Ehlert, and Jan-Michael Mewes 
   J. Chem. Phys. 154, 064103 (2021). DOI: 10.1063/5.0040021

----- AuxJ basis set information -----
Your calculation utilizes the auxiliary basis: def2/J
   F. Weigend, Phys. Chem. Chem. Phys. 8, 1057 (2006).

================================================================================
                                        WARNINGS
                       Please study these warnings very carefully!
================================================================================

Using LibXC functional ID 497 : Re-regularized SCAN exchange by Furness et al
[ 1]  J. W. Furness, A. D. Kaplan, J. Ning, J. P. Perdew, and J. Sun.,  J. Phys. Chem. Lett. 11, 8208-8215 (2020)
[ 2]  J. W. Furness, A. D. Kaplan, J. Ning, J. P. Perdew, and J. Sun.,  J. Phys. Chem. Lett. 11, 9248-9248 (2020)
Using LibXC functional ID 498 : Re-regularized SCAN correlation by Furness et al
[ 1]  J. W. Furness, A. D. Kaplan, J. Ning, J. P. Perdew, and J. Sun.,  J. Phys. Chem. Lett. 11, 8208-8215 (2020)
[ 2]  J. W. Furness, A. D. Kaplan, J. Ning, J. P. Perdew, and J. Sun.,  J. Phys. Chem. Lett. 11, 9248-9248 (2020)
Using LibXC functional ID 497 : Re-regularized SCAN exchange by Furness et al
[ 1]  J. W. Furness, A. D. Kaplan, J. Ning, J. P. Perdew, and J. Sun.,  J. Phys. Chem. Lett. 11, 8208-8215 (2020)
[ 2]  J. W. Furness, A. D. Kaplan, J. Ning, J. P. Perdew, and J. Sun.,  J. Phys. Chem. Lett. 11, 9248-9248 (2020)
Using LibXC functional ID 498 : Re-regularized SCAN correlation by Furness et al
[ 1]  J. W. Furness, A. D. Kaplan, J. Ning, J. P. Perdew, and J. Sun.,  J. Phys. Chem. Lett. 11, 8208-8215 (2020)
[ 2]  J. W. Furness, A. D. Kaplan, J. Ning, J. P. Perdew, and J. Sun.,  J. Phys. Chem. Lett. 11, 9248-9248 (2020)

================================================================================
                                       INPUT FILE
================================================================================
NAME = sp_gas.inp
|  1> ! r2scan-3c def2/J RI DEFGRID2 scfconv6 printgap
|  2> %output
|  3>     printlevel normal
|  4> end
|  5> * xyz 0 1
|  6> C 2.7486241659 -0.0123876951 0.7282811213
|  7> C 1.9712064425 -0.0140403211 -0.5904022506
|  8> C 0.4958482453 0.0202668105 -0.3265299162
|  9> C -0.1909393657 1.2199234557 -0.1760451449
| 10> C -1.54587849 1.1957967887 0.1088067742
| 11> C -2.1696450034 -0.0354548337 0.2367510718
| 12> N -1.5325033327 -1.1882248988 0.0979686689
| 13> C -0.2383545033 -1.1518625973 -0.1747262227
| 14> H 2.4788039871 -0.8794196734 1.326853959
| 15> H 2.5216883198 0.8835593672 1.301508516
| 16> H 3.817550474 -0.0410117802 0.534942325
| 17> H 2.2217341414 -0.9132036488 -1.155476707
| 18> H 2.2589324524 0.8579627782 -1.1801493797
| 19> H 0.3310944067 2.1599414497 -0.2845208278
| 20> H -2.1068746122 2.1090346525 0.2284111518
| 21> H -3.2255622461 -0.1112814488 0.4584731255
| 22> H 0.2383975946 -2.118200271 -0.2812480746
| 23> *
| 24> 
| 25>                          ****END OF INPUT****
================================================================================

                       ****************************
                       * Single Point Calculation *
                       ****************************

---------------------------------
CARTESIAN COORDINATES (ANGSTROEM)
---------------------------------
  C      2.748624   -0.012388    0.728281
  C      1.971206   -0.014040   -0.590402
  C      0.495848    0.020267   -0.326530
  C     -0.190939    1.219923   -0.176045
  C     -1.545878    1.195797    0.108807
  C     -2.169645   -0.035455    0.236751
  N     -1.532503   -1.188225    0.097969
  C     -0.238355   -1.151863   -0.174726
  H      2.478804   -0.879420    1.326854
  H      2.521688    0.883559    1.301509
  H      3.817550   -0.041012    0.534942
  H      2.221734   -0.913204   -1.155477
  H      2.258932    0.857963   -1.180149
  H      0.331094    2.159941   -0.284521
  H     -2.106875    2.109035    0.228411
  H     -3.225562   -0.111281    0.458473
  H      0.238398   -2.118200   -0.281248

----------------------------
CARTESIAN COORDINATES (A.U.)
----------------------------
  NO LB      ZA    FRAG     MASS         X           Y           Z
   0 C     6.0000    0    12.011    5.194147   -0.023409    1.376252
   1 C     6.0000    0    12.011    3.725040   -0.026532   -1.115699
   2 C     6.0000    0    12.011    0.937017    0.038299   -0.617052
   3 C     6.0000    0    12.011   -0.360823    2.305321   -0.332677
   4 C     6.0000    0    12.011   -2.921287    2.259728    0.205615
   5 C     6.0000    0    12.011   -4.100035   -0.067000    0.447395
   6 N     7.0000    0    14.007   -2.896012   -2.245420    0.185134
   7 C     6.0000    0    12.011   -0.450425   -2.176705   -0.330185
   8 H     1.0000    0     1.008    4.684261   -1.661862    2.507391
   9 H     1.0000    0     1.008    4.765300    1.669685    2.459495
  10 H     1.0000    0     1.008    7.214125   -0.077501    1.010894
  11 H     1.0000    0     1.008    4.198469   -1.725705   -2.183535
  12 H     1.0000    0     1.008    4.268764    1.621315   -2.230159
  13 H     1.0000    0     1.008    0.625678    4.081698   -0.537666
  14 H     1.0000    0     1.008   -3.981416    3.985498    0.431635
  15 H     1.0000    0     1.008   -6.095429   -0.210291    0.866389
  16 H     1.0000    0     1.008    0.450506   -4.002818   -0.531482

--------------------------------
INTERNAL COORDINATES (ANGSTROEM)
--------------------------------
 C      0   0   0     0.000000000000     0.00000000     0.00000000
 C      1   0   0     1.530786361043     0.00000000     0.00000000
 C      2   1   0     1.499162232110   110.37368132     0.00000000
 C      3   2   1     1.390503130305   121.65899621    88.12917984
 C      4   3   2     1.384768118652   119.37371825   182.04798783
 C      5   4   3     1.386158347445   118.34410688     0.13557254
 N      6   5   4     1.324420207822   123.15967786   359.90949524
 C      7   6   5     1.323066859049   117.91969428     0.05810027
 H      1   2   3     1.087583018585   110.31959007    59.68923526
 H      1   2   3     1.087570992039   110.42371683   299.94013320
 H      1   2   3     1.086647449981   110.25963755   179.78993458
 H      2   1   3     1.091131504023   109.29349313   239.35475250
 H      2   1   3     1.091319081774   109.31511074   120.68360489
 H      4   3   2     1.080703503441   120.06552263     2.25252784
 H      5   4   3     1.078436484983   121.13445792   180.18112834
 H      6   5   4     1.081606013336   121.36587470   180.00708250
 H      8   7   6     1.082796364695   115.24073135   180.13018075

---------------------------
INTERNAL COORDINATES (A.U.)
---------------------------
 C      0   0   0     0.000000000000     0.00000000     0.00000000
 C      1   0   0     2.892766991913     0.00000000     0.00000000
 C      2   1   0     2.833006049006   110.37368132     0.00000000
 C      3   2   1     2.627670104637   121.65899621    88.12917984
 C      4   3   2     2.616832503237   119.37371825   182.04798783
 C      5   4   3     2.619459654919   118.34410688     0.13557254
 N      6   5   4     2.502791479015   123.15967786   359.90949524
 C      7   6   5     2.500234020469   117.91969428     0.05810027
 H      1   2   3     2.055234053029   110.31959007    59.68923526
 H      1   2   3     2.055211326150   110.42371683   299.94013320
 H      1   2   3     2.053466084589   110.25963755   179.78993458
 H      2   1   3     2.061939718698   109.29349313   239.35475250
 H      2   1   3     2.062294189275   109.31511074   120.68360489
 H      4   3   2     2.042233653474   120.06552263     2.25252784
 H      5   4   3     2.037949609447   121.13445792   180.18112834
 H      6   5   4     2.043939150008   121.36587470   180.00708250
 H      8   7   6     2.046188588079   115.24073135   180.13018075

---------------------
BASIS SET INFORMATION
---------------------
There are 3 groups of distinct atoms

 Group   1 Type C   : 11s6p1d contracted to 5s3p1d pattern {62111/411/1}
 Group   2 Type N   : 11s6p2d contracted to 5s3p2d pattern {62111/411/11}
 Group   3 Type H   : 4s1p contracted to 2s1p pattern {31/1}

Atom   0C    basis set group =>   1
Atom   1C    basis set group =>   1
Atom   2C    basis set group =>   1
Atom   3C    basis set group =>   1
Atom   4C    basis set group =>   1
Atom   5C    basis set group =>   1
Atom   6N    basis set group =>   2
Atom   7C    basis set group =>   1
Atom   8H    basis set group =>   3
Atom   9H    basis set group =>   3
Atom  10H    basis set group =>   3
Atom  11H    basis set group =>   3
Atom  12H    basis set group =>   3
Atom  13H    basis set group =>   3
Atom  14H    basis set group =>   3
Atom  15H    basis set group =>   3
Atom  16H    basis set group =>   3
---------------------------------
AUXILIARY/J BASIS SET INFORMATION
---------------------------------
There are 3 groups of distinct atoms

 Group   1 Type C   : 12s5p4d2f1g contracted to 6s4p3d1f1g pattern {711111/2111/211/2/1}
 Group   2 Type N   : 12s5p4d2f1g contracted to 6s4p3d1f1g pattern {711111/2111/211/2/1}
 Group   3 Type H   : 5s2p1d contracted to 3s1p1d pattern {311/2/1}

Atom   0C    basis set group =>   1
Atom   1C    basis set group =>   1
Atom   2C    basis set group =>   1
Atom   3C    basis set group =>   1
Atom   4C    basis set group =>   1
Atom   5C    basis set group =>   1
Atom   6N    basis set group =>   2
Atom   7C    basis set group =>   1
Atom   8H    basis set group =>   3
Atom   9H    basis set group =>   3
Atom  10H    basis set group =>   3
Atom  11H    basis set group =>   3
Atom  12H    basis set group =>   3
Atom  13H    basis set group =>   3
Atom  14H    basis set group =>   3
Atom  15H    basis set group =>   3
Atom  16H    basis set group =>   3

Checking for AutoStart:
The File: sp_gas.gbw exists
Trying to determine its content:
     ... Fine, the file contains calculation information
     ... Fine, the calculation information was read
     ... Fine, the file contains a basis set
     ... Fine, the basis set was read
     ... Fine, the file contains a geometry
     ... Fine, the geometry was read
     ... Fine, the file contains a set of orbitals
     ... Fine, the orbitals can be read
     => possible old guess file was deleted
     => GBW file was renamed to GES file
     => GES file is set as startup file
     => Guess is set to MORead
     ... now leaving AutoStart

------------------------------------------------------------------------------
                             ORCA STARTUP CALCULATIONS
                           -- RI-GTO INTEGRALS CHOSEN --
------------------------------------------------------------------------------
------------------------------------------------------------------------------
                   ___                                                        
                  /   \      - P O W E R E D   B Y -                         
                 /     \                                                     
                 |  |  |   _    _      __       _____    __    __             
                 |  |  |  | |  | |    /  \     |  _  \  |  |  /  |          
                  \  \/   | |  | |   /    \    | | | |  |  | /  /          
                 / \  \   | |__| |  /  /\  \   | |_| |  |  |/  /          
                |  |  |   |  __  | /  /__\  \  |    /   |      \           
                |  |  |   | |  | | |   __   |  |    \   |  |\   \          
                \     /   | |  | | |  |  |  |  | |\  \  |  | \   \       
                 \___/    |_|  |_| |__|  |__|  |_| \__\ |__|  \__/        
                                                                              
                      - O R C A' S   B I G   F R I E N D -                    
                                      &                                       
                       - I N T E G R A L  F E E D E R -                       
                                                                              
 v1 FN, 2020, v2 2021, v3 2022-2024                                           
------------------------------------------------------------------------------


----------------------
SHARK INTEGRAL PACKAGE
----------------------

Number of atoms                             ...     17
Number of basis functions                   ...    202
Number of shells                            ...    100
Maximum angular momentum                    ...      2
Integral batch strategy                     ... SHARK/LIBINT Hybrid
RI-J (if used) integral strategy            ... SPLIT-RIJ (Revised 2003 algorithm where possible)
Printlevel                                  ...      1
Contraction scheme used                     ... SEGMENTED contraction
Prescreening option                         ... SCHWARTZ
   Thresh                                   ... 1.000e-10
   Tcut                                     ... 1.000e-11
   Tpresel                                  ... 1.000e-11 
Coulomb Range Separation                    ... NOT USED
Exchange Range Separation                   ... NOT USED
Multipole approximations                    ... NOT USED
Finite Nucleus Model                        ... NOT USED
CABS basis                                  ... NOT available
Auxiliary Coulomb fitting basis             ... AVAILABLE
   # of basis functions in Aux-J            ...    491
   # of shells in Aux-J                     ...    165
   Maximum angular momentum in Aux-J        ...      4
Auxiliary J/K fitting basis                 ... NOT available
Auxiliary Correlation fitting basis         ... NOT available
Auxiliary 'external' fitting basis          ... NOT available

Checking pre-screening integrals            ... done (  0.0 sec) Dimension = 100
Check shell pair data                       ... done (  0.0 sec)
Shell pair information
Shell pair cut-off parameter TPreSel        ...   1.0e-11
Total number of shell pairs                 ...      5050
Shell pairs after pre-screening             ...      4578
Total number of primitive shell pairs       ...     18348
Primitive shell pairs kept                  ...     11929
          la=0 lb=0:   1515 shell pairs
          la=1 lb=0:   1743 shell pairs
          la=1 lb=1:    520 shell pairs
          la=2 lb=0:    480 shell pairs
          la=2 lb=1:    277 shell pairs
          la=2 lb=2:     43 shell pairs

Calculating one electron integrals          ... done (  0.0 sec)
Calculating RI/J V-Matrix + Cholesky decomp.... done (  0.1 sec)
Calculating Nuclear repulsion               ... done (  0.0 sec) ENN=    345.746307594190 Eh

Diagonalization of the overlap matrix:
Smallest eigenvalue                        ... 8.788e-05
Time for diagonalization                   ...    0.003 sec
Threshold for overlap eigenvalues          ... 1.000e-07
Number of eigenvalues below threshold      ... 0
Time for construction of square roots      ...    0.014 sec
Total time needed                          ...    0.024 sec

-------------------
DFT GRID GENERATION
-------------------

General Integration Accuracy     IntAcc      ... 4.388
Radial Grid Type                 RadialGrid  ... OptM3 with GC (2021)
Angular Grid (max. ang.)         AngularGrid ... 4 (Lebedev-302)
Angular grid pruning method      GridPruning ... 4 (adaptive)
Weight generation scheme         WeightScheme... mBecke (2022)
Basis function cutoff            BFCut       ... 1.0000e-10
Integration weight cutoff        WCut        ... 1.0000e-14
Partially contracted basis set               ... off
Rotationally invariant grid construction     ... off
Angular grids for H and He will be reduced by one unit

Total number of grid points                  ...    77008
Total number of batches                      ...     1213
Average number of points per batch           ...       63
Average number of grid points per atom       ...     4530
Initializing property integral containers    ... done (  0.2 sec)

SHARK setup successfully completed in   1.1 seconds

Maximum memory used throughout the entire STARTUP-calculation: 34.6 MB
-------------------------------------------------------------------------------
                                 ORCA GUESS
                   Start orbitals & Density for SCF / CASSCF
-------------------------------------------------------------------------------

------------
SCF SETTINGS
------------
Hamiltonian:
 Density Functional     Method          .... DFT(GTOs)
  Functional kind                       .... Exchange
  Functional name                       .... Re-regularized SCAN exchange by Furness et al
  Functional family                     .... MGGA
  Functional refs                              
    [ 0] J. W. Furness, A. D. Kaplan, J. Ning, J. P. Perdew, and J. Sun.,  J. Phys. Chem. Lett. 11, 8208-8215 (2020), doi: 10.1021/acs.jpclett.0c02405
    [ 1] J. W. Furness, A. D. Kaplan, J. Ning, J. P. Perdew, and J. Sun.,  J. Phys. Chem. Lett. 11, 9248-9248 (2020), doi: 10.1021/acs.jpclett.0c03077
  Functional external parameters        .... 6
    Parameter  0 _c1        =  6.670000e-01 : c1 parameter        
    Parameter  1 _c2        =  8.000000e-01 : c2 parameter        
    Parameter  2 _d         =  1.240000e+00 : d parameter         
    Parameter  3 _k1        =  6.500000e-02 : k1 parameter        
    Parameter  4 _eta       =  1.000000e-03 : eta parameter       
    Parameter  5 _dp2       =  3.610000e-01 : dp2 parameter       
  Functional kind                       .... Correlation
  Functional name                       .... Re-regularized SCAN correlation by Furness et al
  Functional family                     .... MGGA
  Functional refs                              
    [ 0] J. W. Furness, A. D. Kaplan, J. Ning, J. P. Perdew, and J. Sun.,  J. Phys. Chem. Lett. 11, 8208-8215 (2020), doi: 10.1021/acs.jpclett.0c02405
    [ 1] J. W. Furness, A. D. Kaplan, J. Ning, J. P. Perdew, and J. Sun.,  J. Phys. Chem. Lett. 11, 9248-9248 (2020), doi: 10.1021/acs.jpclett.0c03077
  Functional external parameters        .... 1
    Parameter  0 _eta       =  1.000000e-03 : Regularization parameter
 Gradients option       PostSCFGGA      .... off
 RI-approximation to the Coulomb term is turned on
   Number of AuxJ basis functions       .... 491


General Settings:
 Integral files         IntName         .... sp_gas
 Hartree-Fock type      HFTyp           .... RHF
 Total Charge           Charge          ....    0
 Multiplicity           Mult            ....    1
 Number of Electrons    NEL             ....   58
 Basis Dimension        Dim             ....  202
 Nuclear Repulsion      ENuc            ....    345.7463075942 Eh

Convergence Acceleration:
 AO-DIIS                CNVDIIS         .... on
   Start iteration      DIISMaxIt       ....    12
   Startup error        DIISStart       ....  0.200000
   # of expansion vecs  DIISMaxEq       ....     5
   Bias factor          DIISBfac        ....   1.050
   Max. coefficient     DIISMaxC        ....  10.000
 MO-DIIS                CNVKDIIS        .... off
 Trust-Rad. Augm. Hess. CNVTRAH         .... auto
   Auto Start mean grad. ratio tolernc. ....  1.125000
   Auto Start start iteration           ....     1
   Auto Start num. interpolation iter.  ....    10
   Max. Number of Micro iterations      ....    24
   Max. Number of Macro iterations      .... Maxiter - #DIIS iter
   Number of Davidson start vectors     ....     2
   Converg. threshold    (grad. norm)   ....   3.330e-04
   Grad. Scal. Fac. for Micro threshold ....   0.100
   Minimum threshold for Micro iter.    ....   1.000e-02
   NR start threshold (gradient norm)   ....   1.000e-04
   Initial trust radius                 ....   0.400
   Minimum AH scaling param. (alpha)    ....   1.000
   Maximum AH scaling param. (alpha)    .... 1000.000
   Quad. conv. algorithm                .... NR
   White noise on init. David. guess    .... on
   Maximum white noise                  ....   0.010
   Pseudo random numbers                .... off
   Inactive MOs                         .... canonical
   Orbital update algorithm             .... Taylor
   Preconditioner                       .... Diag
   Full preconditioner red. dimension   ....   250
   COSX micro iterations for RIJONX calc.... off
 SOSCF                  CNVSOSCF        .... on
   Start iteration      SOSCFMaxIt      ....   150
   Startup grad/error   SOSCFStart      ....  0.003300
   Hessian update       SOSCFHessUp     .... L-BFGS
 Level Shifting         CNVShift        .... on
   Level shift para.    LevelShift      ....    0.2500
   Turn off err/grad.   ShiftErr        ....    0.0010
 Zerner damping         CNVZerner       .... off
 Static damping         CNVDamp         .... on
   Fraction old density DampFac         ....    0.7000
   Max. Damping (<1)    DampMax         ....    0.9800
   Min. Damping (>=0)   DampMin         ....    0.0000
   Turn off err/grad.   DampErr         ....    0.1000

SCF Procedure:
 Maximum # iterations   MaxIter         ....   125
 SCF integral mode      SCFMode         .... Direct
   Integral package                     .... SHARK and LIBINT hybrid scheme
 Reset frequency        DirectResetFreq ....    20
 Integral Threshold     Thresh          ....  1.000e-10 Eh
 Primitive CutOff       TCut            ....  1.000e-11 Eh

Convergence Tolerance:
 Convergence Check Mode ConvCheckMode   .... Total+1el-Energy
 Convergence forced     ConvForced      .... 0
 Energy Change          TolE            ....  1.000e-06 Eh
 1-El. energy change                    ....  1.000e-03 Eh
 Orbital Gradient       TolG            ....  3.330e-04
 Orbital Rotation angle TolX            ....  3.330e-04
 DIIS Error             TolErr          ....  1.000e-06

---------------------
INITIAL GUESS: MOREAD
---------------------
Guess MOs are being read from file: sp_gas.ges
Input Geometry matches current geometry (good)
Atom 0: N(Shells)= 9 and 6 - projection required
Input basis set needs projection
NBasis(read)= 130
NBasis(calc)= 202
Basis set overlap was calculated
Using GuessMode=FMatrix for the initial guess
C*T matrix was formed
Effective Fockian was calculated
Effective Fockian was diagonalized
Initial density was built
                      ------------------
                      INITIAL GUESS DONE (   0.0 sec)
                      ------------------
             **** ENERGY FILE WAS UPDATED (sp_gas.en.tmp) ****
Finished Guess after   0.4 sec
Maximum memory used throughout the entire GUESS-calculation: 13.9 MB

-------------------------------------------------------------------------------------------
                                      ORCA LEAN-SCF
                              memory conserving SCF solver
-------------------------------------------------------------------------------------------

----------------------------------------D-I-I-S--------------------------------------------
Iteration    Energy (Eh)           Delta-E    RMSDP     MaxDP     DIISErr   Damp  Time(sec)
-------------------------------------------------------------------------------------------
               ***  Starting incremental Fock matrix formation  ***
    1    -326.6651072538338667     0.00e+00  4.70e-03  1.73e-01  4.38e-01  0.700   2.0
    2    -326.7107471634576541    -4.56e-02  3.81e-03  1.45e-01  3.08e-01  0.700   1.8
    3    -326.7429902137788531    -3.22e-02  2.80e-03  1.08e-01  2.16e-01  0.700   1.8
                               ***Turning on AO-DIIS***
    4    -326.7656207588872803    -2.26e-02  2.04e-03  7.95e-02  1.51e-01  0.700   1.7
    5    -326.7814910054900110    -1.59e-02  1.46e-03  5.69e-02  1.06e-01  0.700   1.7
    6    -326.7926169311283502    -1.11e-02  1.03e-03  4.04e-02  7.39e-02  0.700   1.7
    7    -326.8004138789802937    -7.80e-03  2.42e-03  9.50e-02  5.17e-02  0.000   1.6
                              *** Initializing SOSCF ***
---------------------------------------S-O-S-C-F--------------------------------------
Iteration    Energy (Eh)           Delta-E    RMSDP     MaxDP     MaxGrad    Time(sec)
--------------------------------------------------------------------------------------
    8    -326.8186356234062941    -1.82e-02  1.88e-05  5.41e-04  1.50e-04     1.7
               *** Restarting incremental Fock matrix formation ***
    9    -326.8186357800537962    -1.57e-07  1.18e-05  2.16e-04  6.12e-05     2.0
                  *** Gradient check signals convergence ***

               *****************************************************
               *                     SUCCESS                       *
               *           SCF CONVERGED AFTER   9 CYCLES          *
               *****************************************************

             **** ENERGY FILE WAS UPDATED (sp_gas.en.tmp) ****

----------------
TOTAL SCF ENERGY
----------------

Total Energy       :       -326.81863578005380 Eh           -8893.18720 eV

Components:
Nuclear Repulsion  :        345.74630759418972 Eh            9408.23534 eV
Electronic Energy  :       -672.56494337424351 Eh          -18301.42254 eV
One Electron Energy:      -1124.72761599950150 Eh          -30605.39438 eV
Two Electron Energy:        452.16267262525798 Eh           12303.97184 eV

Virial components:
Potential Energy   :       -652.32556754084646 Eh          -17750.68112 eV
Kinetic Energy     :        325.50693176079267 Eh            8857.49392 eV
Virial Ratio       :          2.00402972683920

DFT components:
N(Alpha)           :       29.000011427006 electrons
N(Beta)            :       29.000011427006 electrons
N(Total)           :       58.000022854012 electrons
E(X)               :      -46.313963011757 Eh       
E(C)               :       -1.850462795145 Eh       
E(XC)              :      -48.164425806902 Eh       

---------------
SCF CONVERGENCE
---------------

  Last Energy change         ...    1.5665e-07  Tolerance :   1.0000e-06
  Last MAX-Density change    ...    2.1594e-04  Tolerance :   1.0000e-05
  Last RMS-Density change    ...    1.1789e-05  Tolerance :   1.0000e-06
  Last DIIS Error            ...    1.5030e-04  Tolerance :   1.0000e-06
  Last Orbital Gradient      ...    6.1180e-05  Tolerance :   3.3300e-04
  Last Orbital Rotation      ...    2.8460e-04  Tolerance :   3.3300e-04


----------------
ORBITAL ENERGIES
----------------

  NO   OCC          E(Eh)            E(eV) 
   0   2.0000     -14.152067      -385.0973 
   1   2.0000     -10.062181      -273.8059 
   2   2.0000     -10.061934      -273.7991 
   3   2.0000     -10.050297      -273.4825 
   4   2.0000     -10.049625      -273.4642 
   5   2.0000     -10.043174      -273.2887 
   6   2.0000     -10.043047      -273.2852 
   7   2.0000     -10.028824      -272.8982 
   8   2.0000      -0.912475       -24.8297 
   9   2.0000      -0.792777       -21.5726 
  10   2.0000      -0.751712       -20.4551 
  11   2.0000      -0.706653       -19.2290 
  12   2.0000      -0.617817       -16.8117 
  13   2.0000      -0.600470       -16.3396 
  14   2.0000      -0.564167       -15.3518 
  15   2.0000      -0.490176       -13.3384 
  16   2.0000      -0.464846       -12.6491 
  17   2.0000      -0.435206       -11.8426 
  18   2.0000      -0.409568       -11.1449 
  19   2.0000      -0.403001       -10.9662 
  20   2.0000      -0.382619       -10.4116 
  21   2.0000      -0.371202       -10.1009 
  22   2.0000      -0.357603        -9.7309 
  23   2.0000      -0.346156        -9.4194 
  24   2.0000      -0.326689        -8.8897 
  25   2.0000      -0.315000        -8.5716 
  26   2.0000      -0.267303        -7.2737 
  27   2.0000      -0.237936        -6.4746 
  28   2.0000      -0.220430        -5.9982 
  29   0.0000      -0.052338        -1.4242 
  30   0.0000      -0.037423        -1.0183 
  31   0.0000       0.076016         2.0685 
  32   0.0000       0.096751         2.6327 
  33   0.0000       0.099055         2.6954 
  34   0.0000       0.108684         2.9574 
  35   0.0000       0.118832         3.2336 
  36   0.0000       0.122831         3.3424 
  37   0.0000       0.133702         3.6382 
  38   0.0000       0.150638         4.0991 
  39   0.0000       0.163262         4.4426 
*Only the first 10 virtual orbitals were printed.

                    ********************************
                    * MULLIKEN POPULATION ANALYSIS *
                    ********************************

-----------------------
MULLIKEN ATOMIC CHARGES
-----------------------
   0 C :   -0.453106
   1 C :   -0.333521
   2 C :    0.282323
   3 C :   -0.232649
   4 C :   -0.098520
   5 C :   -0.106126
   6 N :   -0.168009
   7 C :   -0.205293
   8 H :    0.151592
   9 H :    0.148634
  10 H :    0.150263
  11 H :    0.150985
  12 H :    0.147333
  13 H :    0.150219
  14 H :    0.148089
  15 H :    0.132844
  16 H :    0.134943
Sum of atomic charges:   -0.0000000

--------------------------------
MULLIKEN REDUCED ORBITAL CHARGES
--------------------------------
  0 C s       :     3.316136  s :     3.316136
      pz      :     0.961559  p :     3.109956
      px      :     1.062975
      py      :     1.085422
      dz2     :     0.004854  d :     0.027014
      dxz     :     0.004855
      dyz     :     0.008498
      dx2y2   :     0.007455
      dxy     :     0.001351

  1 C s       :     3.258797  s :     3.258797
      pz      :     0.984994  p :     3.037375
      px      :     0.927988
      py      :     1.124393
      dz2     :     0.005992  d :     0.037349
      dxz     :     0.008349
      dyz     :     0.008898
      dx2y2   :     0.009860
      dxy     :     0.004251

  2 C s       :     3.020075  s :     3.020075
      pz      :     0.962118  p :     2.650809
      px      :     0.786199
      py      :     0.902491
      dz2     :     0.003833  d :     0.046793
      dxz     :     0.006653
      dyz     :     0.006376
      dx2y2   :     0.014089
      dxy     :     0.015842

  3 C s       :     3.221206  s :     3.221206
      pz      :     0.967743  p :     2.973759
      px      :     0.984157
      py      :     1.021859
      dz2     :     0.003527  d :     0.037683
      dxz     :     0.005746
      dyz     :     0.003776
      dx2y2   :     0.011709
      dxy     :     0.012926

  4 C s       :     3.135056  s :     3.135056
      pz      :     0.994354  p :     2.926829
      px      :     0.933668
      py      :     0.998807
      dz2     :     0.003555  d :     0.036635
      dxz     :     0.005341
      dyz     :     0.003711
      dx2y2   :     0.011603
      dxy     :     0.012425

  5 C s       :     3.239547  s :     3.239547
      pz      :     0.928954  p :     2.811748
      px      :     0.996286
      py      :     0.886508
      dz2     :     0.003900  d :     0.054832
      dxz     :     0.003480
      dyz     :     0.009229
      dx2y2   :     0.021910
      dxy     :     0.016313

  6 N s       :     3.452665  s :     3.452665
      pz      :     1.141856  p :     3.654590
      px      :     1.103800
      py      :     1.408935
      dz2     :     0.004396  d :     0.060754
      dxz     :     0.006640
      dyz     :     0.014012
      dx2y2   :     0.020794
      dxy     :     0.014912

  7 C s       :     3.277911  s :     3.277911
      pz      :     0.937000  p :     2.872588
      px      :     0.956849
      py      :     0.978739
      dz2     :     0.004234  d :     0.054794
      dxz     :     0.008540
      dyz     :     0.004036
      dx2y2   :     0.016161
      dxy     :     0.021823

  8 H s       :     0.830206  s :     0.830206
      pz      :     0.005975  p :     0.018202
      px      :     0.004000
      py      :     0.008226

  9 H s       :     0.833150  s :     0.833150
      pz      :     0.005813  p :     0.018216
      px      :     0.003882
      py      :     0.008521

 10 H s       :     0.831467  s :     0.831467
      pz      :     0.003762  p :     0.018270
      px      :     0.010788
      py      :     0.003719

 11 H s       :     0.831149  s :     0.831149
      pz      :     0.005599  p :     0.017866
      px      :     0.003773
      py      :     0.008494

 12 H s       :     0.834814  s :     0.834814
      pz      :     0.005793  p :     0.017853
      px      :     0.003933
      py      :     0.008127

 13 H s       :     0.830300  s :     0.830300
      pz      :     0.004000  p :     0.019481
      px      :     0.005355
      py      :     0.010126

 14 H s       :     0.832281  s :     0.832281
      pz      :     0.004213  p :     0.019630
      px      :     0.005632
      py      :     0.009785

 15 H s       :     0.848037  s :     0.848037
      pz      :     0.004144  p :     0.019119
      px      :     0.012338
      py      :     0.002636

 16 H s       :     0.845977  s :     0.845977
      pz      :     0.003794  p :     0.019079
      px      :     0.004533
      py      :     0.010753


------------------------
MULLIKEN OVERLAP CHARGES
------------------------
B(  0-C ,  1-C ) :   0.5036 B(  0-C ,  2-C ) :  -0.1743 B(  0-C ,  8-H ) :   0.8445 
B(  0-C ,  9-H ) :   0.8455 B(  0-C , 10-H ) :   0.8074 B(  0-C , 11-H ) :  -0.0625 
B(  0-C , 12-H ) :  -0.0679 B(  1-C ,  2-C ) :   0.2239 B(  1-C ,  3-C ) :  -0.0835 
B(  1-C ,  8-H ) :  -0.0686 B(  1-C ,  9-H ) :  -0.0662 B(  1-C , 10-H ) :  -0.1024 
B(  1-C , 11-H ) :   0.8785 B(  1-C , 12-H ) :   0.8810 B(  2-C ,  3-C ) :   0.8256 
B(  2-C ,  5-C ) :  -0.1535 B(  2-C ,  6-N ) :  -0.1236 B(  2-C ,  7-C ) :   0.5478 
B(  2-C , 11-H ) :  -0.1388 B(  2-C , 12-H ) :  -0.1353 B(  2-C , 13-H ) :  -0.0889 
B(  2-C , 16-H ) :  -0.2354 B(  3-C ,  4-C ) :   0.8766 B(  3-C ,  5-C ) :  -0.0972 
B(  3-C ,  7-C ) :   0.0607 B(  3-C , 13-H ) :   0.8060 B(  3-C , 14-H ) :  -0.0612 
B(  4-C ,  5-C ) :   0.7641 B(  4-C ,  6-N ) :  -0.1451 B(  4-C ,  7-C ) :  -0.1862 
B(  4-C , 14-H ) :   0.7703 B(  4-C , 15-H ) :  -0.1710 B(  5-C ,  6-N ) :   0.9628 
B(  5-C ,  7-C ) :  -0.2320 B(  5-C , 15-H ) :   0.9089 B(  6-N ,  7-C ) :   0.9940 
B(  6-N , 15-H ) :  -0.1046 B(  6-N , 16-H ) :  -0.0927 B(  7-C , 16-H ) :   0.9502 



                     *******************************
                     * LOEWDIN POPULATION ANALYSIS *
                     *******************************

----------------------
LOEWDIN ATOMIC CHARGES
----------------------
   0 C :   -0.403694
   1 C :   -0.288160
   2 C :   -0.075627
   3 C :   -0.124279
   4 C :   -0.144265
   5 C :    0.071927
   6 N :   -0.612984
   7 C :    0.080738
   8 H :    0.155318
   9 H :    0.153815
  10 H :    0.150604
  11 H :    0.164177
  12 H :    0.162365
  13 H :    0.170829
  14 H :    0.169454
  15 H :    0.183862
  16 H :    0.185920

-------------------------------
LOEWDIN REDUCED ORBITAL CHARGES
-------------------------------
  0 C s       :     2.974269  s :     2.974269
      pz      :     1.086048  p :     3.366403
      px      :     1.121341
      py      :     1.159013
      dz2     :     0.010708  d :     0.063022
      dxz     :     0.011211
      dyz     :     0.019739
      dx2y2   :     0.018444
      dxy     :     0.002920

  1 C s       :     2.923315  s :     2.923315
      pz      :     1.093432  p :     3.284236
      px      :     1.043923
      py      :     1.146881
      dz2     :     0.011939  d :     0.080610
      dxz     :     0.017668
      dyz     :     0.020155
      dx2y2   :     0.022157
      dxy     :     0.008691

  2 C s       :     2.869282  s :     2.869282
      pz      :     0.947898  p :     3.109798
      px      :     1.052136
      py      :     1.109764
      dz2     :     0.007052  d :     0.096547
      dxz     :     0.011011
      dyz     :     0.011757
      dx2y2   :     0.032570
      dxy     :     0.034158

  3 C s       :     2.900313  s :     2.900313
      pz      :     0.960114  p :     3.142304
      px      :     1.089925
      py      :     1.092265
      dz2     :     0.006072  d :     0.081662
      dxz     :     0.010600
      dyz     :     0.006626
      dx2y2   :     0.027747
      dxy     :     0.030616

  4 C s       :     2.904951  s :     2.904951
      pz      :     0.981396  p :     3.159390
      px      :     1.094834
      py      :     1.083160
      dz2     :     0.006161  d :     0.079924
      dxz     :     0.009943
      dyz     :     0.006398
      dx2y2   :     0.027359
      dxy     :     0.030062

  5 C s       :     2.832088  s :     2.832088
      pz      :     0.887015  p :     2.972293
      px      :     1.044339
      py      :     1.040939
      dz2     :     0.008034  d :     0.123692
      dxz     :     0.005679
      dyz     :     0.018336
      dx2y2   :     0.054661
      dxy     :     0.036981

  6 N s       :     3.234744  s :     3.234744
      pz      :     1.126437  p :     3.901075
      px      :     1.290338
      py      :     1.484300
      dz2     :     0.053629  d :     0.477166
      dxz     :     0.086198
      dyz     :     0.051117
      dx2y2   :     0.138632
      dxy     :     0.147590

  7 C s       :     2.826522  s :     2.826522
      pz      :     0.892869  p :     2.968655
      px      :     1.027235
      py      :     1.048551
      dz2     :     0.008598  d :     0.124086
      dxz     :     0.016537
      dyz     :     0.007837
      dx2y2   :     0.037020
      dxy     :     0.054094

  8 H s       :     0.801128  s :     0.801128
      pz      :     0.014061  p :     0.043554
      px      :     0.009029
      py      :     0.020464

  9 H s       :     0.802710  s :     0.802710
      pz      :     0.013572  p :     0.043474
      px      :     0.008683
      py      :     0.021219

 10 H s       :     0.805719  s :     0.805719
      pz      :     0.008480  p :     0.043677
      px      :     0.027056
      py      :     0.008140

 11 H s       :     0.792736  s :     0.792736
      pz      :     0.013318  p :     0.043087
      px      :     0.008524
      py      :     0.021246

 12 H s       :     0.794542  s :     0.794542
      pz      :     0.013818  p :     0.043093
      px      :     0.008976
      py      :     0.020299

 13 H s       :     0.784653  s :     0.784653
      pz      :     0.008594  p :     0.044518
      px      :     0.012234
      py      :     0.023690

 14 H s       :     0.785033  s :     0.785033
      pz      :     0.009249  p :     0.045514
      px      :     0.013129
      py      :     0.023136

 15 H s       :     0.775268  s :     0.775268
      pz      :     0.008736  p :     0.040870
      px      :     0.026268
      py      :     0.005866

 16 H s       :     0.773332  s :     0.773332
      pz      :     0.007958  p :     0.040749
      px      :     0.008434
      py      :     0.024356


---------------------------------
LOEWDIN BOND ORDERS (THRESH 0.050000)
---------------------------------
B(  0-C ,  1-C ) :   1.1199 B(  0-C ,  2-C ) :   0.0760 B(  0-C ,  8-H ) :   0.9267 
B(  0-C ,  9-H ) :   0.9272 B(  0-C , 10-H ) :   0.9297 B(  1-C ,  2-C ) :   1.0768 
B(  1-C ,  3-C ) :   0.0875 B(  1-C ,  7-C ) :   0.0900 B(  1-C , 11-H ) :   0.8835 
B(  1-C , 12-H ) :   0.8843 B(  2-C ,  3-C ) :   1.4335 B(  2-C ,  4-C ) :   0.0912 
B(  2-C ,  5-C ) :   0.1242 B(  2-C ,  6-N ) :   0.2111 B(  2-C ,  7-C ) :   1.3269 
B(  2-C , 13-H ) :   0.0524 B(  2-C , 16-H ) :   0.0518 B(  3-C ,  4-C ) :   1.5049 
B(  3-C ,  5-C ) :   0.0892 B(  3-C ,  6-N ) :   0.1391 B(  3-C ,  7-C ) :   0.0884 
B(  3-C , 13-H ) :   0.8676 B(  3-C , 14-H ) :   0.0547 B(  4-C ,  5-C ) :   1.3956 
B(  4-C ,  6-N ) :   0.2161 B(  4-C ,  7-C ) :   0.1286 B(  4-C , 13-H ) :   0.0532 
B(  4-C , 14-H ) :   0.8702 B(  4-C , 15-H ) :   0.0525 B(  5-C ,  6-N ) :   1.8157 
B(  5-C ,  7-C ) :   0.1083 B(  5-C , 14-H ) :   0.0577 B(  5-C , 15-H ) :   0.8077 
B(  6-N ,  7-C ) :   1.8287 B(  6-N , 15-H ) :   0.1161 B(  6-N , 16-H ) :   0.1149 
B(  7-C , 16-H ) :   0.8000 

------------------------------------------
LOEWDIN REDUCED ORBITAL POPULATIONS PER MO
-------------------------------------------
THRESHOLD FOR PRINTING IS 0.1%%
                      0         1         2         3         4         5   
                 -14.15207 -10.06218 -10.06193 -10.05030 -10.04963 -10.04317
                   2.00000   2.00000   2.00000   2.00000   2.00000   2.00000
                  --------  --------  --------  --------  --------  --------
 2 C  s               0.0       0.0       0.1      12.4      87.1       0.0
 3 C  s               0.0       0.0       0.0      87.0      12.5       0.1
 3 C  px              0.0       0.0       0.0       0.0       0.0       0.1
 4 C  s               0.0       0.0       0.0       0.1       0.0      99.4
 4 C  px              0.0       0.0       0.0       0.1       0.0       0.0
 5 C  s               0.0      99.2       0.0       0.0       0.0       0.0
 5 C  py              0.1       0.0       0.0       0.0       0.0       0.1
 6 N  s              99.8       0.0       0.0       0.0       0.0       0.0
 6 N  px              0.0       0.0       0.2       0.0       0.0       0.0
 6 N  py              0.0       0.1       0.0       0.0       0.0       0.0
 6 N  dx2y2           0.0       0.1       0.2       0.0       0.0       0.0
 6 N  dxy             0.0       0.2       0.0       0.0       0.0       0.0
 7 C  s               0.0       0.0      99.2       0.0       0.0       0.0

                      6         7         8         9        10        11   
                 -10.04305 -10.02882  -0.91248  -0.79278  -0.75171  -0.70665
                   2.00000   2.00000   2.00000   2.00000   2.00000   2.00000
                  --------  --------  --------  --------  --------  --------
 0 C  s               0.0      99.7       0.1       5.5       5.4      17.7
 0 C  pz              0.1       0.0       0.0       1.2       0.6       0.4
 0 C  px              0.0       0.0       0.0       0.8       0.2       0.0
 1 C  s              99.6       0.0       0.4      14.8       7.4       7.2
 1 C  pz              0.0       0.1       0.0       0.6       0.4       1.3
 1 C  px              0.0       0.0       0.4       1.3       0.0       4.4
 1 C  py              0.0       0.0       0.0       0.0       0.1       0.0
 2 C  s               0.0       0.0       4.2      20.0       0.8       4.9
 2 C  px              0.1       0.0       1.7       0.8       3.4       5.3
 2 C  py              0.0       0.0       0.4       1.2       4.7       0.3
 2 C  dz2             0.0       0.0       0.1       0.2       0.0       0.0
 2 C  dx2y2           0.0       0.0       0.0       0.0       0.0       0.1
 2 C  dxy             0.0       0.0       0.0       0.0       0.1       0.0
 3 C  s               0.0       0.0       2.7      14.0      10.1       1.9
 3 C  pz              0.0       0.0       0.0       0.0       0.2       0.1
 3 C  px              0.0       0.0       0.3       0.5       5.4       0.9
 3 C  py              0.0       0.0       1.2       1.6       0.4       0.9
 3 C  dz2             0.0       0.0       0.0       0.1       0.1       0.0
 3 C  dx2y2           0.0       0.0       0.0       0.0       0.1       0.1
 4 C  s               0.0       0.0       3.9       3.0      21.5       2.1
 4 C  pz              0.0       0.0       0.0       0.1       0.0       0.1
 4 C  px              0.0       0.0       0.0       2.9       0.5       2.7
 4 C  py              0.0       0.0       2.4       0.2       0.3       0.7
 4 C  dz2             0.0       0.0       0.0       0.0       0.1       0.0
 5 C  s               0.0       0.0      13.0       0.9       5.0       8.8
 5 C  pz              0.0       0.0       0.2       0.0       0.0       0.0
 5 C  px              0.0       0.0       3.7       0.2       0.1       0.4
 5 C  py              0.0       0.0       2.6       3.3       6.4       0.1
 5 C  dz2             0.0       0.0       0.2       0.0       0.0       0.1
 5 C  dxy             0.0       0.0       0.2       0.2       0.2       0.0
 6 N  s               0.0       0.0      33.9       6.5       2.5       0.3
 6 N  pz              0.0       0.0       0.0       0.0       0.1       0.3
 6 N  px              0.0       0.0       1.0       0.3       2.7       7.1
 6 N  py              0.0       0.0       3.3       0.3       1.3       2.0
 6 N  dz2             0.0       0.0       0.6       0.1       0.1       0.0
 6 N  dxz             0.0       0.0       0.1       0.0       0.0       0.1
 6 N  dx2y2           0.0       0.0       0.0       0.0       1.3       1.1
 6 N  dxy             0.0       0.0       0.1       0.3       0.1       0.7
 7 C  s               0.0       0.0      13.3       0.6       5.1       8.0
 7 C  pz              0.0       0.0       0.2       0.2       0.0       0.0
 7 C  px              0.0       0.0       5.4       5.8       0.3       0.5
 7 C  py              0.0       0.0       0.8       2.8       0.4       0.3
 7 C  dz2             0.0       0.0       0.2       0.0       0.0       0.1
 7 C  dx2y2           0.0       0.0       0.3       0.2       0.1       0.0
 8 H  s               0.0       0.0       0.0       0.7       0.8       3.1
 8 H  py              0.0       0.0       0.0       0.0       0.0       0.2
 9 H  s               0.0       0.0       0.0       0.7       0.8       3.2
 9 H  py              0.0       0.0       0.0       0.0       0.0       0.2
10 H  s               0.0       0.0       0.0       0.6       0.8       3.4
10 H  px              0.0       0.0       0.0       0.1       0.1       0.3
11 H  s               0.0       0.0       0.0       1.8       1.2       1.3
11 H  py              0.0       0.0       0.0       0.1       0.1       0.1
12 H  s               0.0       0.0       0.0       1.9       1.0       1.4
12 H  py              0.0       0.0       0.0       0.1       0.1       0.1
13 H  s               0.0       0.0       0.2       1.8       1.4       0.3
13 H  py              0.0       0.0       0.0       0.1       0.1       0.0
14 H  s               0.0       0.0       0.3       0.3       3.1       0.5
14 H  py              0.0       0.0       0.0       0.0       0.2       0.0
15 H  s               0.0       0.0       0.9       0.1       0.8       2.0
15 H  px              0.0       0.0       0.1       0.0       0.1       0.2
16 H  s               0.0       0.0       0.9       0.1       1.0       1.5
16 H  py              0.0       0.0       0.1       0.0       0.1       0.1

                     12        13        14        15        16        17   
                  -0.61782  -0.60047  -0.56417  -0.49018  -0.46485  -0.43521
                   2.00000   2.00000   2.00000   2.00000   2.00000   2.00000
                  --------  --------  --------  --------  --------  --------
 0 C  s              14.9       0.1       4.0       0.0       0.0       0.0
 0 C  pz              2.2       0.0       4.8       1.3       0.0       2.6
 0 C  px              1.2       0.0       0.4       0.2       0.0       8.5
 0 C  py              0.0       0.2       0.0       0.0       3.8       0.1
 1 C  s               5.1       0.1       9.0       0.9       0.0       0.1
 1 C  pz              4.0       0.0       4.6       1.0       0.0       5.7
 1 C  px              4.1       0.0       0.9       2.5       0.1      11.3
 1 C  py              0.0       1.7       0.0       0.0      12.2       0.1
 1 C  dz2             0.1       0.0       0.0       0.0       0.0       0.0
 1 C  dxz             0.1       0.0       0.0       0.0       0.0       0.0
 1 C  dx2y2           0.0       0.0       0.1       0.0       0.0       0.1
 2 C  s               3.7       0.0       4.6       0.2       0.1       1.9
 2 C  pz              0.8       0.0       0.9       0.0       0.0       0.6
 2 C  px              3.9       0.0       4.5       2.2       0.0       6.8
 2 C  py              0.0      17.2       0.3       0.0      11.7       0.2
 2 C  dx2y2           0.0       0.0       0.1       0.2       0.0       0.2
 2 C  dxy             0.0       0.2       0.0       0.0       0.0       0.0
 3 C  s               1.6       9.3       0.4       1.8       0.3       2.0
 3 C  pz              0.2       0.2       0.0       0.1       0.3       0.4
 3 C  px              2.7       5.3       1.9       5.2       8.6       0.1
 3 C  py              1.3       0.5       7.2      10.2       3.9       0.0
 3 C  dx2y2           0.0       0.0       0.2       0.0       0.0       0.0
 3 C  dxy             0.0       0.0       0.0       0.0       0.0       0.2
 4 C  s               1.5       6.6       3.0       0.5       0.0       1.7
 4 C  pz              0.1       0.4       0.0       0.1       0.5       0.4
 4 C  px              2.5       8.0       0.4       1.8      10.0       2.6
 4 C  py              2.0       0.2       5.1       5.1       3.8      10.7
 4 C  dx2y2           0.1       0.1       0.0       0.0       0.1       0.1
 4 C  dxy             0.0       0.0       0.0       0.1       0.0       0.2
 5 C  s               5.3       1.1       2.5       2.0       0.2       1.6
 5 C  pz              0.1       0.0       0.0       0.7       0.0       0.0
 5 C  px              1.3       0.2       0.7      14.2       0.5       2.3
 5 C  py              0.8      13.1       0.2       0.7      12.2       0.8
 5 C  dx2y2           0.0       0.0       0.0       0.0       0.0       0.2
 5 C  dxy             0.0       0.3       0.0       0.0       0.1       0.1
 6 N  s               0.1       3.8       1.9       0.6       0.0       1.7
 6 N  pz              0.3       0.1       0.2       0.1       0.4       0.2
 6 N  px              7.6       3.0       3.3       1.8       9.9       0.0
 6 N  py              2.5       0.6       3.3       2.7       2.9       0.2
 6 N  dz2             0.0       0.4       0.2       0.1       0.0       0.3
 6 N  dxz             0.0       0.1       0.0       0.1       0.0       0.1
 6 N  dyz             0.0       0.0       0.0       0.1       0.0       0.0
 6 N  dx2y2           0.2       0.1       0.1       1.2       0.3       0.1
 6 N  dxy             0.2       0.1       0.0       2.5       0.2       0.7
 7 C  s               1.8       7.6       0.0       1.8       0.0       1.3
 7 C  pz              0.2       0.2       0.1       0.1       0.4       0.6
 7 C  px              2.2       4.5       4.9       2.6       8.2       0.7
 7 C  py              1.7       0.4       6.6       7.9       1.1       3.0
 7 C  dx2y2           0.0       0.0       0.3       0.0       0.0       0.2
 7 C  dxy             0.0       0.0       0.0       0.0       0.0       0.1
 8 H  s               4.5       0.0       2.3       0.2       0.6       0.5
 8 H  py              0.2       0.0       0.1       0.0       0.0       0.0
 9 H  s               4.5       0.1       2.1       0.3       0.9       0.8
 9 H  py              0.3       0.0       0.1       0.0       0.0       0.0
10 H  s               4.9       0.0       1.5       0.0       0.0       3.4
10 H  px              0.4       0.0       0.1       0.0       0.0       0.1
11 H  s               1.7       0.3       4.4       0.9       3.0       2.4
11 H  py              0.1       0.0       0.3       0.1       0.0       0.1
12 H  s               1.7       0.1       5.2       0.8       1.8       1.7
12 H  py              0.1       0.0       0.3       0.1       0.0       0.1
13 H  s               0.5       4.9       1.2       8.3       0.2       1.0
13 H  px              0.0       0.0       0.1       0.1       0.1       0.0
13 H  py              0.0       0.3       0.0       0.3       0.0       0.0
14 H  s               0.5       3.2       2.6       1.5       0.0      10.1
14 H  px              0.0       0.0       0.1       0.0       0.1       0.1
14 H  py              0.0       0.2       0.1       0.0       0.0       0.2
15 H  s               2.5       0.4       1.5       8.1       0.4       3.4
15 H  px              0.2       0.0       0.1       0.3       0.0       0.1
15 H  py              0.0       0.1       0.0       0.0       0.1       0.0
16 H  s               0.7       4.0       0.3       6.2       0.1       4.4
16 H  py              0.0       0.3       0.0       0.2       0.0       0.1

                     18        19        20        21        22        23   
                  -0.40957  -0.40300  -0.38262  -0.37120  -0.35760  -0.34616
                   2.00000   2.00000   2.00000   2.00000   2.00000   2.00000
                  --------  --------  --------  --------  --------  --------
 0 C  s               0.1       0.0       0.1       0.0       0.1       0.2
 0 C  pz              0.3       0.0      10.0       0.2       0.8      26.2
 0 C  px              9.2       4.9       0.7       0.4      15.8       0.7
 0 C  py             12.5      16.6       0.0       0.4       1.1       0.7
 0 C  dz2             0.0       0.0       0.1       0.0       0.1       0.0
 0 C  dxz             0.0       0.0       0.1       0.0       0.1       0.1
 0 C  dx2y2           0.0       0.0       0.0       0.0       0.1       0.3
 1 C  s               0.1       0.1       0.2       0.0       0.3       0.2
 1 C  pz              3.6       1.7       4.1       0.0       3.9      19.2
 1 C  px              1.4       0.2       6.7       0.2       2.7       0.9
 1 C  py              9.7      10.0       0.0       0.1       0.1       0.2
 1 C  dz2             0.0       0.0       0.1       0.0       0.2       0.0
 1 C  dxz             0.0       0.0       0.0       0.0       0.0       0.1
 1 C  dx2y2           0.0       0.0       0.0       0.0       0.0       0.2
 1 C  dxy             0.1       0.1       0.0       0.0       0.0       0.0
 2 C  s               0.5       0.8       0.0       0.4       0.5       0.1
 2 C  pz              1.4       1.0      13.0       0.3       0.0       0.4
 2 C  px              3.5       1.6       2.0       0.1       1.9       0.2
 2 C  py              1.9       0.8       0.0       5.9       2.5       0.7
 2 C  dxz             0.0       0.0       0.0       0.0       0.1       0.2
 2 C  dxy             0.3       0.0       0.0       0.5       0.1       0.0
 3 C  s               0.5       0.0       0.1       0.3       0.1       0.0
 3 C  pz              0.5       1.4       6.6       0.0       0.8       0.5
 3 C  px              0.2       4.1       0.0       8.1       1.3       1.3
 3 C  py              0.0       0.3       0.5      20.8       1.9       0.2
 3 C  dx2y2           0.0       0.2       0.0       0.2       0.0       0.0
 3 C  dxy             0.1       0.1       0.0       0.6       0.1       0.0
 4 C  s               0.2       0.2       0.1       0.4       0.4       0.1
 4 C  pz              0.1       0.0       5.1       1.2       4.4       1.3
 4 C  px              0.9       6.4       0.5       4.4       0.4       1.9
 4 C  py             11.5       3.5       1.6       2.2       0.1       0.1
 4 C  dx2y2           0.0       0.0       0.1       0.3       0.1       0.1
 4 C  dxy             0.2       0.0       0.0       0.3       0.1       0.0
 5 C  s               0.3       0.2       0.1       0.6       0.1       0.1
 5 C  pz              0.1       0.0      10.2       0.2       4.7       5.5
 5 C  px              1.3       3.3       3.3       7.0       8.4       1.8
 5 C  py              3.1       0.4       0.2       2.2       0.2       0.1
 5 C  dxz             0.0       0.0       0.0       0.0       0.1       0.0
 5 C  dx2y2           0.0       0.0       0.1       0.0       0.3       0.2
 5 C  dxy             0.1       0.0       0.0       0.0       0.0       0.0
 6 N  s               0.0       0.3       0.0       1.1       0.3       0.0
 6 N  pz              0.3       0.8      11.1       0.6      12.4       4.3
 6 N  px              1.3       1.7       1.2       2.7       1.3       2.6
 6 N  py              0.4       0.6       0.3       8.4       0.2       0.3
 6 N  dxz             0.1       0.0       0.1       0.0       0.1       0.0
 6 N  dyz             0.1       0.1       0.4       0.0       0.5       0.2
 6 N  dx2y2           0.6       0.1       0.5       0.2       0.2       0.1
 6 N  dxy             0.3       0.2       0.1       0.4       0.0       0.1
 7 C  s               0.3       0.3       0.1       0.5       0.3       0.0
 7 C  pz              1.3       0.1      10.4       0.5       2.8       1.6
 7 C  px              0.7       4.9       0.0       0.3       2.7       0.8
 7 C  py              5.4       4.6       1.7       5.3       5.6       1.7
 7 C  dxy             0.0       0.1       0.1       0.0       0.1       0.1
 8 H  s               5.1       2.9       1.5       0.4       0.0       3.0
 8 H  pz              0.1       0.1       0.0       0.0       0.0       0.1
 8 H  px              0.0       0.1       0.0       0.0       0.1       0.0
 8 H  py              0.1       0.0       0.1       0.0       0.0       0.2
 9 H  s               1.8       5.5       1.3       0.0       0.9       6.9
 9 H  pz              0.1       0.1       0.0       0.0       0.0       0.0
 9 H  py              0.0       0.0       0.1       0.0       0.0       0.2
10 H  s               4.0       2.6       0.1       0.2       7.7       2.1
10 H  pz              0.0       0.0       0.1       0.0       0.0       0.2
11 H  s               1.0       3.9       0.0       0.0       0.0       3.7
11 H  py              0.0       0.1       0.0       0.0       0.0       0.1
12 H  s               5.0       1.6       0.0       0.0       0.1       2.2
13 H  s               0.2       0.2       0.2      17.4       0.7       0.0
13 H  py              0.0       0.0       0.0       0.2       0.0       0.0
14 H  s               6.3       3.8       0.2       0.3       0.9       0.6
15 H  s               0.2       0.9       3.2       2.5       4.6       2.5
16 H  s               0.8       5.4       0.8       1.1       3.5       1.8
16 H  py              0.0       0.2       0.0       0.0       0.0       0.0

                     24        25        26        27        28        29   
                  -0.32669  -0.31500  -0.26730  -0.23794  -0.22043  -0.05234
                   2.00000   2.00000   2.00000   2.00000   2.00000   0.00000
                  --------  --------  --------  --------  --------  --------
 0 C  s               0.0       0.0       0.1       0.6       0.0       0.1
 0 C  pz              0.8       0.4       0.5       1.7       0.0       0.2
 0 C  px              5.1       5.7       0.5       1.6       0.1       0.1
 0 C  py             17.5       4.9       0.2       0.0       0.0       0.3
 0 C  dyz             0.7       0.2       0.0       0.0       0.0       0.0
 0 C  dx2y2           0.1       0.2       0.0       0.0       0.0       0.0
 1 C  s               0.1       0.2       0.0       0.0       0.1       0.0
 1 C  pz              0.7       0.9       0.7       2.1       0.0       0.0
 1 C  px              4.5       9.1       0.1       0.2       1.0       0.1
 1 C  py             15.2       7.5       0.1       0.0       0.1       0.1
 1 C  dxz             0.0       0.0       0.1       0.4       0.0       0.1
 1 C  dyz             0.6       0.3       0.0       0.0       0.0       0.0
 1 C  dx2y2           0.2       0.3       0.0       0.0       0.0       0.0
 2 C  s               0.4       0.3       0.0       0.0       0.4       0.0
 2 C  pz              0.1       0.6       4.3      23.6       0.0       4.2
 2 C  px              3.8       8.1       0.3       1.2       1.2       0.2
 2 C  py              0.0       3.6       0.0       0.0       3.8       0.0
 2 C  dxz             0.0       0.0       0.0       0.1       0.0       0.0
 2 C  dyz             0.0       0.0       0.4       0.1       0.0       1.2
 2 C  dx2y2           0.1       0.4       0.0       0.0       0.1       0.0
 2 C  dxy             0.2       0.2       0.0       0.0       0.0       0.1
 3 C  s               0.1       0.1       0.0       0.0       0.0       0.0
 3 C  pz              0.3       0.2      34.0       1.9       0.0      30.6
 3 C  px              0.3       6.7       1.3       0.1       0.1       1.3
 3 C  py              0.0       3.2       0.0       0.0       0.3       0.0
 3 C  dxz             0.0       0.0       0.1       0.3       0.0       0.1
 3 C  dyz             0.0       0.0       0.0       0.2       0.0       0.1
 3 C  dx2y2           0.0       0.2       0.0       0.0       0.1       0.0
 3 C  dxy             0.0       0.0       0.0       0.0       0.2       0.0
 4 C  s               0.0       0.1       0.0       0.0       0.5       0.0
 4 C  pz              0.0       0.3      20.7      14.1       0.1       8.8
 4 C  px              0.6       5.3       1.1       0.6       1.1       0.4
 4 C  py              0.5       0.7       0.0       0.0       3.4       0.0
 4 C  dz2             0.0       0.0       0.0       0.0       0.0       0.1
 4 C  dxz             0.0       0.0       0.3       0.1       0.0       0.8
 4 C  dyz             0.0       0.0       0.0       0.1       0.0       0.1
 4 C  dx2y2           0.0       0.1       0.0       0.0       0.0       0.0
 4 C  dxy             0.0       0.3       0.0       0.0       0.1       0.0
 5 C  s               0.0       0.1       0.0       0.0       0.3       0.0
 5 C  pz              0.1       0.2       0.5      21.8       0.0       6.4
 5 C  px              0.4       1.9       0.0       1.0       0.3       0.3
 5 C  py              0.5       0.4       0.0       0.0       4.5       0.0
 5 C  dyz             0.0       0.0       0.7       0.1       0.0       1.2
 5 C  dx2y2           0.0       0.3       0.0       0.0       1.2       0.0
 5 C  dxy             0.0       0.0       0.0       0.0       0.4       0.1
 6 N  s               0.4       0.0       0.0       0.0       8.5       0.0
 6 N  pz              0.0       0.0      23.8       0.5       0.5      24.9
 6 N  px              0.6       2.2       1.0       0.0      12.9       1.1
 6 N  py              2.0       0.6       0.0       0.0      42.0       0.0
 6 N  dz2             0.0       0.0       0.0       0.5       0.2       0.1
 6 N  dxz             0.0       0.0       0.1       3.2       0.1       0.7
 6 N  dyz             0.0       0.0       0.1       1.0       0.0       0.9
 6 N  dx2y2           0.1       0.0       0.0       0.1       0.4       0.0
 6 N  dxy             0.0       0.0       0.0       0.0       1.2       0.0
 7 C  s               0.5       0.1       0.0       0.0       0.3       0.0
 7 C  pz              0.1       0.2       6.7      18.6       0.2      11.4
 7 C  px              1.3       0.9       0.3       0.8       3.3       0.5
 7 C  py              0.1       1.5       0.0       0.0       1.5       0.0
 7 C  dz2             0.0       0.0       0.0       0.0       0.0       0.2
 7 C  dxz             0.0       0.0       0.3       0.1       0.0       1.0
 7 C  dyz             0.0       0.0       0.0       0.2       0.1       0.0
 7 C  dx2y2           0.2       0.3       0.0       0.0       0.0       0.1
 7 C  dxy             0.1       0.2       0.0       0.0       1.7       0.0
 8 H  s              13.8       0.5       0.1       0.0       0.1       0.1
 9 H  s               4.3       6.0       0.1       0.0       0.0       0.0
10 H  s               3.5       4.6       0.2       0.5       0.1       0.1
10 H  py              0.2       0.0       0.0       0.0       0.0       0.0
11 H  s               3.8       9.3       0.0       0.6       0.1       0.0
11 H  px              0.1       0.0       0.0       0.0       0.0       0.0
12 H  s              13.0       0.8       0.3       0.6       0.4       0.2
12 H  px              0.0       0.1       0.0       0.0       0.0       0.0
13 H  s               0.0       0.0       0.0       0.0       0.9       0.0
13 H  pz              0.0       0.0       0.3       0.0       0.0       0.9
14 H  s               0.8       3.4       0.0       0.0       0.8       0.0
14 H  pz              0.0       0.0       0.2       0.2       0.0       0.3
15 H  s               0.3       2.2       0.0       0.0       2.4       0.0
15 H  pz              0.0       0.0       0.0       0.3       0.0       0.2
16 H  s               1.0       2.7       0.0       0.0       2.4       0.0
16 H  pz              0.0       0.0       0.1       0.2       0.0       0.3

                     30        31        32        33        34        35   
                  -0.03742   0.07602   0.09675   0.09905   0.10868   0.11883
                   0.00000   0.00000   0.00000   0.00000   0.00000   0.00000
                  --------  --------  --------  --------  --------  --------
 0 C  s               0.7       8.5       4.7       4.4       4.2       6.8
 0 C  pz              1.0       1.7       3.7       0.4       0.7       3.0
 0 C  px              0.2       0.1       5.1       1.3       4.2       1.3
 0 C  py              0.1       0.2       0.1       0.3       0.1       5.8
 0 C  dz2             0.0       0.4       0.0       0.1       0.0       0.2
 0 C  dxz             0.0       0.1       0.8       0.1       0.0       0.0
 0 C  dyz             0.0       0.0       0.0       0.0       0.0       0.2
 0 C  dx2y2           0.1       0.0       0.0       0.0       0.8       0.0
 1 C  s               0.0       8.2       3.0       6.0       0.4       0.6
 1 C  pz              0.1       1.9       2.7       3.1       7.6       2.2
 1 C  px              0.3       2.4       1.5       3.4       0.5       4.8
 1 C  py              0.0       0.4       0.4       0.9       0.1      12.1
 1 C  dz2             0.0       0.0       0.0       0.0       0.5       0.3
 1 C  dxz             0.7       0.0       0.2       0.6       0.0       0.2
 1 C  dyz             0.0       0.0       0.0       0.0       0.0       0.5
 1 C  dx2y2           0.1       0.4       0.5       0.0       0.2       0.1
 2 C  s               0.0       2.1       3.1       0.1       3.6       0.1
 2 C  pz             22.8       0.0       5.6       3.4       4.8       0.7
 2 C  px              0.9       1.3       0.8       1.8       2.3       0.9
 2 C  py              0.0       0.1       0.1       0.2       0.0       1.3
 2 C  dz2             0.0       0.1       0.8       0.0       0.4       0.1
 2 C  dxz             0.1       0.0       0.0       0.5       0.1       0.1
 2 C  dyz             0.2       0.0       0.0       0.0       0.0       0.0
 2 C  dx2y2           0.0       0.5       0.3       0.4       0.0       0.2
 2 C  dxy             0.0       0.0       0.1       0.1       0.0       0.5
 3 C  s               0.0       8.8       2.4       0.7       4.5       1.7
 3 C  pz              0.2       0.1       3.8       5.1       2.4       0.7
 3 C  px              0.0       4.9       0.6       0.2       3.2       1.5
 3 C  py              0.0       8.0       4.4       2.7       1.0       2.1
 3 C  dz2             0.1       0.0       0.3       0.1       0.3       0.1
 3 C  dxz             0.8       0.0       0.1       0.1       0.0       0.0
 3 C  dyz             0.4       0.0       0.2       0.0       0.2       0.0
 3 C  dx2y2           0.0       0.0       0.3       0.3       0.1       0.1
 3 C  dxy             0.0       0.4       0.3       0.5       0.0       0.0
 4 C  s               0.0       4.5       0.8       3.2       7.2       0.8
 4 C  pz             19.0       0.1       4.6       6.7       2.5       0.2
 4 C  px              0.8       0.6       1.6       1.5       0.3       0.2
 4 C  py              0.0       1.8       2.1       4.9       1.0       0.5
 4 C  dz2             0.0       0.0       0.2       0.1       0.1       0.0
 4 C  dxz             0.1       0.0       0.1       0.0       0.0       0.0
 4 C  dyz             0.5       0.1       0.2       0.0       0.0       0.0
 4 C  dx2y2           0.0       0.2       0.0       0.1       0.1       0.0
 4 C  dxy             0.0       0.5       0.3       0.6       0.0       0.1
 5 C  s               0.0       3.2       0.9       1.5       5.6       0.1
 5 C  pz             20.2       0.3       4.1       5.8       2.6       0.3
 5 C  px              0.9       0.2       1.7       2.4       0.2       0.0
 5 C  py              0.0       0.6       0.0       0.4       0.4       0.8
 5 C  dz2             0.0       0.0       0.4       0.1       0.3       0.0
 5 C  dxz             0.1       0.0       0.0       0.3       0.2       0.0
 5 C  dyz             0.1       0.0       0.0       0.0       0.0       0.0
 5 C  dx2y2           0.0       0.4       0.1       0.2       0.1       0.0
 5 C  dxy             0.0       0.1       0.0       0.1       0.0       0.0
 6 N  s               0.0       0.3       0.5       0.7       2.8       0.1
 6 N  pz              0.2       0.2       4.3       5.7       2.4       0.2
 6 N  px              0.0       0.1       0.2       0.4       0.1       0.3
 6 N  py              0.0       0.1       0.2       0.1       0.4       0.1
 6 N  dz2             0.8       0.2       2.3       0.1       2.0       0.0
 6 N  dxz             5.4       0.1       0.3       0.0       0.3       0.2
 6 N  dyz             2.6       0.2       0.2       0.2       0.0       0.0
 6 N  dx2y2           0.3       0.5       0.2       0.3       0.0       0.4
 6 N  dxy             0.1       0.7       0.3       0.3       0.1       1.0
 7 C  s               0.0       4.0       4.5       0.1       3.1       4.8
 7 C  pz             15.4       0.0       4.3       5.8       2.3       2.0
 7 C  px              0.6       2.1       0.5       2.3       6.5       1.9
 7 C  py              0.0       2.8       1.0       0.1       2.4      17.2
 7 C  dz2             0.0       0.0       0.3       0.1       0.4       0.0
 7 C  dxz             0.1       0.0       0.2       0.2       0.0       0.0
 7 C  dyz             0.4       0.0       0.2       0.1       0.2       0.0
 7 C  dx2y2           0.0       0.0       0.1       0.3       0.2       0.2
 7 C  dxy             0.0       0.0       0.0       0.0       0.0       0.2
 8 H  s               0.0       1.1       1.4       0.4       2.3       0.0
 8 H  px              0.0       0.1       0.4       0.1       0.0       0.0
 8 H  py              0.0       0.5       0.3       0.1       1.1       0.0
 9 H  s               0.1       1.8       1.1       0.1       1.7       2.9
[...]
15 H  s               1.3       0.4       0.0       1.4       0.1       0.6
15 H  pz              0.2       0.1       0.0       0.2       0.0       0.1
15 H  px              4.1       1.2       0.0       4.3       0.2       1.7
15 H  py              0.1       0.1       0.1       0.0       0.0       0.2
16 H  s               0.0       0.0       2.3       3.4       1.2       0.0
16 H  pz              0.0       0.0       0.0       0.2       0.0       0.0
16 H  px              0.1       0.0       1.2       2.7       0.5       0.3
16 H  py              0.1       0.0       6.3       7.9       2.9       0.0

                    192       193       194       195       196       197   
                   4.04000   4.08166  21.63499  21.92213  21.96283  22.05917
                   0.00000   0.00000   0.00000   0.00000   0.00000   0.00000
                  --------  --------  --------  --------  --------  --------
 0 C  s               0.0       0.0       0.1      74.4      20.5       1.0
 1 C  s               0.0       0.0       0.1       0.4      24.0      24.4
 1 C  px              0.4       0.0       0.0       0.0       0.0       0.0
 1 C  py              0.0       0.1       0.0       0.0       0.0       0.0
 1 C  dx2y2           1.0       0.0       0.0       0.0       0.0       0.0
 2 C  s               0.3       0.0      21.6      12.5      17.1       6.2
 2 C  px              0.5       0.1       0.0       0.0       0.0       0.0
 2 C  py              0.0       0.4       0.0       0.0       0.0       0.1
 2 C  dxz             0.2       0.0       0.0       0.0       0.0       0.0
 2 C  dx2y2           5.4       0.1       0.0       0.0       0.0       0.0
 2 C  dxy             0.0       0.8       0.0       0.0       0.0       0.0
 3 C  s               0.2       0.0      33.7       0.0       0.2      13.0
 3 C  px              0.4       0.6       0.0       0.0       0.0       0.0
 3 C  py              1.0       0.2       0.0       0.0       0.0       0.0
 3 C  dz2             0.2       0.0       0.0       0.0       0.0       0.0
 3 C  dyz             0.3       0.0       0.0       0.0       0.0       0.0
 3 C  dx2y2           2.5       0.4       0.0       0.0       0.0       0.0
 3 C  dxy             7.0       0.1       0.0       0.0       0.0       0.0
 4 C  s               0.2       0.0      25.8       7.6      20.1       0.0
 4 C  px              0.3       0.6       0.0       0.0       0.0       0.0
 4 C  py              1.2       0.0       0.0       0.0       0.0       0.0
 4 C  dz2             0.1       0.0       0.0       0.0       0.0       0.0
 4 C  dyz             0.4       0.0       0.0       0.0       0.0       0.0
 4 C  dx2y2           1.9       1.0       0.0       0.0       0.0       0.0
 4 C  dxy             8.3       0.0       0.0       0.0       0.0       0.0
 5 C  s               0.3       2.2       8.8       2.5      10.2      37.3
 5 C  px              1.8       1.4       0.0       0.0       0.0       0.0
 5 C  py              0.0       4.0       0.0       0.0       0.0       0.0
 5 C  dz2             0.1       0.5       0.0       0.0       0.0       0.0
 5 C  dxz             0.4       0.0       0.0       0.0       0.0       0.0
 5 C  dyz             0.0       0.3       0.0       0.0       0.0       0.0
 5 C  dx2y2          11.6       1.6       0.0       0.0       0.0       0.0
 5 C  dxy             0.2       5.4       0.0       0.0       0.0       0.0
 6 N  s               2.9       0.0       0.2       0.0       0.0       0.1
 6 N  pz              0.0       0.8       0.0       0.0       0.0       0.0
 6 N  px              0.1      18.0       0.0       0.0       0.0       0.0
 6 N  py              0.2       5.0       0.0       0.0       0.0       0.0
 6 N  dz2             2.0       0.0       0.0       0.0       0.0       0.0
 6 N  dxz             1.0       1.2       0.0       0.0       0.0       0.0
 6 N  dyz             0.3       0.5       0.0       0.0       0.0       0.0
 6 N  dx2y2           4.0      25.9       0.0       0.0       0.0       0.0
 6 N  dxy             7.9       9.8       0.0       0.0       0.0       0.0
 7 C  s               0.4       2.4       9.3       2.2       7.6      17.6
 7 C  pz              0.0       0.3       0.0       0.0       0.0       0.0
 7 C  px              0.8       6.1       0.0       0.0       0.0       0.0
 7 C  py              0.9       0.0       0.0       0.0       0.0       0.0
 7 C  dz2             0.1       0.4       0.0       0.0       0.0       0.0
 7 C  dxz             0.3       0.7       0.0       0.0       0.0       0.0
 7 C  dyz             0.3       0.0       0.0       0.0       0.0       0.0
 7 C  dx2y2           3.7       6.9       0.0       0.0       0.0       0.0
 7 C  dxy             5.7       0.1       0.0       0.0       0.0       0.0
13 H  s               2.2       0.0       0.0       0.0       0.0       0.0
13 H  px              0.9       0.0       0.0       0.0       0.0       0.0
13 H  py              3.3       0.0       0.0       0.0       0.0       0.0
14 H  s               2.3       0.1       0.0       0.0       0.0       0.0
14 H  px              1.2       0.1       0.0       0.0       0.0       0.0
14 H  py              2.8       0.1       0.0       0.0       0.0       0.0
15 H  s               2.2       0.3       0.0       0.0       0.0       0.0
15 H  pz              0.2       0.0       0.0       0.0       0.0       0.0
15 H  px              3.5       0.2       0.0       0.0       0.0       0.0
16 H  s               1.5       0.2       0.0       0.0       0.0       0.0
16 H  px              0.3       0.0       0.0       0.0       0.0       0.0
16 H  py              2.1       0.2       0.0       0.0       0.0       0.0

                    198       199       200       201   
                  22.11774  22.21623  22.24571  31.92454
                   0.00000   0.00000   0.00000   0.00000
                  --------  --------  --------  --------
 0 C  s               3.4       0.1       0.4       0.0
 1 C  s              49.1       0.7       0.9       0.0
 2 C  s               7.2      10.2      24.8       0.0
 3 C  s               8.9      40.9       2.9       0.0
 4 C  s               6.8      36.8       2.4       0.0
 5 C  s               5.5      10.9      24.2       0.0
 6 N  s               0.1       0.0       0.0      99.8
 6 N  px              0.0       0.0       0.1       0.0
 7 C  s              18.6       0.1      44.0       0.1


                      *****************************
                      * MAYER POPULATION ANALYSIS *
                      *****************************

  NA   - Mulliken gross atomic population
  ZA   - Total nuclear charge
  QA   - Mulliken gross atomic charge
  VA   - Mayer's total valence
  BVA  - Mayer's bonded valence
  FA   - Mayer's free valence

  ATOM       NA         ZA         QA         VA         BVA        FA
  0 C      6.4531     6.0000    -0.4531     3.8056     3.8056    -0.0000
  1 C      6.3335     6.0000    -0.3335     3.7444     3.7444    -0.0000
  2 C      5.7177     6.0000     0.2823     3.2203     3.2203     0.0000
  3 C      6.2326     6.0000    -0.2326     3.9725     3.9725    -0.0000
  4 C      6.0985     6.0000    -0.0985     3.7244     3.7244    -0.0000
  5 C      6.1061     6.0000    -0.1061     3.9538     3.9538     0.0000
  6 N      7.1680     7.0000    -0.1680     3.0274     3.0274    -0.0000
  7 C      6.2053     6.0000    -0.2053     4.0563     4.0563    -0.0000
  8 H      0.8484     1.0000     0.1516     0.9631     0.9631    -0.0000
  9 H      0.8514     1.0000     0.1486     0.9639     0.9639    -0.0000
 10 H      0.8497     1.0000     0.1503     0.9616     0.9616    -0.0000
 11 H      0.8490     1.0000     0.1510     0.9622     0.9622    -0.0000
 12 H      0.8527     1.0000     0.1473     0.9622     0.9622    -0.0000
 13 H      0.8498     1.0000     0.1502     0.9682     0.9682    -0.0000
 14 H      0.8519     1.0000     0.1481     0.9687     0.9687     0.0000
 15 H      0.8672     1.0000     0.1328     0.9689     0.9689     0.0000
 16 H      0.8651     1.0000     0.1349     0.9695     0.9695    -0.0000

  Mayer bond orders larger than 0.100000
B(  0-C ,  1-C ) :   0.9272 B(  0-C ,  8-H ) :   0.9765 B(  0-C ,  9-H ) :   0.9774 
B(  0-C , 10-H ) :   0.9717 B(  1-C ,  2-C ) :   0.8038 B(  1-C , 11-H ) :   0.9870 
B(  1-C , 12-H ) :   0.9892 B(  2-C ,  3-C ) :   1.3631 B(  2-C ,  7-C ) :   1.2894 
B(  3-C ,  4-C ) :   1.4319 B(  3-C , 13-H ) :   0.9452 B(  4-C ,  5-C ) :   1.3586 
B(  4-C , 14-H ) :   0.9380 B(  5-C ,  6-N ) :   1.4627 B(  5-C , 15-H ) :   0.9833 
B(  6-N ,  7-C ) :   1.5077 B(  7-C , 16-H ) :   0.9980 

-------
TIMINGS
-------

Total SCF time: 0 days 0 hours 0 min 16 sec 

Total time                  ....      16.426 sec
Sum of individual times     ....      16.055 sec  ( 97.7%)

SCF preparation             ....       0.147 sec  (  0.9%)
Fock matrix formation       ....      15.113 sec  ( 92.0%)
  Startup                   ....       0.046 sec  (  0.3% of F)
  Split-RI-J                ....       2.865 sec  ( 19.0% of F)
  XC integration            ....      11.758 sec  ( 77.8% of F)
    XC Preparation          ....       0.000 sec  (  0.0% of XC)
    Basis function eval.    ....       2.015 sec  ( 17.1% of XC)
    Density eval.           ....       3.568 sec  ( 30.3% of XC)
    XC-Functional eval.     ....       1.329 sec  ( 11.3% of XC)
    XC-Potential eval.      ....       4.138 sec  ( 35.2% of XC)
Diagonalization             ....       0.000 sec  (  0.0%)
Density matrix formation    ....       0.189 sec  (  1.1%)
Total Energy calculation    ....       0.035 sec  (  0.2%)
Population analysis         ....       0.095 sec  (  0.6%)
Orbital Transformation      ....       0.053 sec  (  0.3%)
Orbital Orthonormalization  ....       0.000 sec  (  0.0%)
DIIS solution               ....       0.379 sec  (  2.3%)
  MO trafo                  ....       0.000 sec  (  0.0 % of DIIS)
  Orb grad                  ....       0.000 sec  (  0.0 % of DIIS)
  Energy W gradient         ....       0.000 sec  (  0.0 % of DIIS)
  DIIS error                ....       0.007 sec  (  1.8 % of DIIS)
  DIIS work                 ....       0.324 sec  ( 85.4 % of DIIS)
  Form Q                    ....       0.000 sec  (  0.0 % of DIIS)
  Form QpQm                 ....       0.000 sec  (  0.0 % of DIIS)
  Exp/Cayley                ....       0.000 sec  (  0.0 % of DIIS)
  Orb update                ....       0.000 sec  (  0.0 % of DIIS)
  Wake-sleep                ....       0.021 sec  (  5.4 % of DIIS)
SOSCF solution              ....       0.044 sec  (  0.3%)
  MO trafo                  ....       0.033 sec  ( 75.5 % of SOSCF)
  Orb grad                  ....       0.001 sec  (  1.3 % of SOSCF)
  Rot update                ....       0.000 sec  (  0.0 % of SOSCF)
  Step                      ....       0.010 sec  ( 23.1 % of SOSCF)
Finished LeanSCF after  16.5 sec

Maximum memory used throughout the entire LEANSCF-calculation: 21.8 MB


-------------------------------------------------------------------------------
                          DFT DISPERSION CORRECTION                            
                                                                               
                                DFTD4 V3.4.0                                   
-------------------------------------------------------------------------------
The R2SCAN3C composite method is recognized
Using three-body term ABC
Active option DFTDOPT                   ...         5   

-------------------------   ----------------
Dispersion correction           -0.005274146
-------------------------   ----------------

------------------   -----------------
gCP correction             0.007721216
------------------   -----------------

-------------------------   --------------------
FINAL SINGLE POINT ENERGY      -326.816188709690
-------------------------   --------------------


------------------------------------------------------------------------------
                              ORCA PROPERTY CALCULATIONS
------------------------------------------------------------------------------

GBWName                                 ... sp_gas.gbw
Number of atoms                         ...     17
Number of basis functions               ...    202
Max core memory                         ...   1024 MB

Electric properties:
Dipole moment                           ... YES
Quadrupole moment                       ...  NO
Static polarizability (Dipole/Dipole)   ...  NO
Static polarizability (Dipole/Quad.)    ...  NO
Static polarizability (Quad./Quad.)     ...  NO
Static polarizability (Velocity)        ...  NO

Atomic electric properties:
Dipole moment                           ...  NO
Quadrupole moment                       ...  NO
Static polarizability                   ...  NO

Choice of electric origin               ... Center of mass
Position of electric origin             ...     0.000007    -0.000003     0.000002

General magnetic properties:
Magnetizability                         ...  NO

EPR properties:
g-Tensor (aka g-matrix)                 ...  NO
Zero-Field splitting spin-orbit         ...  NO
Zero-field splitting spin-spin          ...  NO
Hyperfine couplings                     ...  NO (   0 nuclei)
Quadrupole couplings                    ...  NO (   0 nuclei)
Contact density                         ...  NO (   0 nuclei)

NMR properties:
Chemical shifts                         ...  NO (   0 nuclei)
Spin-rotation constants                 ...  NO (   0 nuclei)
Spin-spin couplings                     ...  NO (   0 nuclei,    0 pairs)

Choice of magnetic origin               ... GIAO
Position of magnetic origin             ...     0.000000     0.000000     0.000000

Properties with geometric perturbations:
SCF Hessian                             ...  NO
IR spectrum                             ...  NO
VCD spectrum                            ...  NO
X-ray spectroscopy properties:
SCF XES/XAS/RIXS spectra                ...  NO


-------------
DIPOLE MOMENT
-------------

Method             : SCF
Type of density    : Electron Density
Multiplicity       :   1
Irrep              :   0
Energy             :  -326.8186357800537962 Eh
Relativity type    : 
Basis              : AO
                                X                 Y                 Z
Electronic contribution:     -7.370389688      -1.088633358      -0.965078848
Nuclear contribution   :      7.999582949       1.820456936       0.890665918
                        -----------------------------------------
Total Dipole Moment    :      0.629193260       0.731823578      -0.074412930
                        -----------------------------------------
Magnitude (a.u.)       :      0.967980987
Magnitude (Debye)      :      2.460412138



--------------------
Rotational spectrum 
--------------------
 
Rotational constants in cm-1:             0.155900             0.050678             0.042162 
Rotational constants in MHz :          4673.758655          1519.292730          1263.995349 

Dipole components along the rotational axes: 
x,y,z [a.u.] :     0.629194    -0.731823    -0.074413 
x,y,z [Debye]:     1.599283    -1.860147    -0.189143 

 

Dipole moment calculation done in   0.0 sec 

Maximum memory used throughout the entire PROP-calculation: 12.5 MB

--------------------------------
SUGGESTED CITATIONS FOR THIS RUN
--------------------------------

Below you find a list of papers that are relevant to this ORCA run
We neither can nor want to force you to cite these papers, but we appreciate if you do
You receive ORCA, which is the product of decades of hard work by many enthusiastic individuals, for free
The only thing we kindly ask in return is that you cite our papers,
We deeply appreciate it, if you show your appreciation for ORCA by not just citing the generic ORCA reference.

Please note that relegating all ORCA citations to the supporting information does *not* help us.
SI sections are not indexed - citations you put there will not count into any citation statistics
But we need these citations in order to attract the funding resources that allow us to do what we are doing

Therefore, if you are a happy ORCA user, please consider citing a few of the papers listed below in the main body of your paper

In addition to the list printed below, the program has created the file sp_gas.bibtex that contains the list in bibtex format
You can import this file easily into all common literature databanks and citation aid programs


List of essential papers. We consider these as the minimum necessary citations

  1. Neese,F.
     Software update: the ORCA program system, version 5.0
     WIRES Comput. Molec. Sci., 2022 12(1)e1606
     doi.org/10.1002/wcms.1606
  2. Grimme,S.; Hansen,A.; Ehlert,S.; Mewes,J.
     r2SCAN-3c: A 'Swiss army knife' composite electronic-structure method
     J. Chem. Phys., 2021 154 064103
     doi.org/10.1063/5.0040021

List of papers to cite with high priority. The work reported in these papers was absolutely
necessary for this run to complete.
Our perspective: the developers of density functionals and basis sets usually get cited in chemistry papers
Good! But without the algorithms to do something with them, the functionals or basis sets would not do anything.
Hence, in our opinion, the algorithm design and method developments papers are equally worthy of getting cited

  1. Neese,F.
     An improvement of the resolution of the identity approximation for the formation of the Coulomb matrix
     J. Comp. Chem., 2003 24(14)1740-1747
     doi.org/10.1002/jcc.10318
  2. Neese,F.
     The SHARK Integral Generation and Digestion System
     J. Comp. Chem., 2022  1-16
     doi.org/10.1002/jcc.26942
  3. Lehtola,S.; Steigemann,C.; Oliveira,M.; Marques,M.
     Recent developments in Libxc - A comprehensive library of functionals for density functional theory
     Software X, 2018 7 
     doi.org/10.1016/j.softx.2017.11.002
  4. Caldeweyher,E.; Bannwarth,C.; Grimme,S.
     Extension of the D3 dispersion coefficient model
     J. Chem. Phys., 2017 147 034112-XXXX
     doi.org/10.1063/1.4993215
  5. Caldeweyher,E.; Ehlert,S.; Hansen,A.; Neugebauer,H.; Spicher,S.; Bannwarth,C.; Grimme,S.
     A generally applicable atomic-charge dependent London dispersion correction
     J. Chem. Phys., 2019 150 154122-XXXX
     doi.org/10.1063/1.5090222
  6. Caldeweyher,E.; Mewes,J.; Ehlert,S.; Grimme,S.
     Extension and evaluation of the D4 London-dispersion model for periodic systems
     Phys. Chem. Chem. Phys., 2020 22(16)8499-8512
     doi.org/10.1039/D0CP00502A

List of suggested additional citations. These are papers that are important in the 'surrounding' of 
of this run, or papers that preceded the highly important papers. If you like your results we are grateful for a citation.

  1. Neese,F.
     The ORCA program system
     WIRES Comput. Molec. Sci., 2012 2(1)73-78
     doi.org/10.1002/wcms.81
  2. Neese,F.
     Software update: the ORCA program system, version 4.0
     WIRES Comput. Molec. Sci., 2018 8(1)1-6
     doi.org/10.1002/wcms.1327
  3. Neese,F.; Wennmohs,F.; Becker,U.; Riplinger,C.
     The ORCA quantum chemistry program package
     J. Chem. Phys., 2020 152 Art. No. L224108
     doi.org/10.1063/5.0004608

List of optional additional citations

  1. Neese,F.
     Approximate second-order SCF convergence for spin unrestricted wavefunctions
     Chem. Phys. Lett., 2000 325(1-3)93-98
     doi.org/10.1016/s0009-2614(00)00662-x

Timings for individual modules:

Sum of individual times          ...       18.186 sec (=   0.303 min)
Startup calculation              ...        1.157 sec (=   0.019 min)   6.4 %
SCF iterations                   ...       16.940 sec (=   0.282 min)  93.1 %
Property calculations            ...        0.089 sec (=   0.001 min)   0.5 %
                             ****ORCA TERMINATED NORMALLY****
TOTAL RUN TIME: 0 days 0 hours 0 minutes 18 seconds 813 msec
