 Entering Gaussian System
 *********************************************
 Gaussian 98:
 frequency output generated by the xtb code
 *********************************************
                         Standard orientation:
 --------------------------------------------------------------------
  Center     Atomic     Atomic              Coordinates (Angstroms)
  Number     Number      Type              X           Y           Z
 --------------------------------------------------------------------
    1          6             0       -2.770279   -0.779466    0.000032
    2          8             0       -1.798811    0.246565    0.000011
    3          6             0       -0.478304   -0.110593    0.000004
    4          6             0       -0.000230   -1.410803    0.000003
    5          6             0        1.365426   -1.659407   -0.000004
    6          6             0        2.263048   -0.612554   -0.000010
    7          6             0        1.797215    0.693955   -0.000009
    8          6             0        0.439181    0.957851   -0.000003
    9          8             0       -0.064809    2.223905   -0.000002
   10          1             0       -3.727965   -0.263926    0.000045
   11          1             0       -2.687690   -1.402481    0.894873
   12          1             0       -2.687720   -1.402491   -0.894804
   13          1             0       -0.686264   -2.241812    0.000007
   14          1             0        1.715867   -2.679484   -0.000005
   15          1             0        3.324842   -0.801050   -0.000014
   16          1             0        2.496779    1.516825   -0.000013
   17          1             0        0.658982    2.869102   -0.000007
 --------------------------------------------------------------------
     1 basis functions        1 primitive gaussians
     1 alpha electrons        1 beta electrons
 
 Harmonic frequencies (cm**-1), IR intensities (km*mol⁻¹),
 Raman scattering activities (A**4/amu), Raman depolarization ratios,
 reduced masses (AMU), force constants (mDyne/A) and normal coordinates:
                      1                      2                      3
                        a                      a                      a 
 Frequencies --    87.4516               158.1829               208.2324
 Red. masses --     9.8379                11.6738                11.3853
 Frc consts  --     0.0000                 0.0000                 0.0000
 IR Inten    --     9.5979                 1.3331                 7.9584
 Raman Activ --     0.0000                 0.0000                 0.0000
 Depolar     --     0.0000                 0.0000                 0.0000
 Atom AN      X      Y      Z        X      Y      Z        X      Y      Z
   1   6    -0.00  -0.00  -0.52     0.00  -0.00  -0.04     0.21  -0.49   0.00
   2   8     0.00   0.00   0.43     0.00   0.00   0.53    -0.21  -0.10  -0.00
   3   6     0.00   0.00   0.26    -0.00   0.00   0.04    -0.09   0.21  -0.00
   4   6     0.00   0.00   0.31    -0.00   0.00  -0.27    -0.14   0.18   0.00
   5   6     0.00   0.00   0.09    -0.00  -0.00  -0.21    -0.19   0.00   0.00
   6   6    -0.00  -0.00  -0.23    -0.00  -0.00   0.25    -0.10  -0.08  -0.00
   7   6    -0.00  -0.00  -0.24     0.00  -0.00   0.27    -0.02  -0.06  -0.00
   8   6     0.00   0.00   0.02     0.00   0.00  -0.02     0.00   0.13  -0.00
   9   8     0.00   0.00   0.02     0.00   0.00  -0.49     0.43   0.34   0.00
  10   1    -0.00  -0.00  -0.25     0.00  -0.00   0.15     0.00  -0.26  -0.00
  11   1    -0.15  -0.09  -0.20     0.05  -0.18  -0.14     0.14  -0.13   0.00
  12   1     0.15   0.09  -0.20    -0.05   0.18  -0.14     0.14  -0.13  -0.00
  13   1     0.00   0.00   0.15    -0.00   0.00  -0.15    -0.05   0.06   0.00
  14   1     0.00   0.00   0.04    -0.00  -0.00  -0.13    -0.09  -0.01   0.00
  15   1    -0.00  -0.00  -0.13     0.00  -0.00   0.14    -0.03  -0.05  -0.00
  16   1    -0.00  -0.00  -0.14     0.00  -0.00   0.13     0.02  -0.04  -0.00
  17   1    -0.00  -0.00  -0.05     0.00   0.00  -0.12     0.17   0.02   0.00
                      4                      5                      6
                        a                      a                      a 
 Frequencies --   232.5329               288.8008               322.0187
 Red. masses --     3.7651                 9.5331                11.3271
 Frc consts  --     0.0000                 0.0000                 0.0000
 IR Inten    --     0.0006                 0.2277                 2.2127
 Raman Activ --     0.0000                 0.0000                 0.0000
 Depolar     --     0.0000                 0.0000                 0.0000
 Atom AN      X      Y      Z        X      Y      Z        X      Y      Z
   1   6    -0.00   0.00   0.04     0.00   0.00   0.03     0.54  -0.03  -0.00
   2   8     0.00   0.00   0.04     0.00   0.00   0.36     0.22   0.30  -0.00
   3   6     0.00  -0.00   0.13    -0.00  -0.00  -0.28     0.10   0.08   0.00
   4   6     0.00  -0.00   0.01    -0.00  -0.00  -0.38    -0.17   0.01   0.00
   5   6    -0.00  -0.00  -0.29    -0.00  -0.00   0.21    -0.21  -0.09  -0.00
   6   6     0.00   0.00  -0.05    -0.00  -0.00   0.29    -0.17  -0.12  -0.00
   7   6     0.00   0.00   0.26    -0.00  -0.00  -0.32     0.04  -0.02   0.00
   8   6     0.00  -0.00   0.11    -0.00  -0.00  -0.30     0.07   0.06   0.00
   9   8    -0.00  -0.00  -0.21    -0.00  -0.00   0.21    -0.45  -0.15   0.00
  10   1    -0.00  -0.00  -0.49    -0.00  -0.00  -0.24     0.10  -0.12   0.00
  11   1    -0.30   0.30   0.25    -0.17   0.10   0.10     0.23   0.00   0.00
  12   1     0.30  -0.30   0.25     0.17  -0.10   0.10     0.23   0.00  -0.00
  13   1     0.00  -0.00   0.03    -0.00  -0.00  -0.12    -0.07   0.02   0.00
  14   1    -0.00  -0.00  -0.17     0.00  -0.00   0.18    -0.07  -0.03  -0.00
  15   1    -0.00   0.00  -0.04     0.00  -0.00   0.22    -0.05  -0.07  -0.00
  16   1     0.00   0.00   0.12    -0.00  -0.00  -0.11     0.05  -0.04   0.00
  17   1    -0.00  -0.00  -0.06    -0.00   0.00   0.15    -0.20   0.05  -0.00
                      7                      8                      9
                        a                      a                      a 
 Frequencies --   366.4938               443.9731               471.8624
 Red. masses --     2.6211                 9.5759                13.0401
 Frc consts  --     0.0000                 0.0000                 0.0000
 IR Inten    --   186.8537                24.5379                 2.4705
 Raman Activ --     0.0000                 0.0000                 0.0000
 Depolar     --     0.0000                 0.0000                 0.0000
 Atom AN      X      Y      Z        X      Y      Z        X      Y      Z
   1   6    -0.00   0.00  -0.00     0.00   0.00  -0.00    -0.04   0.05  -0.00
   2   8    -0.00  -0.00  -0.05     0.00  -0.00  -0.15     0.34  -0.33   0.00
   3   6     0.00   0.00   0.10     0.00   0.00   0.47     0.28  -0.03  -0.00
   4   6    -0.00   0.00  -0.15    -0.00  -0.00  -0.31     0.09  -0.12   0.00
   5   6     0.00  -0.00   0.03    -0.00  -0.00   0.12     0.01  -0.34  -0.00
   6   6     0.00  -0.00   0.10    -0.00  -0.00   0.10    -0.27  -0.10   0.00
   7   6     0.00  -0.00  -0.10    -0.00  -0.00  -0.31    -0.17  -0.02   0.00
   8   6     0.00   0.00   0.11     0.00   0.00   0.49    -0.09   0.33  -0.00
   9   8     0.00   0.00   0.25    -0.00   0.00  -0.22    -0.12   0.49   0.00
  10   1    -0.00   0.00  -0.02     0.00   0.00  -0.01     0.06   0.15  -0.00
  11   1    -0.00   0.02   0.01     0.01   0.03   0.02    -0.10   0.00   0.00
  12   1     0.00  -0.02   0.01    -0.01  -0.03   0.02    -0.10   0.00  -0.00
  13   1    -0.00   0.00  -0.13    -0.00   0.00  -0.31    -0.06   0.03   0.00
  14   1    -0.00  -0.00  -0.00    -0.00  -0.00  -0.00     0.03  -0.09  -0.00
  15   1     0.00  -0.00   0.04    -0.00  -0.00  -0.02    -0.07   0.02   0.00
  16   1    -0.00  -0.00  -0.09    -0.00  -0.00  -0.31     0.03  -0.07   0.00
  17   1    -0.00   0.00  -0.92     0.00   0.00   0.22    -0.02   0.11   0.00
                     10                     11                     12
                        a                      a                      a 
 Frequencies --   512.8319               527.4826               564.0825
 Red. masses --    10.6905                10.3444                11.7613
 Frc consts  --     0.0000                 0.0000                 0.0000
 IR Inten    --    10.0117                 0.8809                10.8993
 Raman Activ --     0.0000                 0.0000                 0.0000
 Depolar     --     0.0000                 0.0000                 0.0000
 Atom AN      X      Y      Z        X      Y      Z        X      Y      Z
   1   6     0.29   0.14  -0.00    -0.00  -0.00   0.02    -0.08  -0.07   0.00
   2   8     0.15   0.18   0.00     0.00  -0.00   0.15     0.20  -0.29   0.00
   3   6    -0.07  -0.29  -0.00    -0.00   0.00  -0.34     0.16  -0.07  -0.00
   4   6    -0.06  -0.35  -0.00     0.00   0.00  -0.26    -0.34  -0.16   0.00
   5   6     0.02   0.03   0.00     0.00  -0.00   0.47    -0.33   0.25   0.00
   6   6    -0.22   0.24  -0.00    -0.00  -0.00  -0.47    -0.24   0.21  -0.00
   7   6    -0.34   0.12   0.00     0.00  -0.00   0.27     0.30   0.37  -0.00
   8   6    -0.29  -0.16   0.00     0.00   0.00   0.32     0.25  -0.04  -0.00
   9   8     0.32   0.05  -0.00    -0.00   0.00  -0.13     0.12  -0.16  -0.00
  10   1     0.05  -0.02  -0.00    -0.00   0.00  -0.03     0.03   0.09  -0.00
  11   1     0.12   0.04  -0.00    -0.03   0.00   0.01    -0.09  -0.02   0.00
  12   1     0.12   0.04   0.00     0.03  -0.00   0.01    -0.09  -0.02  -0.00
  13   1     0.03  -0.14  -0.00    -0.00   0.00  -0.09    -0.12  -0.03   0.00
  14   1     0.10   0.04   0.00     0.00  -0.00   0.26    -0.02   0.10   0.00
  15   1    -0.05   0.12  -0.00    -0.00  -0.00  -0.26    -0.09  -0.07  -0.00
  16   1    -0.15   0.08   0.00     0.00  -0.00   0.10     0.10   0.09   0.00
  17   1     0.21  -0.13  -0.00    -0.00   0.00  -0.07     0.01  -0.01  -0.00
                     13                     14                     15
                        a                      a                      a 
 Frequencies --   669.3945               773.7449               774.5637
 Red. masses --    11.8430                 3.3132                11.4115
 Frc consts  --     0.0000                 0.0000                 0.0000
 IR Inten    --     0.0408                52.5019                63.0347
 Raman Activ --     0.0000                 0.0000                 0.0000
 Depolar     --     0.0000                 0.0000                 0.0000
 Atom AN      X      Y      Z        X      Y      Z        X      Y      Z
   1   6    -0.00  -0.00   0.01     0.00   0.00  -0.00     0.17   0.07  -0.00
   2   8     0.00  -0.00   0.09     0.00  -0.00  -0.05     0.37  -0.34   0.00
   3   6    -0.00  -0.00  -0.59    -0.00   0.00   0.17    -0.03   0.13  -0.00
   4   6     0.00  -0.00   0.28    -0.00   0.00  -0.20    -0.02   0.41   0.00
   5   6    -0.00  -0.00  -0.24    -0.00   0.00  -0.19    -0.15   0.29   0.00
   6   6     0.00  -0.00   0.24     0.00  -0.00  -0.18     0.12  -0.02   0.00
   7   6    -0.00   0.00  -0.27    -0.00  -0.00  -0.19    -0.32  -0.24   0.00
   8   6     0.00   0.00   0.58    -0.00  -0.00   0.18    -0.18  -0.10  -0.00
   9   8    -0.00   0.00  -0.09     0.00  -0.00  -0.05     0.05  -0.20   0.00
  10   1     0.00   0.00  -0.00     0.00   0.00   0.02     0.14   0.19  -0.00
  11   1    -0.01  -0.01  -0.00     0.01  -0.01  -0.01    -0.07   0.01   0.00
  12   1     0.01   0.01  -0.00    -0.01   0.01  -0.01    -0.07   0.01  -0.00
  13   1     0.00  -0.00   0.09    -0.00   0.00   0.42    -0.03   0.14  -0.00
  14   1    -0.00  -0.00  -0.04    -0.00   0.00   0.49    -0.16   0.04  -0.00
  15   1     0.00  -0.00   0.03     0.00   0.00   0.48     0.03   0.02  -0.00
  16   1     0.00  -0.00  -0.10    -0.00  -0.00   0.39    -0.17  -0.00  -0.00
  17   1    -0.00   0.00  -0.02     0.00  -0.00  -0.02     0.06  -0.10   0.00
                     16                     17                     18
                        a                      a                      a 
 Frequencies --   816.5514               851.7974               886.5598
 Red. masses --    12.0439                 3.2316                 3.9318
 Frc consts  --     0.0000                 0.0000                 0.0000
 IR Inten    --    39.6575                 0.0612                 2.0860
 Raman Activ --     0.0000                 0.0000                 0.0000
 Depolar     --     0.0000                 0.0000                 0.0000
 Atom AN      X      Y      Z        X      Y      Z        X      Y      Z
   1   6    -0.05  -0.04   0.00    -0.00   0.00  -0.00     0.00  -0.00   0.00
   2   8    -0.07   0.05   0.00     0.00  -0.00   0.01    -0.00   0.00  -0.01
   3   6     0.11   0.19  -0.00     0.00   0.00  -0.00     0.00   0.00   0.04
   4   6     0.28   0.31  -0.00     0.00   0.00   0.29    -0.00  -0.00  -0.26
   5   6     0.12  -0.36  -0.00     0.00   0.00   0.13     0.00   0.00   0.24
   6   6    -0.49   0.12   0.00    -0.00   0.00  -0.16     0.00   0.00   0.22
   7   6    -0.10   0.19   0.00    -0.00  -0.00  -0.27    -0.00  -0.00  -0.29
   8   6     0.05   0.01  -0.00    -0.00  -0.00   0.01     0.00  -0.00   0.05
   9   8     0.17  -0.45  -0.00     0.00  -0.00  -0.01     0.00  -0.00  -0.01
  10   1    -0.02  -0.01   0.00    -0.00   0.00  -0.02     0.00  -0.00   0.01
  11   1    -0.02  -0.01   0.00     0.00   0.01   0.01    -0.00  -0.01  -0.00
  12   1    -0.02  -0.01  -0.00    -0.00  -0.01   0.01     0.00   0.01  -0.00
  13   1    -0.03   0.17  -0.00    -0.00   0.00  -0.61     0.00  -0.00   0.42
  14   1     0.06  -0.09  -0.00    -0.00  -0.00  -0.17    -0.00  -0.00  -0.42
  15   1    -0.12   0.14  -0.00     0.00   0.00   0.24    -0.00  -0.00  -0.39
  16   1     0.01   0.02  -0.00     0.00   0.00   0.58     0.00   0.00   0.48
  17   1     0.02  -0.08  -0.00    -0.00   0.00   0.01    -0.00   0.00  -0.01
                     19                     20                     21
                        a                      a                      a 
 Frequencies --   910.2802              1029.4515              1084.0999
 Red. masses --     3.0558                12.1805                 7.6121
 Frc consts  --     0.0000                 0.0000                 0.0000
 IR Inten    --     0.0002                21.5346               327.8956
 Raman Activ --     0.0000                 0.0000                 0.0000
 Depolar     --     0.0000                 0.0000                 0.0000
 Atom AN      X      Y      Z        X      Y      Z        X      Y      Z
   1   6    -0.00   0.00  -0.00     0.44   0.35  -0.00    -0.17  -0.17   0.00
   2   8     0.00  -0.00   0.00    -0.35  -0.40   0.00     0.28   0.17  -0.00
   3   6     0.00   0.00   0.08    -0.34  -0.03   0.00    -0.08  -0.03   0.00
   4   6     0.00  -0.00   0.07     0.08   0.10  -0.00     0.11   0.14  -0.00
   5   6    -0.00  -0.00  -0.28     0.04  -0.17  -0.00    -0.05  -0.15   0.00
   6   6     0.00   0.00   0.29    -0.04  -0.03   0.00     0.06  -0.04  -0.00
   7   6    -0.00  -0.00  -0.08     0.25   0.21  -0.00     0.21   0.24  -0.00
   8   6    -0.00  -0.00  -0.08    -0.03  -0.13   0.00    -0.15  -0.25   0.00
   9   8     0.00   0.00   0.00    -0.05   0.12   0.00    -0.25   0.20   0.00
  10   1    -0.00  -0.00  -0.01     0.16   0.18  -0.00    -0.04  -0.04   0.00
  11   1     0.00   0.01   0.00    -0.01   0.04  -0.01     0.00  -0.01   0.01
  12   1    -0.00  -0.01   0.00    -0.01   0.04   0.01     0.00  -0.01  -0.01
  13   1    -0.00  -0.00  -0.23     0.06  -0.01  -0.00    -0.03   0.09  -0.00
  14   1     0.00   0.00   0.59    -0.04  -0.06   0.00    -0.20  -0.10   0.00
  15   1    -0.00  -0.00  -0.59    -0.02  -0.11   0.00    -0.01  -0.18   0.00
  16   1     0.00   0.00   0.24     0.08   0.04  -0.00    -0.02   0.14   0.00
  17   1    -0.00   0.00   0.00     0.04  -0.03  -0.00     0.39  -0.45  -0.00
                     22                     23                     24
                        a                      a                      a 
 Frequencies --  1097.3727              1115.5274              1135.6041
 Red. masses --     6.1969                 3.6858                 4.7468
 Frc consts  --     0.0000                 0.0000                 0.0000
 IR Inten    --     7.5695                 2.8076               167.8788
 Raman Activ --     0.0000                 0.0000                 0.0000
 Depolar     --     0.0000                 0.0000                 0.0000
 Atom AN      X      Y      Z        X      Y      Z        X      Y      Z
   1   6    -0.09   0.07   0.00    -0.00  -0.00  -0.42     0.18  -0.12   0.00
   2   8     0.07  -0.03  -0.00     0.00   0.00   0.22    -0.25   0.10  -0.00
   3   6    -0.07  -0.10   0.00     0.00  -0.00   0.00     0.19   0.16  -0.00
   4   6     0.30   0.12  -0.00     0.00   0.00  -0.00    -0.09  -0.15   0.00
   5   6    -0.05   0.36  -0.00    -0.00   0.00   0.00     0.03   0.08  -0.00
   6   6    -0.38  -0.03   0.00    -0.00   0.00   0.00     0.03   0.08  -0.00
   7   6     0.04  -0.19   0.00     0.00  -0.00  -0.00     0.02  -0.18   0.00
   8   6     0.02  -0.05  -0.00    -0.00   0.00  -0.00    -0.05   0.12   0.00
   9   8    -0.06   0.07   0.00    -0.00   0.00   0.00    -0.16  -0.04   0.00
  10   1    -0.08  -0.10   0.00     0.00   0.00   0.23     0.19   0.24  -0.00
  11   1     0.09   0.01  -0.02     0.38   0.43   0.17    -0.19  -0.03   0.02
  12   1     0.09   0.01   0.02    -0.38  -0.43   0.17    -0.19  -0.03  -0.02
  13   1     0.38  -0.21  -0.00     0.00  -0.00   0.02    -0.14   0.06   0.00
  14   1     0.08   0.14  -0.00     0.00   0.00  -0.00     0.29   0.12  -0.00
  15   1    -0.15  -0.23   0.00    -0.00  -0.00   0.00     0.03   0.14  -0.00
  16   1     0.32  -0.32  -0.00     0.00  -0.00   0.00     0.26  -0.26  -0.00
  17   1     0.06  -0.07  -0.00     0.00  -0.00  -0.00     0.31  -0.39  -0.00
                     25                     26                     27
                        a                      a                      a 
 Frequencies --  1145.1751              1176.1021              1197.4147
 Red. masses --     6.6791                 2.2467                 5.4375
 Frc consts  --     0.0000                 0.0000                 0.0000
 IR Inten    --   135.0671                23.0993                95.4721
 Raman Activ --     0.0000                 0.0000                 0.0000
 Depolar     --     0.0000                 0.0000                 0.0000
 Atom AN      X      Y      Z        X      Y      Z        X      Y      Z
   1   6    -0.08   0.39  -0.00    -0.05  -0.00   0.00    -0.09   0.06   0.00
   2   8    -0.16  -0.31   0.00     0.13  -0.03  -0.00     0.24  -0.10  -0.00
   3   6     0.32   0.01  -0.00    -0.19  -0.07   0.00    -0.31   0.04   0.00
   4   6    -0.05  -0.04   0.00    -0.12   0.04   0.00    -0.16   0.13   0.00
   5   6    -0.05   0.03   0.00     0.01  -0.07  -0.00     0.12  -0.06  -0.00
   6   6     0.13   0.01  -0.00     0.02   0.08  -0.00    -0.06   0.03   0.00
   7   6    -0.04  -0.00   0.00     0.05   0.01  -0.00     0.09  -0.11  -0.00
   8   6    -0.06   0.21   0.00     0.10  -0.05  -0.00     0.08  -0.28  -0.00
   9   8    -0.06  -0.11   0.00    -0.02   0.04   0.00    -0.05   0.15   0.00
  10   1    -0.28  -0.40   0.00    -0.02  -0.02   0.00    -0.11  -0.15   0.00
  11   1     0.26   0.06  -0.04     0.04   0.00  -0.01     0.11   0.03  -0.00
  12   1     0.26   0.06   0.04     0.04   0.00   0.01     0.11   0.03   0.00
  13   1    -0.16   0.11   0.00     0.10  -0.10  -0.00    -0.32   0.26   0.00
  14   1    -0.08  -0.01   0.00    -0.38  -0.15   0.00     0.58   0.17  -0.00
  15   1     0.04   0.02  -0.00     0.13   0.72  -0.00     0.01   0.14  -0.00
  16   1     0.04  -0.03  -0.00     0.32  -0.26  -0.00     0.06  -0.07  -0.00
  17   1     0.20  -0.25  -0.00     0.02  -0.02  -0.00    -0.04   0.06   0.00
                     28                     29                     30
                        a                      a                      a 
 Frequencies --  1265.3834              1267.7926              1355.6237
 Red. masses --     5.5902                 8.6903                10.9517
 Frc consts  --     0.0000                 0.0000                 0.0000
 IR Inten    --    72.0085               371.0098                83.4939
 Raman Activ --     0.0000                 0.0000                 0.0000
 Depolar     --     0.0000                 0.0000                 0.0000
 Atom AN      X      Y      Z        X      Y      Z        X      Y      Z
   1   6     0.08  -0.02  -0.00    -0.03  -0.06   0.00     0.08   0.00  -0.00
   2   8    -0.14   0.10   0.00     0.17   0.03  -0.00    -0.13   0.06   0.00
   3   6     0.19  -0.30  -0.00    -0.28  -0.16   0.00     0.06  -0.45   0.00
   4   6     0.26  -0.03  -0.00    -0.19   0.05   0.00    -0.14   0.23   0.00
   5   6    -0.03   0.15   0.00     0.26  -0.03  -0.00     0.29   0.23  -0.00
   6   6    -0.03   0.18  -0.00     0.18  -0.11  -0.00    -0.18  -0.38   0.00
   7   6     0.02  -0.05  -0.00    -0.17   0.32   0.00    -0.20   0.10   0.00
   8   6    -0.14  -0.27   0.00    -0.19   0.37   0.00     0.44   0.06  -0.00
   9   8     0.05   0.12  -0.00     0.13  -0.23  -0.00    -0.10   0.10   0.00
  10   1    -0.00  -0.04   0.00     0.02   0.03  -0.00    -0.00  -0.03   0.00
  11   1    -0.08   0.01   0.02     0.02   0.00   0.01    -0.09  -0.02   0.00
  12   1    -0.08   0.01  -0.02     0.02   0.00  -0.01    -0.09  -0.02  -0.00
  13   1    -0.42   0.41   0.00    -0.12   0.06   0.00    -0.06   0.09   0.00
  14   1    -0.30  -0.05   0.00    -0.01  -0.04  -0.00    -0.04   0.03   0.00
  15   1    -0.04  -0.09   0.00     0.00  -0.33   0.00    -0.02   0.11   0.00
  16   1     0.19  -0.19  -0.00     0.37  -0.26  -0.00    -0.15   0.11   0.00
  17   1    -0.15   0.20   0.00    -0.03   0.01   0.00     0.12  -0.13  -0.00
                     31                     32                     33
                        a                      a                      a 
 Frequencies --  1388.5262              1440.8488              1459.6468
 Red. masses --     2.5795                 9.4469                 1.5466
 Frc consts  --     0.0000                 0.0000                 0.0000
 IR Inten    --     3.8461                25.6525                 6.7580
 Raman Activ --     0.0000                 0.0000                 0.0000
 Depolar     --     0.0000                 0.0000                 0.0000
 Atom AN      X      Y      Z        X      Y      Z        X      Y      Z
   1   6     0.24   0.20  -0.00    -0.00   0.05   0.00    -0.00  -0.00  -0.22
   2   8     0.13   0.06  -0.00     0.04  -0.06   0.00     0.00  -0.00  -0.03
   3   6    -0.04   0.04  -0.00    -0.12   0.32   0.00    -0.00   0.00  -0.00
   4   6    -0.02   0.02   0.00    -0.18  -0.20   0.00    -0.00  -0.00   0.00
   5   6    -0.04  -0.05   0.00     0.42  -0.02  -0.00     0.00  -0.00   0.00
   6   6     0.04   0.00  -0.00    -0.09   0.37   0.00    -0.00   0.00  -0.00
   7   6     0.02   0.03  -0.00    -0.20  -0.18   0.00    -0.00  -0.00   0.00
   8   6    -0.08  -0.00   0.00     0.37  -0.13  -0.00     0.00   0.00   0.00
   9   8     0.02  -0.02  -0.00    -0.09   0.07   0.00    -0.00  -0.00  -0.00
  10   1    -0.25  -0.49   0.00    -0.02  -0.03  -0.00     0.00   0.00   0.72
  11   1    -0.44  -0.24  -0.13    -0.00  -0.05  -0.04    -0.45   0.08   0.09
  12   1    -0.44  -0.24   0.13    -0.00  -0.05   0.04     0.45  -0.08   0.09
  13   1     0.08  -0.06  -0.00    -0.07  -0.04   0.00     0.00  -0.00  -0.02
  14   1     0.05   0.01  -0.00    -0.29  -0.15   0.00    -0.00  -0.00   0.00
  15   1     0.01   0.00  -0.00    -0.10  -0.30   0.00    -0.00  -0.00  -0.00
  16   1     0.03  -0.01  -0.00    -0.04  -0.07   0.00    -0.00  -0.00  -0.00
  17   1    -0.02   0.02   0.00     0.05  -0.07  -0.00     0.00  -0.00   0.00
                     34                     35                     36
                        a                      a                      a 
 Frequencies --  1471.0618              1486.8864              1586.7491
 Red. masses --     2.1760                 9.6356                11.5588
 Frc consts  --     0.0000                 0.0000                 0.0000
 IR Inten    --    53.2228               240.9387                77.6889
 Raman Activ --     0.0000                 0.0000                 0.0000
 Depolar     --     0.0000                 0.0000                 0.0000
 Atom AN      X      Y      Z        X      Y      Z        X      Y      Z
   1   6     0.13  -0.16   0.00     0.01  -0.03   0.00    -0.00   0.02  -0.00
   2   8     0.06  -0.06   0.00    -0.12  -0.02   0.00     0.02  -0.04   0.00
   3   6    -0.13   0.05   0.00     0.42   0.05  -0.00    -0.09   0.42  -0.00
   4   6     0.06  -0.08  -0.00    -0.29   0.27   0.00     0.31  -0.37  -0.00
   5   6     0.01   0.03  -0.00     0.01  -0.17   0.00    -0.09   0.20   0.00
   6   6    -0.04   0.02   0.00     0.16   0.02  -0.00     0.03  -0.45   0.00
   7   6     0.05  -0.06  -0.00    -0.28   0.24   0.00    -0.29   0.37   0.00
   8   6     0.03   0.11  -0.00    -0.01  -0.46   0.00     0.13  -0.21  -0.00
   9   8    -0.00  -0.04   0.00    -0.00   0.13  -0.00    -0.00   0.02  -0.00
  10   1    -0.13  -0.27  -0.00    -0.02  -0.04  -0.00    -0.01  -0.01   0.00
  11   1    -0.19   0.49   0.36    -0.02   0.13   0.09     0.00  -0.01  -0.01
  12   1    -0.19   0.49  -0.36    -0.02   0.13  -0.09     0.00  -0.01   0.01
  13   1    -0.00  -0.01  -0.00     0.22  -0.17  -0.00    -0.11   0.06   0.00
  14   1    -0.04  -0.01   0.00     0.12  -0.01  -0.00    -0.02   0.05   0.00
  15   1    -0.01   0.01   0.00     0.03  -0.11   0.00     0.04   0.09  -0.00
  16   1    -0.05   0.04   0.00     0.18  -0.16  -0.00     0.09  -0.05  -0.00
  17   1     0.02  -0.03  -0.00    -0.06   0.09   0.00    -0.01   0.01   0.00
                     37                     38                     39
                        a                      a                      a 
 Frequencies --  1591.7532              2937.3816              2950.4282
 Red. masses --    11.5185                 1.9558                 1.4369
 Frc consts  --     0.0000                 0.0000                 0.0000
 IR Inten    --    14.5230                49.7104                47.8887
 Raman Activ --     0.0000                 0.0000                 0.0000
 Depolar     --     0.0000                 0.0000                 0.0000
 Atom AN      X      Y      Z        X      Y      Z        X      Y      Z
   1   6    -0.02   0.00   0.00     0.00   0.00   0.29    -0.04   0.19  -0.00
   2   8     0.02  -0.02   0.00     0.00   0.00   0.01     0.01   0.02  -0.00
   3   6     0.18   0.23  -0.00    -0.00  -0.00  -0.00    -0.00   0.00   0.00
   4   6    -0.25  -0.04   0.00    -0.00  -0.00  -0.00    -0.00  -0.00   0.00
   5   6     0.49   0.23  -0.00     0.00  -0.00   0.00    -0.00  -0.00  -0.00
   6   6    -0.26  -0.29   0.00     0.00  -0.00   0.00     0.00  -0.00  -0.00
   7   6     0.33  -0.02  -0.00    -0.00  -0.00   0.00    -0.00   0.00  -0.00
   8   6    -0.48  -0.12   0.00     0.00   0.00   0.00     0.00  -0.00  -0.00
   9   8     0.05  -0.02  -0.00     0.00  -0.00  -0.00    -0.00   0.00   0.00
  10   1    -0.01  -0.01   0.00     0.00  -0.00   0.05     0.01   0.01  -0.00
  11   1     0.00   0.00   0.00    -0.07   0.40  -0.54     0.05  -0.37   0.59
  12   1     0.00   0.00  -0.00     0.07  -0.40  -0.54     0.05  -0.37  -0.59
  13   1    -0.02  -0.05   0.00     0.00   0.00  -0.00     0.01   0.01  -0.00
  14   1    -0.13  -0.02   0.00    -0.00   0.00  -0.00    -0.00   0.00   0.00
  15   1    -0.04   0.09   0.00    -0.00   0.00  -0.00    -0.00  -0.00   0.00
  16   1    -0.02   0.09  -0.00     0.00   0.00  -0.00    -0.00  -0.00   0.00
  17   1    -0.06   0.07   0.00     0.00  -0.00   0.00     0.00  -0.00  -0.00
                     40                     41                     42
                        a                      a                      a 
 Frequencies --  3033.9733              3076.7925              3088.9474
 Red. masses --     1.7016                 1.8025                 1.7824
 Frc consts  --     0.0000                 0.0000                 0.0000
 IR Inten    --    15.9536                55.8411                37.2190
 Raman Activ --     0.0000                 0.0000                 0.0000
 Depolar     --     0.0000                 0.0000                 0.0000
 Atom AN      X      Y      Z        X      Y      Z        X      Y      Z
   1   6     0.22  -0.12  -0.00    -0.00  -0.00   0.00     0.00  -0.00  -0.00
   2   8     0.01   0.00  -0.00     0.00   0.00  -0.00    -0.00   0.00   0.00
   3   6    -0.00  -0.00  -0.00    -0.00  -0.00   0.00    -0.00  -0.00   0.00
   4   6     0.00   0.00  -0.00     0.00  -0.00  -0.00    -0.03  -0.03   0.00
   5   6    -0.00   0.00   0.00    -0.00  -0.00   0.00    -0.07   0.21   0.00
   6   6     0.00   0.00  -0.00    -0.07   0.01   0.00     0.13  -0.02  -0.00
   7   6     0.00   0.00   0.00     0.17   0.20  -0.00     0.03   0.04  -0.00
   8   6    -0.00  -0.00   0.00    -0.00   0.01  -0.00    -0.00   0.00   0.00
   9   8    -0.00   0.00  -0.00    -0.00  -0.00   0.00     0.00  -0.00  -0.00
  10   1    -0.85   0.46   0.00     0.00  -0.00  -0.00    -0.00   0.00   0.00
  11   1     0.03  -0.03   0.01    -0.00   0.00  -0.00    -0.00   0.00  -0.00
  12   1     0.03  -0.03  -0.01    -0.00   0.00   0.00    -0.00   0.00   0.00
  13   1    -0.00  -0.00   0.00    -0.00  -0.00   0.00     0.11   0.13  -0.00
  14   1    -0.00   0.00  -0.00    -0.00   0.01   0.00     0.26  -0.76  -0.00
  15   1    -0.00   0.00   0.00     0.28  -0.05  -0.00    -0.48   0.08   0.00
  16   1    -0.00  -0.00   0.00    -0.60  -0.70   0.00    -0.10  -0.12   0.00
  17   1     0.00   0.00  -0.00     0.00  -0.00   0.00     0.00  -0.00   0.00
                     43                     44                     45
                        a                      a                      a 
 Frequencies --  3101.4034              3114.7266              3446.0605
 Red. masses --     1.8764                 1.8687                 1.8658
 Frc consts  --     0.0000                 0.0000                 0.0000
 IR Inten    --   112.4137                54.2182               147.4574
 Raman Activ --     0.0000                 0.0000                 0.0000
 Depolar     --     0.0000                 0.0000                 0.0000
 Atom AN      X      Y      Z        X      Y      Z        X      Y      Z
   1   6    -0.00   0.00   0.00    -0.00   0.00   0.00     0.00   0.00  -0.00
   2   8     0.00   0.00  -0.00    -0.00   0.00  -0.00    -0.00   0.00   0.00
   3   6     0.00   0.00  -0.00     0.01  -0.00  -0.00     0.00  -0.00  -0.00
   4   6     0.06   0.08  -0.00     0.16   0.20  -0.00     0.00   0.00  -0.00
   5   6     0.04  -0.12  -0.00    -0.03   0.10   0.00     0.00  -0.00  -0.00
   6   6     0.22  -0.04  -0.00    -0.06   0.01   0.00    -0.00   0.00   0.00
   7   6     0.05   0.06  -0.00    -0.01  -0.02   0.00    -0.00  -0.00   0.00
   8   6    -0.00   0.00   0.00    -0.00  -0.00   0.00     0.00   0.01   0.00
   9   8     0.00  -0.00  -0.00    -0.00   0.00   0.00     0.18   0.16  -0.00
  10   1     0.00  -0.00  -0.00     0.00  -0.00  -0.00    -0.00   0.00   0.00
  11   1     0.00  -0.00   0.00     0.00  -0.01   0.01     0.00  -0.00   0.00
  12   1     0.00  -0.00  -0.00     0.00  -0.01  -0.01     0.00  -0.00  -0.00
  13   1    -0.23  -0.27   0.00    -0.56  -0.68   0.00    -0.00  -0.00  -0.00
  14   1    -0.14   0.40   0.00     0.10  -0.30  -0.00    -0.00  -0.00  -0.00
  15   1    -0.74   0.13   0.00     0.21  -0.04  -0.00     0.00  -0.00  -0.00
  16   1    -0.15  -0.17   0.00     0.04   0.05  -0.00    -0.00   0.00   0.00
  17   1    -0.00  -0.00   0.00     0.00   0.00  -0.00    -0.72  -0.66   0.00
