      -----------------------------------------------------------      
     |                   =====================                   |     
     |                           x T B                           |     
     |                   =====================                   |     
     |                         S. Grimme                         |     
     |          Mulliken Center for Theoretical Chemistry        |     
     |                    University of Bonn                     |     
      -----------------------------------------------------------      

   * xtb version 6.7.1 (edcfbbe) compiled by 'albert@albert-system' on 2024-07-22

   xtb is free software: you can redistribute it and/or modify it under
   the terms of the GNU Lesser General Public License as published by
   the Free Software Foundation, either version 3 of the License, or
   (at your option) any later version.
   
   xtb is distributed in the hope that it will be useful,
   but WITHOUT ANY WARRANTY; without even the implied warranty of
   MERCHANTABILITY or FITNESS FOR A PARTICULAR PURPOSE.  See the
   GNU Lesser General Public License for more details.
   
   Cite this work as:
   * C. Bannwarth, E. Caldeweyher, S. Ehlert, A. Hansen, P. Pracht,
     J. Seibert, S. Spicher, S. Grimme, WIREs Comput. Mol. Sci., 2020, 11,
     e01493. DOI: 10.1002/wcms.1493
   
   for GFN2-xTB:
   * C. Bannwarth, S. Ehlert and S. Grimme., J. Chem. Theory Comput., 2019,
     15, 1652-1671. DOI: 10.1021/acs.jctc.8b01176
   for GFN1-xTB:
   * S. Grimme, C. Bannwarth, P. Shushkov, J. Chem. Theory Comput., 2017,
     13, 1989-2009. DOI: 10.1021/acs.jctc.7b00118
   for GFN0-xTB:
   * P. Pracht, E. Caldeweyher, S. Ehlert, S. Grimme, ChemRxiv, 2019, preprint.
     DOI: 10.26434/chemrxiv.8326202.v1
   for GFN-FF:
   * S. Spicher and S. Grimme, Angew. Chem. Int. Ed., 2020, 59, 15665-15673.
     DOI: 10.1002/anie.202004239
   
   for ALPB and GBSA implicit solvation:
   * S. Ehlert, M. Stahn, S. Spicher, S. Grimme, J. Chem. Theory Comput.,
     2021, 17, 4250-4261. DOI: 10.1021/acs.jctc.1c00471
   
   for ddCOSMO and CPCM-X implicit solvation:
   * M. Stahn, S. Ehlert, S. Grimme, J. Phys. Chem. A,
     2023, XX, XXXX-XXXX. DOI: 10.1021/acs.jpca.3c04382
   
   for DFT-D4:
   * E. Caldeweyher, C. Bannwarth and S. Grimme, J. Chem. Phys., 2017,
     147, 034112. DOI: 10.1063/1.4993215
   * E. Caldeweyher, S. Ehlert, A. Hansen, H. Neugebauer, S. Spicher,
     C. Bannwarth and S. Grimme, J. Chem. Phys., 2019, 150, 154122.
     DOI: 10.1063/1.5090222
   * E. Caldeweyher, J.-M. Mewes, S. Ehlert and S. Grimme, Phys. Chem. Chem. Phys.
     2020, 22, 8499-8512. DOI: 10.1039/D0CP00502A
   
   for sTDA-xTB:
   * S. Grimme and C. Bannwarth, J. Chem. Phys., 2016, 145, 054103.
     DOI: 10.1063/1.4959605
   
   in the mass-spec context:
   * V. Asgeirsson, C. Bauer and S. Grimme, Chem. Sci., 2017, 8, 4879.
     DOI: 10.1039/c7sc00601b
   * J. Koopman and S. Grimme, ACS Omega 2019, 4, 12, 15120-15133.
     DOI: 10.1021/acsomega.9b02011
   
   for metadynamics refer to:
   * S. Grimme, J. Chem. Theory Comput., 2019, 155, 2847-2862
     DOI: 10.1021/acs.jctc.9b00143
   
   for SPH calculations refer to:
   * S. Spicher and S. Grimme, J. Chem. Theory Comput., 2021, 17, 1701-1714
     DOI: 10.1021/acs.jctc.0c01306
   
   for ONIOM refer to:
   * C. Plett, A. Katbashev, S. Ehlert, S. Grimme, M. Bursch,
     Phys. Chem. Chem. Phys., 2023, 25, 17860-17868. DOI: 10.1039/D3CP02178E
   
   for DIPRO refer to:
   * J. Kohn, N. Gildemeister, S. Grimme, D. Fazzi, A. Hansen,
     J. Chem. Phys., 2023, just accepted.
   
   for PTB refer to:
   * S. Grimme, M. Mueller, A. Hansen, J. Chem. Phys., 2023, 158, 124111.
     DOI: 10.1063/5.0137838
   
   with help from (in alphabetical order)
   P. Atkinson, C. Bannwarth, F. Bohle, G. Brandenburg, E. Caldeweyher
   M. Checinski, S. Dohm, S. Ehlert, S. Ehrlich, I. Gerasimov, C. Hölzer
   A. Katbashev, J. Kohn, J. Koopman, C. Lavigne, S. Lehtola, F. März, M. Müller,
   F. Musil, H. Neugebauer, J. Pisarek, C. Plett, P. Pracht, F. Pultar,
   J. Seibert, P. Shushkov, S. Spicher, M. Stahn, M. Steiner, T. Strunk,
   J. Stückrath, T. Rose, and J. Unsleber
   
 * started run on 2025/04/06 at 11:44:46.796     
   ID    Z sym.   atoms
    1    6 C      1, 2, 4-6, 8, 10, 12-14
    2    1 H      3, 7, 9, 15-31
    3    8 O      11

           -------------------------------------------------
          |                Calculation Setup                |
           -------------------------------------------------

          program call               : /srv/scratch/z5358697/.xtb/bin/xtb solv.coord --gfn2 --sp --chrg 0 --norestart --parallel 1 --alpb water reference -I xtb_sp-xcontrol-inp
          hostname                   : k140
          coordinate file            : solv.coord
          omp threads                :                     1


           -------------------------------------------------
          |                 G F N 2 - x T B                 |
           -------------------------------------------------

        Reference                      10.1021/acs.jctc.8b01176
      * Hamiltonian:
        H0-scaling (s, p, d)           1.850000    2.230000    2.230000
        zeta-weighting                 0.500000
      * Dispersion:
        s8                             2.700000
        a1                             0.520000
        a2                             5.000000
        s9                             5.000000
      * Repulsion:
        kExp                           1.500000    1.000000
        rExp                           1.000000
      * Coulomb:
        alpha                          2.000000
        third order                    shell-resolved
        anisotropic                    true
        a3                             3.000000
        a5                             4.000000
        cn-shift                       1.200000
        cn-exp                         4.000000
        max-rad                        5.000000

      * Solvation model:               ALPB
        Solvent                        water
        Parameter file                 internal GFN2-xTB/ALPB
        Dielectric constant                8.0200E+01
        Reference state                gsolv=reference [X=1]
        Free energy shift                  2.8945E-03 Eh       1.8164E+00 kcal/mol
        Temperature                        2.9815E+02 K
        Density                            1.0000E+00 kg/L
        Solvent mass                       1.8000E+01 g/mol
        Interaction kernel             P16
        Born radius scaling (c1)           1.4744E+00
        Born radii integrator          GBOBC
        Born offset                        0.0000E+00 a0       0.0000E+00 AA
        H-bond correction              true
        Ion screening                  false
        Surface tension                    1.0000E-05 Eh       1.5569E+01 dyn/cm
        Grid points                               974 per atom

          ...................................................
          :                      SETUP                      :
          :.................................................:
          :  # basis functions                  64          :
          :  # atomic orbitals                  64          :
          :  # shells                           42          :
          :  # electrons                        66          :
          :  max. iterations                   250          :
          :  Hamiltonian                  GFN2-xTB          :
          :  restarted?                      false          :
          :  GBSA solvation                   true          :
          :  PC potential                    false          :
          :  electronic temp.          300.0000000     K    :
          :  accuracy                    1.0000000          :
          :  -> integral cutoff          0.2500000E+02      :
          :  -> integral neglect         0.1000000E-07      :
          :  -> SCF convergence          0.1000000E-05 Eh   :
          :  -> wf. convergence          0.1000000E-03 e    :
          :  Broyden damping             0.4000000          :
          :  net charge                          0          :
          :  unpaired electrons                  0          :
          ...................................................

 iter      E             dE          RMSdq      gap      omega  full diag
   1    -36.1282811 -0.361283E+02  0.277E+00   11.57       0.0  T
   2    -36.1783667 -0.500856E-01  0.151E+00   11.51       1.0  T
   3    -36.1797084 -0.134166E-02  0.604E-01   11.52       1.0  T
   4    -36.1800262 -0.317792E-03  0.125E-01   11.51       1.0  T
   5    -36.1801522 -0.125962E-03  0.606E-02   11.52       1.0  T
   6    -36.1801543 -0.215009E-05  0.105E-02   11.52       1.7  T
   7    -36.1801549 -0.555303E-06  0.409E-03   11.52       4.4  T
   8    -36.1801549 -0.459886E-07  0.198E-03   11.52       9.1  T
   9    -36.1801549 -0.132679E-07  0.757E-04   11.52      23.7  T
  10    -36.1801549 -0.236502E-08  0.173E-04   11.52     103.9  T

   *** convergence criteria satisfied after 10 iterations ***

         #    Occupation            Energy/Eh            Energy/eV
      -------------------------------------------------------------
         1        2.0000           -0.6830996             -18.5881
       ...           ...                  ...                  ...
        27        2.0000           -0.4341375             -11.8135
        28        2.0000           -0.4299847             -11.7005
        29        2.0000           -0.4235821             -11.5263
        30        2.0000           -0.4149082             -11.2902
        31        2.0000           -0.4104856             -11.1699
        32        2.0000           -0.4025451             -10.9538
        33        2.0000           -0.3944052             -10.7323 (HOMO)
        34                          0.0289585               0.7880 (LUMO)
        35                          0.0549133               1.4943
        36                          0.0712116               1.9378
        37                          0.0811795               2.2090
        38                          0.0879848               2.3942
       ...                                ...                  ...
        64                          0.3536244               9.6226
      -------------------------------------------------------------
                  HL-Gap            0.4233638 Eh           11.5203 eV
             Fermi-level           -0.1827233 Eh           -4.9722 eV

 SCC (total)                   0 d,  0 h,  0 min,  0.032 sec
 SCC setup                      ...        0 min,  0.002 sec (  5.329%)
 Dispersion                     ...        0 min,  0.000 sec (  0.578%)
 classical contributions        ...        0 min,  0.000 sec (  0.103%)
 integral evaluation            ...        0 min,  0.003 sec (  8.032%)
 iterations                     ...        0 min,  0.020 sec ( 61.621%)
 molecular gradient             ...        0 min,  0.008 sec ( 23.943%)
 printout                       ...        0 min,  0.000 sec (  0.358%)

         :::::::::::::::::::::::::::::::::::::::::::::::::::::
         ::                     SUMMARY                     ::
         :::::::::::::::::::::::::::::::::::::::::::::::::::::
         :: total energy             -35.706549451786 Eh    ::
         :: total w/o Gsasa/hb       -35.703788197912 Eh    ::
         :: gradient norm              0.000030212031 Eh/a0 ::
         :: HOMO-LUMO gap             11.520314122691 eV    ::
         ::.................................................::
         :: SCC energy               -36.179893226805 Eh    ::
         :: -> isotropic ES            0.038852153330 Eh    ::
         :: -> anisotropic ES          0.007829677822 Eh    ::
         :: -> anisotropic XC          0.015100525659 Eh    ::
         :: -> dispersion             -0.025370150886 Eh    ::
         :: -> Gsolv                  -0.006975107181 Eh    ::
         ::    -> Gelec               -0.004213853306 Eh    ::
         ::    -> Gsasa               -0.000132702483 Eh    ::
         ::    -> Ghb                 -0.005523100551 Eh    ::
         ::    -> Gshift               0.002894549160 Eh    ::
         :: repulsion energy           0.473343775019 Eh    ::
         :: add. restraining           0.000000000000 Eh    ::
         :: total charge               0.000000000000 e     ::
         :::::::::::::::::::::::::::::::::::::::::::::::::::::

           -------------------------------------------------
          |                Property Printout                |
           -------------------------------------------------

    * Orbital Energies and Occupations

         #    Occupation            Energy/Eh            Energy/eV
      -------------------------------------------------------------
         1        2.0000           -0.6830996             -18.5881
       ...           ...                  ...                  ...
        21        2.0000           -0.4639652             -12.6251
        22        2.0000           -0.4614259             -12.5560
        23        2.0000           -0.4581609             -12.4672
        24        2.0000           -0.4549000             -12.3785
        25        2.0000           -0.4476756             -12.1819
        26        2.0000           -0.4404938             -11.9864
        27        2.0000           -0.4341375             -11.8135
        28        2.0000           -0.4299847             -11.7005
        29        2.0000           -0.4235821             -11.5263
        30        2.0000           -0.4149082             -11.2902
        31        2.0000           -0.4104856             -11.1699
        32        2.0000           -0.4025451             -10.9538
        33        2.0000           -0.3944052             -10.7323 (HOMO)
        34                          0.0289585               0.7880 (LUMO)
        35                          0.0549133               1.4943
        36                          0.0712116               1.9378
        37                          0.0811795               2.2090
        38                          0.0879848               2.3942
        39                          0.0940653               2.5596
        40                          0.1018939               2.7727
        41                          0.1162043               3.1621
        42                          0.1288696               3.5067
        43                          0.1316900               3.5835
        44                          0.1446201               3.9353
       ...                                ...                  ...
        64                          0.3536244               9.6226
      -------------------------------------------------------------
                  HL-Gap            0.4233638 Eh           11.5203 eV
             Fermi-level           -0.1827233 Eh           -4.9722 eV

     #   Z          covCN         q      C6AA      α(0)
     1   6 C        3.755    -0.114    22.738     6.799
     2   6 C        3.852    -0.018    20.859     6.496
     3   1 H        0.924     0.026     2.638     2.540
     4   6 C        3.805    -0.070    21.829     6.651
     5   6 C        3.803    -0.065    21.737     6.638
     6   6 C        3.855    -0.032    21.103     6.533
     7   1 H        0.924     0.040     2.451     2.448
     8   6 C        3.728     0.118    18.746     6.181
     9   1 H        0.923     0.008     2.930     2.677
    10   6 C        3.807    -0.077    21.966     6.672
    11   8 O        1.655    -0.522    23.360     6.524
    12   6 C        3.849    -0.017    20.848     6.494
    13   6 C        3.756    -0.113    22.711     6.795
    14   6 C        3.754    -0.110    22.650     6.786
    15   1 H        0.925     0.039     2.462     2.454
    16   1 H        0.925     0.040     2.447     2.446
    17   1 H        0.925     0.038     2.472     2.459
    18   1 H        0.924     0.040     2.450     2.448
    19   1 H        0.925     0.035     2.514     2.479
    20   1 H        0.924     0.036     2.505     2.475
    21   1 H        0.925     0.041     2.435     2.440
    22   1 H        0.924     0.043     2.405     2.425
    23   1 H        0.924     0.031     2.576     2.510
    24   1 H        0.805     0.347     0.595     1.211
    25   1 H        0.924     0.033     2.543     2.494
    26   1 H        0.925     0.033     2.538     2.491
    27   1 H        0.925     0.038     2.471     2.458
    28   1 H        0.925     0.038     2.473     2.459
    29   1 H        0.925     0.042     2.420     2.433
    30   1 H        0.925     0.037     2.486     2.466
    31   1 H        0.925     0.031     2.575     2.509

 Mol. C6AA /au·bohr⁶  :       6715.597672
 Mol. C8AA /au·bohr⁸  :     142814.040062
 Mol. α(0) /au        :        120.893246


Wiberg/Mayer (AO) data.
largest (>0.10) Wiberg bond orders for each atom

 ---------------------------------------------------------------------------
     #   Z sym  total        # sym  WBO       # sym  WBO       # sym  WBO
 ---------------------------------------------------------------------------
     1   6 C    3.996 --     2 C    1.011    17 H    0.986    15 H    0.986
                            16 H    0.985
     2   6 C    3.996 --     1 C    1.011     4 C    0.994    10 C    0.993
                             3 H    0.972
     3   1 H    0.999 --     2 C    0.972
     4   6 C    3.997 --     5 C    1.011     2 C    0.994    19 H    0.977
                            18 H    0.976
     5   6 C    3.997 --     4 C    1.011     6 C    0.993    20 H    0.978
                            21 H    0.971
     6   6 C    3.992 --     5 C    0.993    12 C    0.983     8 C    0.981
                             7 H    0.965
     7   1 H    0.998 --     6 C    0.965
     8   6 C    3.950 --    10 C    0.989     6 C    0.981    11 O    0.978
                             9 H    0.959
     9   1 H    1.000 --     8 C    0.959
    10   6 C    3.996 --     2 C    0.993     8 C    0.989    23 H    0.976
                            22 H    0.975
    11   8 O    1.909 --     8 C    0.978    24 H    0.863
    12   6 C    3.995 --    14 C    1.010    13 C    1.009     6 C    0.983
                            25 H    0.967
    13   6 C    3.996 --    12 C    1.009    26 H    0.987    27 H    0.986
                            28 H    0.984
    14   6 C    3.997 --    12 C    1.010    30 H    0.985    29 H    0.984
                            31 H    0.982
    15   1 H    0.998 --     1 C    0.986
    16   1 H    0.998 --     1 C    0.985
    17   1 H    0.999 --     1 C    0.986
    18   1 H    0.998 --     4 C    0.976
    19   1 H    0.999 --     4 C    0.977
    20   1 H    0.999 --     5 C    0.978
    21   1 H    0.998 --     5 C    0.971
    22   1 H    0.998 --    10 C    0.975
    23   1 H    0.999 --    10 C    0.976
    24   1 H    0.879 --    11 O    0.863
    25   1 H    0.999 --    12 C    0.967
    26   1 H    0.999 --    13 C    0.987
    27   1 H    0.998 --    13 C    0.986
    28   1 H    0.999 --    13 C    0.984
    29   1 H    0.998 --    14 C    0.984
    30   1 H    0.998 --    14 C    0.985
    31   1 H    0.999 --    14 C    0.982
 ---------------------------------------------------------------------------

Topologies differ in total number of bonds
Writing topology from bond orders to xtbtopo.mol

molecular dipole:
                 x           y           z       tot (Debye)
 q only:        0.489       0.203      -0.320
   full:        0.614       0.100      -0.448       1.948
molecular quadrupole (traceless):
                xx          xy          yy          xz          yz          zz
 q only:       -0.250      -3.261       1.802       0.506       2.670      -1.552
  q+dip:       -1.494      -4.617       1.926       1.145       4.154      -0.432
   full:       -1.128      -4.500       2.216       0.804       3.954      -1.088


           -------------------------------------------------
          | TOTAL ENERGY              -35.706549451786 Eh   |
          | GRADIENT NORM               0.000030212031 Eh/α |
          | HOMO-LUMO GAP              11.520314122691 eV   |
           -------------------------------------------------

------------------------------------------------------------------------
 * finished run on 2025/04/06 at 11:44:46.862     
------------------------------------------------------------------------
 total:
 * wall-time:     0 d,  0 h,  0 min,  0.066 sec
 *  cpu-time:     0 d,  0 h,  0 min,  0.030 sec
 * ratio c/w:     0.463 speedup
 SCF:
 * wall-time:     0 d,  0 h,  0 min,  0.032 sec
 *  cpu-time:     0 d,  0 h,  0 min,  0.021 sec
 * ratio c/w:     0.661 speedup

