
                                 *****************
                                 * O   R   C   A *
                                 *****************

                                            #,                                       
                                            ###                                      
                                            ####                                     
                                            #####                                    
                                            ######                                   
                                           ########,                                 
                                     ,,################,,,,,                         
                               ,,#################################,,                 
                          ,,##########################################,,             
                       ,#########################################, ''#####,          
                    ,#############################################,,   '####,        
                  ,##################################################,,,,####,       
                ,###########''''           ''''###############################       
              ,#####''   ,,,,##########,,,,          '''####'''          '####       
            ,##' ,,,,###########################,,,                        '##       
           ' ,,###''''                  '''############,,,                           
         ,,##''                                '''############,,,,        ,,,,,,###''
      ,#''                                            '''#######################'''  
     '                                                          ''''####''''         
             ,#######,   #######,   ,#######,      ##                                
            ,#'     '#,  ##    ##  ,#'     '#,    #''#        ,####,   ,####,        
            ##       ##  ##   ,#'  ##            #'  '#       #'       #'  '#        
            ##       ##  #######   ##           ,######,      #####,   #    #        
            '#,     ,#'  ##    ##  '#,     ,#' ,#      #,     #,   #   #,  ,#        
             '#######'   ##     ##  '#######'  #'      '#     '####' # '####'        



                #########################################################
                #                        -***-                          #
                #          Department of theory and spectroscopy        #
                #                                                       #
                #                      Frank Neese                      #
                #                                                       #
                #     Directorship, Architecture, Infrastructure        #
                #                    SHARK, DRIVERS                     #
                #        Core code/Algorithms in most modules           #
                #                                                       #
                #        Max Planck Institute fuer Kohlenforschung      #
                #                Kaiser Wilhelm Platz 1                 #
                #                 D-45470 Muelheim/Ruhr                 #
                #                      Germany                          #
                #                                                       #
                #                  All rights reserved                  #
                #                        -***-                          #
                #########################################################


                         Program Version 6.0.0  -   RELEASE  -


 With contributions from (in alphabetic order):
   Daniel Aravena         : Magnetic Suceptibility
   Michael Atanasov       : Ab Initio Ligand Field Theory (pilot matlab implementation)
   Alexander A. Auer      : GIAO ZORA, VPT2 properties, NMR spectrum
   Ute Becker             : All parallelization in ORCA, NUMFREQ, NUMCALC
   Giovanni Bistoni       : ED, misc. LED, open-shell LED, HFLD
   Martin Brehm           : Molecular dynamics
   Dmytro Bykov           : pre 5.0 version of the SCF Hessian
   Marcos Casanova-Páez   : Triplet and SCS-CIS(D). UHF-(DLPNO)-IP/EA/STEOM-CCSD. UHF-CVS-IP/STEOM-CCSD
   Vijay G. Chilkuri      : MRCI spin determinant printing, contributions to CSF-ICE
   Pauline Colinet        : FMM embedding
   Dipayan Datta          : RHF DLPNO-CCSD density
   Achintya Kumar Dutta   : EOM-CC, STEOM-CC
   Nicolas Foglia         : Exact transition moments, OPA infrastructure, MCD improvements
   Dmitry Ganyushin       : Spin-Orbit,Spin-Spin,Magnetic field MRCI
   Miquel Garcia          : C-PCM and meta-GGA Hessian, CCSD/C-PCM, Gaussian charge scheme
   Tiago L. C. Gouveia    : GS-ROHF, GS-ROCIS
   Yang Guo               : DLPNO-NEVPT2, F12-NEVPT2, CIM, IAO-localization
   Andreas Hansen         : Spin unrestricted coupled pair/coupled cluster methods
   Ingolf Harden          : AUTO-CI MPn and infrastructure 
   Benjamin Helmich-Paris : MC-RPA, TRAH-(SCF,CASSCF), AVAS, COSX integrals, SCF dyn. polar.
   Lee Huntington         : MR-EOM, pCC
   Robert Izsak           : Overlap fitted RIJCOSX, COSX-SCS-MP3, EOM
   Riya Kayal             : Wick's Theorem for AUTO-CI, AUTO-CI UHF-CCSDT
   Emily Kempfer          : AUTO-CI, RHF CISDT and CCSDT
   Christian Kollmar      : KDIIS, OOCD, Brueckner-CCSD(T), CCSD density, CASPT2, CASPT2-K, improved NEVPT2
   Axel Koslowski         : Symmetry handling
   Simone Kossmann        : Meta GGA functionals, TD-DFT gradient, OOMP2, (MP2 Hessian; deprecated post 5.0)
   Lucas Lang             : DCDCAS
   Marvin Lechner         : AUTO-CI (C++ implementation), FIC-MRCC
   Spencer Leger          : CASSCF response
   Dagmar Lenk            : GEPOL surface, SMD, ORCA-2-JSON
   Dimitrios Liakos       : Extrapolation schemes; Compound Job, initial MDCI parallelization
   Dimitrios Manganas     : Further ROCIS development; embedding schemes. LFT, Crystal Embedding
   Dimitrios Pantazis     : SARC Basis sets
   Anastasios Papadopoulos: AUTO-CI, single reference methods and gradients
   Taras Petrenko         : pre 6.0 DFT Hessian and TD-DFT gradient, (ASA, deprecated), ECA, 1-Electron XAS/XES, NRVS
   Peter Pinski           : DLPNO-MP2, DLPNO-MP2 Gradient
   Christoph Reimann      : Effective Core Potentials
   Marius Retegan         : Local ZFS, SOC
   Christoph Riplinger    : Optimizer, TS searches, QM/MM, DLPNO-CCSD(T), (RO)-DLPNO pert. Triples
   Michael Roemelt        : Original ROCIS implementation
   Masaaki Saitow         : Open-shell DLPNO-CCSD energy and density
   Barbara Sandhoefer     : DKH picture change effects
   Kantharuban Sivalingam : CASSCF convergence/infrastructure, NEVPT2 and variants, FIC-MRCI
   Bernardo de Souza      : ESD, SOC TD-DFT
   Georgi Stoychev        : AutoAux, RI-MP2 NMR, DLPNO-MP2 response, X2C
   Van Anh Tran           : RI-MP2 g-tensors
   Willem Van den Heuvel  : Paramagnetic NMR
   Zikuan Wang            : NOTCH, Electric field optimization 
   Frank Wennmohs         : Technical directorship and infrastructure
   Hang Xu                : AUTO-CI-Response properties 


 We gratefully acknowledge several colleagues who have allowed us to
 interface, adapt or use parts of their codes:
   Stefan Grimme, W. Hujo, H. Kruse, P. Pracht,  : VdW corrections, initial TS optimization,
                  C. Bannwarth, S. Ehlert,         DFT functionals, gCP, sTDA/sTD-DF
                  L. Wittmann, M. Mueller
   Ed Valeev, F. Pavosevic, A. Kumar             : LibInt (2-el integral package), F12 methods
   Garnet Chan, S. Sharma, J. Yang, R. Olivares  : DMRG
   Ulf Ekstrom                                   : XCFun DFT Library
   Mihaly Kallay                                 : mrcc  (arbitrary order and MRCC methods)
   Frank Weinhold                                : gennbo (NPA and NBO analysis)
   Simon Mueller                                 : openCOSMO-RS
   Christopher J. Cramer and Donald G. Truhlar   : smd solvation model
   Lars Goerigk                                  : TD-DFT with DH, B97 family of functionals
   V. Asgeirsson, H. Jonsson                     : NEB implementation
   FAccTs GmbH                                   : IRC, NEB, NEB-TS, DLPNO-Multilevel, CI-OPT
                                                   MM, QMMM, 2- and 3-layer-ONIOM, Crystal-QMMM,
                                                   LR-CPCM, SF, NACMEs, symmetry and pop. for TD-DFT,
                                                   nearIR, NL-DFT gradient (VV10), updates on ESD,
                                                   ML-optimized integration grids, MBIS, APM,
                                                   GOAT, DOCKER, SOLVATOR, interface openCOSMO-RS
   S Lehtola, MJT Oliveira, MAL Marques          : LibXC Library
   Liviu Ungur et al                             : ANISO software


 Your calculation uses the libint2 library for the computation of 2-el integrals
 For citations please refer to: http://libint.valeyev.net

 Your ORCA version has been built with support for libXC version: 6.2.2
 For citations please refer to: https://libxc.gitlab.io

 This ORCA versions uses:
   CBLAS   interface :  Fast vector & matrix operations
   LAPACKE interface :  Fast linear algebra routines
   SCALAPACK package :  Parallel linear algebra routines
   Shared memory     :  Shared parallel matrices
   BLAS/LAPACK       :  OpenBLAS 0.3.27  USE64BITINT DYNAMIC_ARCH NO_AFFINITY SkylakeX SINGLE_THREADED
        Core in use  :  SkylakeX
   Copyright (c) 2011-2014, The OpenBLAS Project


Your calculation utilizes the geometrical counterpoise correction gCP
Please cite in your paper:
H.Kruse, S. Grimme J.Chem.Phys., 136, (2012), 154101 
   

Your calculation utilizes the atom-pairwise dispersion correction
based on EEQ partial charges (D4)


Your calculation utilizes the SMD solvation module
Please cite in your paper:
A.V. Marenich, C.J. Cramer, D.G. Truhlar J. Phys. Chem. B, 113, (2009), 6378 

================================================================================

----- Orbital basis set information -----
Your calculation utilizes the basis: def2-mTZVPP
   Stefan Grimme, Andreas Hansen, Sebastian Ehlert, and Jan-Michael Mewes 
   J. Chem. Phys. 154, 064103 (2021). DOI: 10.1063/5.0040021

----- AuxJ basis set information -----
Your calculation utilizes the auxiliary basis: def2/J
   F. Weigend, Phys. Chem. Chem. Phys. 8, 1057 (2006).

================================================================================
                                        WARNINGS
                       Please study these warnings very carefully!
================================================================================

Using LibXC functional ID 497 : Re-regularized SCAN exchange by Furness et al
[ 1]  J. W. Furness, A. D. Kaplan, J. Ning, J. P. Perdew, and J. Sun.,  J. Phys. Chem. Lett. 11, 8208-8215 (2020)
[ 2]  J. W. Furness, A. D. Kaplan, J. Ning, J. P. Perdew, and J. Sun.,  J. Phys. Chem. Lett. 11, 9248-9248 (2020)
Using LibXC functional ID 498 : Re-regularized SCAN correlation by Furness et al
[ 1]  J. W. Furness, A. D. Kaplan, J. Ning, J. P. Perdew, and J. Sun.,  J. Phys. Chem. Lett. 11, 8208-8215 (2020)
[ 2]  J. W. Furness, A. D. Kaplan, J. Ning, J. P. Perdew, and J. Sun.,  J. Phys. Chem. Lett. 11, 9248-9248 (2020)
Using LibXC functional ID 497 : Re-regularized SCAN exchange by Furness et al
[ 1]  J. W. Furness, A. D. Kaplan, J. Ning, J. P. Perdew, and J. Sun.,  J. Phys. Chem. Lett. 11, 8208-8215 (2020)
[ 2]  J. W. Furness, A. D. Kaplan, J. Ning, J. P. Perdew, and J. Sun.,  J. Phys. Chem. Lett. 11, 9248-9248 (2020)
Using LibXC functional ID 498 : Re-regularized SCAN correlation by Furness et al
[ 1]  J. W. Furness, A. D. Kaplan, J. Ning, J. P. Perdew, and J. Sun.,  J. Phys. Chem. Lett. 11, 8208-8215 (2020)
[ 2]  J. W. Furness, A. D. Kaplan, J. Ning, J. P. Perdew, and J. Sun.,  J. Phys. Chem. Lett. 11, 9248-9248 (2020)

================================================================================
                                       INPUT FILE
================================================================================
NAME = sp_solv.inp
|  1> ! r2scan-3c def2/J RI DEFGRID2 scfconv6 printgap
|  2> %output
|  3>     printlevel normal
|  4> end
|  5> %cpcm
|  6>     smd true
|  7>     smdsolvent "water"
|  8> end
|  9> * xyz 0 1
| 10> C 2.4363737208 0.0294981584 0.0001593622
| 11> C 0.9418974881 -0.0063951012 -0.0002136276
| 12> C 0.2480274977 -1.2134240437 -0.0002359672
| 13> C -1.135727277 -1.2025957257 5.67342e-05
| 14> C -1.7848045866 0.0229985615 0.0001742637
| 15> N -1.1433354118 1.1807518043 -2.3135e-06
| 16> C 0.1803983044 1.1573782905 -8.91947e-05
| 17> H 2.7977175516 1.0539203975 -0.0082075536
| 18> H 2.8232992962 -0.4733855988 0.8846750112
| 19> H 2.8244627185 -0.4886308167 -0.8749191961
| 20> H 0.790604854 -2.1478899679 0.0003981095
| 21> H -1.7005431303 -2.1213125358 -1.42061e-05
| 22> H -2.864449178 0.0885249203 0.00020396
| 23> H 0.6574594268 2.1293885294 -0.0003352747
| 24> *
| 25> 
| 26>                          ****END OF INPUT****
================================================================================

                       ****************************
                       * Single Point Calculation *
                       ****************************

---------------------------------
CARTESIAN COORDINATES (ANGSTROEM)
---------------------------------
  C      2.436374    0.029498    0.000159
  C      0.941897   -0.006395   -0.000214
  C      0.248027   -1.213424   -0.000236
  C     -1.135727   -1.202596    0.000057
  C     -1.784805    0.022999    0.000174
  N     -1.143335    1.180752   -0.000002
  C      0.180398    1.157378   -0.000089
  H      2.797718    1.053920   -0.008208
  H      2.823299   -0.473386    0.884675
  H      2.824463   -0.488631   -0.874919
  H      0.790605   -2.147890    0.000398
  H     -1.700543   -2.121313   -0.000014
  H     -2.864449    0.088525    0.000204
  H      0.657459    2.129389   -0.000335

----------------------------
CARTESIAN COORDINATES (A.U.)
----------------------------
  NO LB      ZA    FRAG     MASS         X           Y           Z
   0 C     6.0000    0    12.011    4.604079    0.055743    0.000301
   1 C     6.0000    0    12.011    1.779928   -0.012085   -0.000404
   2 C     6.0000    0    12.011    0.468704   -2.293039   -0.000446
   3 C     6.0000    0    12.011   -2.146214   -2.272577    0.000107
   4 C     6.0000    0    12.011   -3.372792    0.043461    0.000329
   5 N     7.0000    0    14.007   -2.160591    2.231298   -0.000004
   6 C     6.0000    0    12.011    0.340903    2.187128   -0.000169
   7 H     1.0000    0     1.008    5.286920    1.991621   -0.015510
   8 H     1.0000    0     1.008    5.335262   -0.894569    1.671793
   9 H     1.0000    0     1.008    5.337461   -0.923378   -1.653358
  10 H     1.0000    0     1.008    1.494027   -4.058924    0.000752
  11 H     1.0000    0     1.008   -3.213561   -4.008700   -0.000027
  12 H     1.0000    0     1.008   -5.413024    0.167288    0.000385
  13 H     1.0000    0     1.008    1.242418    4.023961   -0.000634

--------------------------------
INTERNAL COORDINATES (ANGSTROEM)
--------------------------------
 C      0   0   0     0.000000000000     0.00000000     0.00000000
 C      1   0   0     1.494907246391     0.00000000     0.00000000
 C      2   1   0     1.392255160561   121.26860167     0.00000000
 C      3   2   1     1.383797172511   119.44442864   179.96939736
 C      4   3   2     1.386860744440   118.35413720     0.00000000
 N      5   4   3     1.323584264266   123.10496006     0.00000000
 C      6   5   4     1.323940059104   117.97766901     0.00000000
 H      1   2   3     1.086315006478   110.80430401   179.53009014
 H      1   2   3     1.088563919795   110.14847470   300.07595278
 H      1   2   3     1.088500430946   110.16977558    58.93833032
 H      3   2   1     1.080563349885   119.96655285     0.02317265
 H      4   3   2     1.078451450151   121.13434156   179.99617309
 H      5   4   3     1.081631244149   121.37895371   179.98773013
 H      7   6   5     1.082770187799   115.13015166   179.99403869

---------------------------
INTERNAL COORDINATES (A.U.)
---------------------------
 C      0   0   0     0.000000000000     0.00000000     0.00000000
 C      1   0   0     2.824965291293     0.00000000     0.00000000
 C      2   1   0     2.630980961999   121.26860167     0.00000000
 C      3   2   1     2.614997680941   119.44442864   179.96939736
 C      4   3   2     2.620786992877   118.35413720     0.00000000
 N      5   4   3     2.501211774630   123.10496006     0.00000000
 C      6   5   4     2.501884129434   117.97766901     0.00000000
 H      1   2   3     2.052837857413   110.80430401   179.53009014
 H      1   2   3     2.057087687681   110.14847470   300.07595278
 H      1   2   3     2.056967711144   110.16977558    58.93833032
 H      3   2   1     2.041968801634   119.96655285     0.02317265
 H      4   3   2     2.037977889515   121.13434156   179.99617309
 H      5   4   3     2.043986829334   121.37895371   179.98773013
 H      7   6   5     2.046139120916   115.13015166   179.99403869

---------------------
BASIS SET INFORMATION
---------------------
There are 3 groups of distinct atoms

 Group   1 Type C   : 11s6p1d contracted to 5s3p1d pattern {62111/411/1}
 Group   2 Type N   : 11s6p2d contracted to 5s3p2d pattern {62111/411/11}
 Group   3 Type H   : 4s1p contracted to 2s1p pattern {31/1}

Atom   0C    basis set group =>   1
Atom   1C    basis set group =>   1
Atom   2C    basis set group =>   1
Atom   3C    basis set group =>   1
Atom   4C    basis set group =>   1
Atom   5N    basis set group =>   2
Atom   6C    basis set group =>   1
Atom   7H    basis set group =>   3
Atom   8H    basis set group =>   3
Atom   9H    basis set group =>   3
Atom  10H    basis set group =>   3
Atom  11H    basis set group =>   3
Atom  12H    basis set group =>   3
Atom  13H    basis set group =>   3
---------------------------------
AUXILIARY/J BASIS SET INFORMATION
---------------------------------
There are 3 groups of distinct atoms

 Group   1 Type C   : 12s5p4d2f1g contracted to 6s4p3d1f1g pattern {711111/2111/211/2/1}
 Group   2 Type N   : 12s5p4d2f1g contracted to 6s4p3d1f1g pattern {711111/2111/211/2/1}
 Group   3 Type H   : 5s2p1d contracted to 3s1p1d pattern {311/2/1}

Atom   0C    basis set group =>   1
Atom   1C    basis set group =>   1
Atom   2C    basis set group =>   1
Atom   3C    basis set group =>   1
Atom   4C    basis set group =>   1
Atom   5N    basis set group =>   2
Atom   6C    basis set group =>   1
Atom   7H    basis set group =>   3
Atom   8H    basis set group =>   3
Atom   9H    basis set group =>   3
Atom  10H    basis set group =>   3
Atom  11H    basis set group =>   3
Atom  12H    basis set group =>   3
Atom  13H    basis set group =>   3

Checking for AutoStart:
The File: sp_solv.gbw exists
Trying to determine its content:
     ... Fine, the file contains calculation information
     ... Fine, the calculation information was read
     ... Fine, the file contains a basis set
     ... Fine, the basis set was read
     ... Fine, the file contains a geometry
     ... Fine, the geometry was read
     ... Fine, the file contains a set of orbitals
     ... Fine, the orbitals can be read
     => possible old guess file was deleted
     => GBW file was renamed to GES file
     => GES file is set as startup file
     => Guess is set to MORead
     ... now leaving AutoStart

------------------------------------------------------------------------------
                             ORCA STARTUP CALCULATIONS
                           -- RI-GTO INTEGRALS CHOSEN --
------------------------------------------------------------------------------
------------------------------------------------------------------------------
                   ___                                                        
                  /   \      - P O W E R E D   B Y -                         
                 /     \                                                     
                 |  |  |   _    _      __       _____    __    __             
                 |  |  |  | |  | |    /  \     |  _  \  |  |  /  |          
                  \  \/   | |  | |   /    \    | | | |  |  | /  /          
                 / \  \   | |__| |  /  /\  \   | |_| |  |  |/  /          
                |  |  |   |  __  | /  /__\  \  |    /   |      \           
                |  |  |   | |  | | |   __   |  |    \   |  |\   \          
                \     /   | |  | | |  |  |  |  | |\  \  |  | \   \       
                 \___/    |_|  |_| |__|  |__|  |_| \__\ |__|  \__/        
                                                                              
                      - O R C A' S   B I G   F R I E N D -                    
                                      &                                       
                       - I N T E G R A L  F E E D E R -                       
                                                                              
 v1 FN, 2020, v2 2021, v3 2022-2024                                           
------------------------------------------------------------------------------


----------------------
SHARK INTEGRAL PACKAGE
----------------------

Number of atoms                             ...     14
Number of basis functions                   ...    173
Number of shells                            ...     85
Maximum angular momentum                    ...      2
Integral batch strategy                     ... SHARK/LIBINT Hybrid
RI-J (if used) integral strategy            ... SPLIT-RIJ (Revised 2003 algorithm where possible)
Printlevel                                  ...      1
Contraction scheme used                     ... SEGMENTED contraction
Prescreening option                         ... SCHWARTZ
   Thresh                                   ... 1.000e-10
   Tcut                                     ... 1.000e-11
   Tpresel                                  ... 1.000e-11 
Coulomb Range Separation                    ... NOT USED
Exchange Range Separation                   ... NOT USED
Multipole approximations                    ... NOT USED
Finite Nucleus Model                        ... NOT USED
CABS basis                                  ... NOT available
Auxiliary Coulomb fitting basis             ... AVAILABLE
   # of basis functions in Aux-J            ...    420
   # of shells in Aux-J                     ...    140
   Maximum angular momentum in Aux-J        ...      4
Auxiliary J/K fitting basis                 ... NOT available
Auxiliary Correlation fitting basis         ... NOT available
Auxiliary 'external' fitting basis          ... NOT available

Checking pre-screening integrals            ... done (  0.0 sec) Dimension = 85
Check shell pair data                       ... done (  0.0 sec)
Shell pair information
Shell pair cut-off parameter TPreSel        ...   1.0e-11
Total number of shell pairs                 ...      3655
Shell pairs after pre-screening             ...      3398
Total number of primitive shell pairs       ...     13378
Primitive shell pairs kept                  ...      9143
          la=0 lb=0:   1106 shell pairs
          la=1 lb=0:   1278 shell pairs
          la=1 lb=1:    387 shell pairs
          la=2 lb=0:    375 shell pairs
          la=2 lb=1:    216 shell pairs
          la=2 lb=2:     36 shell pairs

Calculating one electron integrals          ... done (  0.0 sec)
Calculating RI/J V-Matrix + Cholesky decomp.... done (  0.1 sec)
Calculating Nuclear repulsion               ... done (  0.0 sec) ENN=    273.842466491488 Eh

Diagonalization of the overlap matrix:
Smallest eigenvalue                        ... 9.242e-05
Time for diagonalization                   ...    0.003 sec
Threshold for overlap eigenvalues          ... 1.000e-07
Number of eigenvalues below threshold      ... 0
Time for construction of square roots      ...    0.016 sec
Total time needed                          ...    0.028 sec

-------------------
DFT GRID GENERATION
-------------------

General Integration Accuracy     IntAcc      ... 4.388
Radial Grid Type                 RadialGrid  ... OptM3 with GC (2021)
Angular Grid (max. ang.)         AngularGrid ... 4 (Lebedev-302)
Angular grid pruning method      GridPruning ... 4 (adaptive)
Weight generation scheme         WeightScheme... mBecke (2022)
Basis function cutoff            BFCut       ... 1.0000e-10
Integration weight cutoff        WCut        ... 1.0000e-14
Partially contracted basis set               ... off
Rotationally invariant grid construction     ... off
Angular grids for H and He will be reduced by one unit

Total number of grid points                  ...    64697
Total number of batches                      ...     1019
Average number of points per batch           ...       63
Average number of grid points per atom       ...     4621
Initializing property integral containers    ... done (  0.0 sec)

SHARK setup successfully completed in   0.9 seconds

Maximum memory used throughout the entire STARTUP-calculation: 28.9 MB
-------------------------------------------------------------------------------
                                 ORCA GUESS
                   Start orbitals & Density for SCF / CASSCF
-------------------------------------------------------------------------------

------------
SCF SETTINGS
------------
Hamiltonian:
 Density Functional     Method          .... DFT(GTOs)
  Functional kind                       .... Exchange
  Functional name                       .... Re-regularized SCAN exchange by Furness et al
  Functional family                     .... MGGA
  Functional refs                              
    [ 0] J. W. Furness, A. D. Kaplan, J. Ning, J. P. Perdew, and J. Sun.,  J. Phys. Chem. Lett. 11, 8208-8215 (2020), doi: 10.1021/acs.jpclett.0c02405
    [ 1] J. W. Furness, A. D. Kaplan, J. Ning, J. P. Perdew, and J. Sun.,  J. Phys. Chem. Lett. 11, 9248-9248 (2020), doi: 10.1021/acs.jpclett.0c03077
  Functional external parameters        .... 6
    Parameter  0 _c1        =  6.670000e-01 : c1 parameter        
    Parameter  1 _c2        =  8.000000e-01 : c2 parameter        
    Parameter  2 _d         =  1.240000e+00 : d parameter         
    Parameter  3 _k1        =  6.500000e-02 : k1 parameter        
    Parameter  4 _eta       =  1.000000e-03 : eta parameter       
    Parameter  5 _dp2       =  3.610000e-01 : dp2 parameter       
  Functional kind                       .... Correlation
  Functional name                       .... Re-regularized SCAN correlation by Furness et al
  Functional family                     .... MGGA
  Functional refs                              
    [ 0] J. W. Furness, A. D. Kaplan, J. Ning, J. P. Perdew, and J. Sun.,  J. Phys. Chem. Lett. 11, 8208-8215 (2020), doi: 10.1021/acs.jpclett.0c02405
    [ 1] J. W. Furness, A. D. Kaplan, J. Ning, J. P. Perdew, and J. Sun.,  J. Phys. Chem. Lett. 11, 9248-9248 (2020), doi: 10.1021/acs.jpclett.0c03077
  Functional external parameters        .... 1
    Parameter  0 _eta       =  1.000000e-03 : Regularization parameter
 Gradients option       PostSCFGGA      .... off
 RI-approximation to the Coulomb term is turned on
   Number of AuxJ basis functions       .... 420


General Settings:
 Integral files         IntName         .... sp_solv
 Hartree-Fock type      HFTyp           .... RHF
 Total Charge           Charge          ....    0
 Multiplicity           Mult            ....    1
 Number of Electrons    NEL             ....   50
 Basis Dimension        Dim             ....  173
 Nuclear Repulsion      ENuc            ....    273.8424664915 Eh

Convergence Acceleration:
 AO-DIIS                CNVDIIS         .... on
   Start iteration      DIISMaxIt       ....    12
   Startup error        DIISStart       ....  0.200000
   # of expansion vecs  DIISMaxEq       ....     5
   Bias factor          DIISBfac        ....   1.050
   Max. coefficient     DIISMaxC        ....  10.000
 MO-DIIS                CNVKDIIS        .... off
 Trust-Rad. Augm. Hess. CNVTRAH         .... auto
   Auto Start mean grad. ratio tolernc. ....  1.125000
   Auto Start start iteration           ....     1
   Auto Start num. interpolation iter.  ....    10
   Max. Number of Micro iterations      ....    24
   Max. Number of Macro iterations      .... Maxiter - #DIIS iter
   Number of Davidson start vectors     ....     2
   Converg. threshold    (grad. norm)   ....   3.330e-04
   Grad. Scal. Fac. for Micro threshold ....   0.100
   Minimum threshold for Micro iter.    ....   1.000e-02
   NR start threshold (gradient norm)   ....   1.000e-04
   Initial trust radius                 ....   0.400
   Minimum AH scaling param. (alpha)    ....   1.000
   Maximum AH scaling param. (alpha)    .... 1000.000
   Quad. conv. algorithm                .... NR
   White noise on init. David. guess    .... on
   Maximum white noise                  ....   0.010
   Pseudo random numbers                .... off
   Inactive MOs                         .... canonical
   Orbital update algorithm             .... Taylor
   Preconditioner                       .... Diag
   Full preconditioner red. dimension   ....   250
   COSX micro iterations for RIJONX calc.... off
 SOSCF                  CNVSOSCF        .... on
   Start iteration      SOSCFMaxIt      ....   150
   Startup grad/error   SOSCFStart      ....  0.003300
   Hessian update       SOSCFHessUp     .... L-BFGS
 Level Shifting         CNVShift        .... on
   Level shift para.    LevelShift      ....    0.2500
   Turn off err/grad.   ShiftErr        ....    0.0010
 Zerner damping         CNVZerner       .... off
 Static damping         CNVDamp         .... on
   Fraction old density DampFac         ....    0.7000
   Max. Damping (<1)    DampMax         ....    0.9800
   Min. Damping (>=0)   DampMin         ....    0.0000
   Turn off err/grad.   DampErr         ....    0.1000

SCF Procedure:
 Maximum # iterations   MaxIter         ....   125
 SCF integral mode      SCFMode         .... Direct
   Integral package                     .... SHARK and LIBINT hybrid scheme
 Reset frequency        DirectResetFreq ....    20
 Integral Threshold     Thresh          ....  1.000e-10 Eh
 Primitive CutOff       TCut            ....  1.000e-11 Eh

Convergence Tolerance:
 Convergence Check Mode ConvCheckMode   .... Total+1el-Energy
 Convergence forced     ConvForced      .... 0
 Energy Change          TolE            ....  1.000e-06 Eh
 1-El. energy change                    ....  1.000e-03 Eh
 Orbital Gradient       TolG            ....  3.330e-04
 Orbital Rotation angle TolX            ....  3.330e-04
 DIIS Error             TolErr          ....  1.000e-06

---------------------
INITIAL GUESS: MOREAD
---------------------
Guess MOs are being read from file: sp_solv.ges
Input Geometry matches current geometry (good)
Atom 0: N(Shells)= 9 and 6 - projection required
Input basis set needs projection
NBasis(read)= 112
NBasis(calc)= 173
Basis set overlap was calculated
Using GuessMode=FMatrix for the initial guess
C*T matrix was formed
Effective Fockian was calculated
Effective Fockian was diagonalized
Initial density was built
                      ------------------
                      INITIAL GUESS DONE (   0.0 sec)
                      ------------------
             **** ENERGY FILE WAS UPDATED (sp_solv.en.tmp) ****
Finished Guess after   0.3 sec
Maximum memory used throughout the entire GUESS-calculation: 11.9 MB

-------------------------------------------------------------------------------------------
                                      ORCA LEAN-SCF
                              memory conserving SCF solver
-------------------------------------------------------------------------------------------

--------------------
CPCM SOLVATION MODEL
--------------------
CPCM parameters:
  Epsilon                                         ...      78.3550
  Refrac                                          ...       1.3328
  Rsolv                                           ...       1.3000
  Surface type                                    ... GAUSSIAN VDW
  Discretization scheme                           ... Constant charge density
    Threshold for H atoms                         ...       5.0000 (charges/Ang^2)
    Threshold for non-H atoms                     ...       5.0000 (charges/Ang^2)
  Epsilon function type                           ...         CPCM
Solvent:                                          ... WATER
SMD-CDS solvent descriptors:
  Soln                                            ...       1.3328
  Soln25                                          ...       1.3323
  Sola                                            ...       0.0000
  Solb                                            ...       0.0000
  Solg                                            ...       0.0000
  Solc                                            ...       0.0000
  Solh                                            ...       0.0000
Radii:
  Scheme                                          ... Element-dependent radii
  Radius for C  used is    3.4960 Bohr (=   1.8500 Ang.)
  Radius for N  used is    3.5716 Bohr (=   1.8900 Ang.)
  Radius for H  used is    2.2677 Bohr (=   1.2000 Ang.)
Calculating surface                               ...        done! (  0.0s)
Cavity surface points                             ...         1123
Cavity Volume                                     ...     732.3920
Cavity Surface-area                               ...     461.3555
Calculating surface distance matrix               ...        done! (  0.0s)
Performing Cholesky decomposition & store         ...        done! (  0.1s)
Overall time for CPCM initialization              ...                 0.1s

----------------------------------------D-I-I-S--------------------------------------------
Iteration    Energy (Eh)           Delta-E    RMSDP     MaxDP     DIISErr   Damp  Time(sec)
-------------------------------------------------------------------------------------------
               ***  Starting incremental Fock matrix formation  ***
    1    -287.3929488520288373     0.00e+00  5.24e-03  1.55e-01  4.39e-01  0.700   2.2
    2    -287.4332503537224852    -4.03e-02  4.27e-03  1.31e-01  3.09e-01  0.700   2.0
    3    -287.4617957986523038    -2.85e-02  3.17e-03  9.84e-02  2.16e-01  0.700   2.0
                               ***Turning on AO-DIIS***
    4    -287.4818623790026209    -2.01e-02  2.34e-03  7.35e-02  1.52e-01  0.700   1.9
    5    -287.4959459543073876    -1.41e-02  1.69e-03  5.31e-02  1.06e-01  0.700   1.9
    6    -287.5058370031552499    -9.89e-03  1.20e-03  3.77e-02  7.39e-02  0.700   1.9
    7    -287.5127761589508850    -6.94e-03  2.83e-03  8.89e-02  5.18e-02  0.000   1.9
                              *** Initializing SOSCF ***
---------------------------------------S-O-S-C-F--------------------------------------
Iteration    Energy (Eh)           Delta-E    RMSDP     MaxDP     MaxGrad    Time(sec)
--------------------------------------------------------------------------------------
    8    -287.5290073893922340    -1.62e-02  4.29e-05  1.14e-03  9.00e-04     2.7
               *** Restarting incremental Fock matrix formation ***
    9    -287.5290073951611589    -5.77e-09  4.57e-05  1.17e-03  3.80e-04     2.2
   10    -287.5289989266404405     8.47e-06  3.60e-05  8.17e-04  9.41e-04     1.8
   11    -287.5290096698370803    -1.07e-05  2.30e-06  4.10e-05  9.89e-06     1.8
                  *** Gradient check signals convergence ***

               *****************************************************
               *                     SUCCESS                       *
               *           SCF CONVERGED AFTER  11 CYCLES          *
               *****************************************************


SMD CDS free energy correction energy :                 1.68874     Kcal/mol
Total Energy after SMD CDS correction =              -287.526318484 Eh
             **** ENERGY FILE WAS UPDATED (sp_solv.en.tmp) ****

----------------
TOTAL SCF ENERGY
----------------

Total Energy       :       -287.52631848395646 Eh           -7823.98889 eV

Components:
Nuclear Repulsion  :        273.84246649148764 Eh            7451.63235 eV
Electronic Energy  :       -561.35960280113386 Eh          -15275.37138 eV
One Electron Energy:       -929.31456432921732 Eh          -25287.93491 eV
Two Electron Energy:        367.95496152808352 Eh           10012.56353 eV
CPCM Dielectric    :         -0.01187336019084 Eh              -0.32309 eV
SMD CDS (Gcds)     :          0.00269118588063 Eh               0.07323 eV

Virial components:
Potential Energy   :       -573.92734348725685 Eh          -15617.35699 eV
Kinetic Energy     :        286.40102500330045 Eh            7793.36810 eV
Virial Ratio       :          2.00392908328678

DFT components:
N(Alpha)           :       25.000017712515 electrons
N(Beta)            :       25.000017712515 electrons
N(Total)           :       50.000035425031 electrons
E(X)               :      -40.394562449404 Eh       
E(C)               :       -1.602032289878 Eh       
E(XC)              :      -41.996594739282 Eh       

CPCM Solvation Model Properties:
Surface-charge          :         -0.03752085726157
Corrected charge        :          0.00000000000000
Outlying charge corr.   :          0.00011755501060 Eh               0.00320 eV
Free-energy (cav+disp)  :          0.00269118588063 Eh               0.07323 eV

---------------
SCF CONVERGENCE
---------------

  Last Energy change         ...    1.0743e-05  Tolerance :   1.0000e-06
  Last MAX-Density change    ...    4.1017e-05  Tolerance :   1.0000e-05
  Last RMS-Density change    ...    2.3043e-06  Tolerance :   1.0000e-06
  Last DIIS Error            ...    8.9961e-04  Tolerance :   1.0000e-06
  Last Orbital Gradient      ...    9.8930e-06  Tolerance :   3.3300e-04
  Last Orbital Rotation      ...    4.2475e-05  Tolerance :   3.3300e-04


----------------
ORBITAL ENERGIES
----------------

  NO   OCC          E(Eh)            E(eV) 
   0   2.0000     -14.156715      -385.2238 
   1   2.0000     -10.060780      -273.7677 
   2   2.0000     -10.059679      -273.7378 
   3   2.0000     -10.048855      -273.4433 
   4   2.0000     -10.044051      -273.3125 
   5   2.0000     -10.038476      -273.1608 
   6   2.0000     -10.021552      -272.7003 
   7   2.0000      -0.915170       -24.9030 
   8   2.0000      -0.781967       -21.2784 
   9   2.0000      -0.740922       -20.1615 
  10   2.0000      -0.663732       -18.0611 
  11   2.0000      -0.595612       -16.2074 
  12   2.0000      -0.572766       -15.5858 
  13   2.0000      -0.485272       -13.2049 
  14   2.0000      -0.457274       -12.4431 
  15   2.0000      -0.418666       -11.3925 
  16   2.0000      -0.397745       -10.8232 
  17   2.0000      -0.379641       -10.3305 
  18   2.0000      -0.366590        -9.9754 
  19   2.0000      -0.360353        -9.8057 
  20   2.0000      -0.352857        -9.6017 
  21   2.0000      -0.320940        -8.7332 
  22   2.0000      -0.267134        -7.2691 
  23   2.0000      -0.236661        -6.4399 
  24   2.0000      -0.228368        -6.2142 
  25   0.0000      -0.053783        -1.4635 
  26   0.0000      -0.034373        -0.9353 
  27   0.0000       0.088992         2.4216 
  28   0.0000       0.105285         2.8649 
  29   0.0000       0.117900         3.2082 
  30   0.0000       0.119643         3.2556 
  31   0.0000       0.137376         3.7382 
  32   0.0000       0.144403         3.9294 
  33   0.0000       0.157888         4.2963 
  34   0.0000       0.167405         4.5553 
  35   0.0000       0.182265         4.9597 
*Only the first 10 virtual orbitals were printed.

                    ********************************
                    * MULLIKEN POPULATION ANALYSIS *
                    ********************************

-----------------------
MULLIKEN ATOMIC CHARGES
-----------------------
   0 C :   -0.560649
   1 C :    0.218330
   2 C :   -0.190174
   3 C :   -0.136628
   4 C :   -0.125974
   5 N :   -0.231840
   6 C :   -0.193966
   7 H :    0.172173
   8 H :    0.179347
   9 H :    0.178980
  10 H :    0.185375
  11 H :    0.184327
  12 H :    0.159639
  13 H :    0.161059
Sum of atomic charges:    0.0000000

--------------------------------
MULLIKEN REDUCED ORBITAL CHARGES
--------------------------------
  0 C s       :     3.386586  s :     3.386586
      pz      :     1.103924  p :     3.147299
      px      :     0.919376
      py      :     1.123999
      dz2     :     0.004924  d :     0.026763
      dxz     :     0.005458
      dyz     :     0.003971
      dx2y2   :     0.007637
      dxy     :     0.004773

  1 C s       :     3.066350  s :     3.066350
      pz      :     0.963541  p :     2.667970
      px      :     0.808072
      py      :     0.896357
      dz2     :     0.003541  d :     0.047351
      dxz     :     0.007201
      dyz     :     0.005462
      dx2y2   :     0.014338
      dxy     :     0.016809

  2 C s       :     3.249376  s :     3.249376
      pz      :     0.940624  p :     2.903303
      px      :     0.948863
      py      :     1.013816
      dz2     :     0.003173  d :     0.037495
      dxz     :     0.005468
      dyz     :     0.003402
      dx2y2   :     0.012071
      dxy     :     0.013381

  3 C s       :     3.180908  s :     3.180908
      pz      :     0.988855  p :     2.919107
      px      :     0.925216
      py      :     1.005035
      dz2     :     0.003252  d :     0.036613
      dxz     :     0.005208
      dyz     :     0.003321
      dx2y2   :     0.011884
      dxy     :     0.012948

  4 C s       :     3.254153  s :     3.254153
      pz      :     0.929180  p :     2.817044
      px      :     1.010312
      py      :     0.877551
      dz2     :     0.003802  d :     0.054777
      dxz     :     0.002852
      dyz     :     0.009099
      dx2y2   :     0.022233
      dxy     :     0.016791

  5 N s       :     3.434120  s :     3.434120
      pz      :     1.181770  p :     3.725626
      px      :     1.118153
      py      :     1.425703
      dz2     :     0.005159  d :     0.072094
      dxz     :     0.008856
      dyz     :     0.014273
      dx2y2   :     0.023844
      dxy     :     0.019961

  6 C s       :     3.278131  s :     3.278131
      pz      :     0.933042  p :     2.861296
      px      :     0.935885
      py      :     0.992369
      dz2     :     0.003814  d :     0.054540
      dxz     :     0.008539
      dyz     :     0.003161
      dx2y2   :     0.017073
      dxy     :     0.021953

  7 H s       :     0.809551  s :     0.809551
      pz      :     0.003636  p :     0.018276
      px      :     0.004261
      py      :     0.010378

  8 H s       :     0.802203  s :     0.802203
      pz      :     0.008627  p :     0.018450
      px      :     0.004563
      py      :     0.005261

  9 H s       :     0.802571  s :     0.802571
      pz      :     0.008527  p :     0.018449
      px      :     0.004567
      py      :     0.005355

 10 H s       :     0.795195  s :     0.795195
      pz      :     0.003624  p :     0.019430
      px      :     0.005506
      py      :     0.010300

 11 H s       :     0.796057  s :     0.796057
      pz      :     0.003883  p :     0.019616
      px      :     0.005631
      py      :     0.010103

 12 H s       :     0.821134  s :     0.821134
      pz      :     0.003699  p :     0.019227
      px      :     0.012967
      py      :     0.002562

 13 H s       :     0.819728  s :     0.819728
      pz      :     0.003686  p :     0.019213
      px      :     0.004627
      py      :     0.010900


------------------------
MULLIKEN OVERLAP CHARGES
------------------------
B(  0-C ,  1-C ) :   0.3647 B(  0-C ,  2-C ) :  -0.0952 B(  0-C ,  7-H ) :   0.8517 
B(  0-C ,  8-H ) :   0.8362 B(  0-C ,  9-H ) :   0.8367 B(  1-C ,  2-C ) :   0.8234 
B(  1-C ,  3-C ) :  -0.0510 B(  1-C ,  4-C ) :  -0.1329 B(  1-C ,  5-N ) :  -0.1888 
B(  1-C ,  6-C ) :   0.7453 B(  1-C ,  7-H ) :  -0.1277 B(  1-C ,  8-H ) :  -0.0788 
B(  1-C ,  9-H ) :  -0.0800 B(  1-C , 10-H ) :  -0.0907 B(  1-C , 13-H ) :  -0.1817 
B(  2-C ,  3-C ) :   0.9220 B(  2-C ,  4-C ) :  -0.1149 B(  2-C , 10-H ) :   0.8329 
B(  2-C , 11-H ) :  -0.0740 B(  3-C ,  4-C ) :   0.8353 B(  3-C ,  5-N ) :  -0.1818 
B(  3-C ,  6-C ) :  -0.1465 B(  3-C , 10-H ) :  -0.0569 B(  3-C , 11-H ) :   0.8017 
B(  3-C , 12-H ) :  -0.1383 B(  4-C ,  5-N ) :   0.9784 B(  4-C ,  6-C ) :  -0.2220 
B(  4-C , 12-H ) :   0.8879 B(  5-N ,  6-C ) :   1.0185 B(  5-N , 12-H ) :  -0.0984 
B(  5-N , 13-H ) :  -0.0874 B(  6-C , 13-H ) :   0.9137 


                     *******************************
                     * LOEWDIN POPULATION ANALYSIS *
                     *******************************

----------------------
LOEWDIN ATOMIC CHARGES
----------------------
   0 C :   -0.390236
   1 C :   -0.079569
   2 C :   -0.117321
   3 C :   -0.144113
   4 C :    0.060798
   5 N :   -0.665645
   6 C :    0.068067
   7 H :    0.167734
   8 H :    0.173380
   9 H :    0.173284
  10 H :    0.184587
  11 H :    0.182487
  12 H :    0.192282
  13 H :    0.194266

-------------------------------
LOEWDIN REDUCED ORBITAL CHARGES
-------------------------------
  0 C s       :     2.953603  s :     2.953603
      pz      :     1.160664  p :     3.374080
      px      :     1.052248
      py      :     1.161168
      dz2     :     0.011941  d :     0.062553
      dxz     :     0.011998
      dyz     :     0.009859
      dx2y2   :     0.017872
      dxy     :     0.010884

  1 C s       :     2.871577  s :     2.871577
      pz      :     0.940818  p :     3.110824
      px      :     1.061673
      py      :     1.108333
      dz2     :     0.006524  d :     0.097168
      dxz     :     0.011264
      dyz     :     0.009986
      dx2y2   :     0.033080
      dxy     :     0.036313

  2 C s       :     2.904736  s :     2.904736
      pz      :     0.936221  p :     3.131692
      px      :     1.096501
      py      :     1.098970
      dz2     :     0.005416  d :     0.080892
      dxz     :     0.009754
      dyz     :     0.005548
      dx2y2   :     0.028595
      dxy     :     0.031580

  3 C s       :     2.907573  s :     2.907573
      pz      :     0.968910  p :     3.156994
      px      :     1.101731
      py      :     1.086354
      dz2     :     0.005587  d :     0.079546
      dxz     :     0.009363
      dyz     :     0.005265
      dx2y2   :     0.028144
      dxy     :     0.031187

  4 C s       :     2.834895  s :     2.834895
      pz      :     0.883041  p :     2.981010
      px      :     1.054728
      py      :     1.043241
      dz2     :     0.007937  d :     0.123297
      dxz     :     0.003967
      dyz     :     0.017864
      dx2y2   :     0.055168
      dxy     :     0.038361

  5 N s       :     3.232312  s :     3.232312
      pz      :     1.148427  p :     3.943363
      px      :     1.307330
      py      :     1.487606
      dz2     :     0.050965  d :     0.489971
      dxz     :     0.088657
      dyz     :     0.047462
      dx2y2   :     0.145079
      dxy     :     0.157808

  6 C s       :     2.830377  s :     2.830377
      pz      :     0.889618  p :     2.978244
      px      :     1.033373
      py      :     1.055252
      dz2     :     0.008066  d :     0.123312
      dxz     :     0.016030
      dyz     :     0.005527
      dx2y2   :     0.039343
      dxy     :     0.054346

  7 H s       :     0.788332  s :     0.788332
      pz      :     0.008176  p :     0.043934
      px      :     0.009478
      py      :     0.026279

  8 H s       :     0.782419  s :     0.782419
      pz      :     0.021547  p :     0.044201
      px      :     0.010188
      py      :     0.012466

  9 H s       :     0.782518  s :     0.782518
      pz      :     0.021275  p :     0.044198
      px      :     0.010197
      py      :     0.012727

 10 H s       :     0.769971  s :     0.769971
      pz      :     0.007971  p :     0.045442
      px      :     0.012806
      py      :     0.024665

 11 H s       :     0.771092  s :     0.771092
      pz      :     0.008750  p :     0.046421
      px      :     0.013362
      py      :     0.024309

 12 H s       :     0.766050  s :     0.766050
      pz      :     0.007944  p :     0.041668
      px      :     0.028022
      py      :     0.005703

 13 H s       :     0.764192  s :     0.764192
      pz      :     0.007927  p :     0.041542
      px      :     0.008572
      py      :     0.025043


---------------------------------
LOEWDIN BOND ORDERS (THRESH 0.050000)
---------------------------------
B(  0-C ,  1-C ) :   1.1176 B(  0-C ,  2-C ) :   0.0866 B(  0-C ,  6-C ) :   0.0917 
B(  0-C ,  7-H ) :   0.9150 B(  0-C ,  8-H ) :   0.9073 B(  0-C ,  9-H ) :   0.9075 
B(  1-C ,  2-C ) :   1.4329 B(  1-C ,  3-C ) :   0.0918 B(  1-C ,  4-C ) :   0.1252 
B(  1-C ,  5-N ) :   0.2142 B(  1-C ,  6-C ) :   1.3393 B(  1-C , 10-H ) :   0.0518 
B(  1-C , 13-H ) :   0.0513 B(  2-C ,  3-C ) :   1.5154 B(  2-C ,  4-C ) :   0.0907 
B(  2-C ,  5-N ) :   0.1412 B(  2-C ,  6-C ) :   0.0911 B(  2-C , 10-H ) :   0.8631 
B(  2-C , 11-H ) :   0.0543 B(  3-C ,  4-C ) :   1.3908 B(  3-C ,  5-N ) :   0.2180 
B(  3-C ,  6-C ) :   0.1258 B(  3-C , 10-H ) :   0.0530 B(  3-C , 11-H ) :   0.8651 
B(  3-C , 12-H ) :   0.0521 B(  4-C ,  5-N ) :   1.8297 B(  4-C ,  6-C ) :   0.1104 
B(  4-C , 11-H ) :   0.0576 B(  4-C , 12-H ) :   0.8034 B(  5-N ,  6-C ) :   1.8292 
B(  5-N , 12-H ) :   0.1172 B(  5-N , 13-H ) :   0.1163 B(  6-C , 13-H ) :   0.7969 


------------------------------------------
LOEWDIN REDUCED ORBITAL POPULATIONS PER MO
-------------------------------------------
THRESHOLD FOR PRINTING IS 0.1%%
                      0         1         2         3         4         5   
                 -14.15672 -10.06078 -10.05968 -10.04886 -10.04405 -10.03848
                   2.00000   2.00000   2.00000   2.00000   2.00000   2.00000
                  --------  --------  --------  --------  --------  --------
 1 C  s               0.0       0.0       0.1      99.3       0.2       0.0
 1 C  py              0.0       0.0       0.1       0.0       0.1       0.0
 2 C  s               0.0       0.0       0.0       0.2      99.2       0.2
 2 C  px              0.0       0.0       0.0       0.0       0.0       0.1
 2 C  py              0.0       0.0       0.0       0.1       0.0       0.0
 3 C  s               0.0       0.0       0.0       0.0       0.2      99.4
 3 C  px              0.0       0.0       0.0       0.0       0.1       0.0
 4 C  s               0.0      99.2       0.0       0.0       0.0       0.0
 4 C  py              0.1       0.0       0.0       0.0       0.0       0.1
 5 N  s              99.8       0.0       0.0       0.0       0.0       0.0
 5 N  px              0.0       0.0       0.2       0.0       0.0       0.0
 5 N  py              0.0       0.1       0.0       0.0       0.0       0.0
 5 N  dx2y2           0.0       0.1       0.2       0.0       0.0       0.0
 5 N  dxy             0.0       0.2       0.0       0.0       0.0       0.0
 6 C  s               0.0       0.0      99.2       0.1       0.0       0.0

                      6         7         8         9        10        11   
                 -10.02155  -0.91517  -0.78197  -0.74092  -0.66373  -0.59561
                   2.00000   2.00000   2.00000   2.00000   2.00000   2.00000
                  --------  --------  --------  --------  --------  --------
 0 C  s              99.7       0.3       8.4       6.0      25.1       0.1
 0 C  px              0.0       0.4       2.4       0.7       0.4       0.0
 0 C  py              0.0       0.0       0.0       0.1       0.0       1.4
 1 C  s               0.0       3.8      21.1       5.7       0.1       0.1
 1 C  px              0.1       1.8       0.1       1.5      14.4       0.0
 1 C  py              0.0       0.4       1.9       4.1       0.0      16.7
 1 C  dz2             0.0       0.1       0.2       0.0       0.0       0.0
 1 C  dx2y2           0.0       0.0       0.0       0.0       0.2       0.0
 1 C  dxy             0.0       0.0       0.1       0.1       0.0       0.2
 2 C  s               0.0       2.4      20.0       3.7       3.5       9.3
 2 C  px              0.0       0.4       0.1       7.2       0.4       5.9
 2 C  py              0.0       1.1       1.9       1.1       0.1       0.3
 2 C  dz2             0.0       0.0       0.2       0.0       0.0       0.0
 2 C  dx2y2           0.0       0.0       0.0       0.2       0.0       0.0
 3 C  s               0.0       3.6       6.2      20.4       0.0       7.2
 3 C  px              0.0       0.0       4.0       0.1       4.0       8.2
 3 C  py              0.0       2.4       0.1       0.6       1.1       0.2
 3 C  dz2             0.0       0.0       0.1       0.1       0.0       0.0
 3 C  dx2y2           0.0       0.0       0.1       0.0       0.1       0.1
 4 C  s               0.0      13.1       0.5      10.0       7.7       1.0
 4 C  px              0.0       3.8       0.3       0.1       1.0       0.1
 4 C  py              0.0       2.9       5.1       4.5       0.5      14.0
 4 C  dz2             0.0       0.2       0.0       0.1       0.0       0.0
 4 C  dxy             0.0       0.3       0.2       0.2       0.0       0.3
 5 N  s               0.0      35.0       7.7       0.8       0.2       3.4
 5 N  px              0.0       1.1       0.4       6.2       9.2       4.1
 5 N  py              0.0       3.2       0.3       2.6       2.3       0.7
 5 N  dz2             0.0       0.7       0.1       0.0       0.0       0.5
 5 N  dx2y2           0.0       0.0       0.0       2.1       0.6       0.2
 5 N  dxy             0.0       0.1       0.4       0.3       0.6       0.2
 6 C  s               0.0      13.2       0.6       9.8       5.2       7.9
 6 C  px              0.0       5.9       6.4       0.6       0.2       3.6
 6 C  py              0.0       0.7       3.4       0.1       0.1       0.6
 6 C  dz2             0.0       0.2       0.0       0.1       0.0       0.0
 6 C  dx2y2           0.0       0.3       0.3       0.0       0.0       0.0
 6 C  dxy             0.0       0.0       0.1       0.1       0.0       0.0
 7 H  s               0.0       0.0       1.0       1.0       5.5       0.4
 7 H  py              0.0       0.0       0.1       0.1       0.4       0.0
 8 H  s               0.0       0.0       1.1       0.8       5.7       0.0
 8 H  pz              0.0       0.0       0.1       0.0       0.3       0.0
 8 H  py              0.0       0.0       0.0       0.0       0.1       0.0
 9 H  s               0.0       0.0       1.1       0.8       5.7       0.0
 9 H  pz              0.0       0.0       0.1       0.0       0.3       0.0
 9 H  py              0.0       0.0       0.0       0.0       0.1       0.0
10 H  s               0.0       0.2       2.4       0.5       0.5       4.3
10 H  py              0.0       0.0       0.2       0.0       0.0       0.3
11 H  s               0.0       0.2       0.7       3.0       0.0       3.3
11 H  py              0.0       0.0       0.0       0.2       0.0       0.3
12 H  s               0.0       0.9       0.1       1.6       2.4       0.3
12 H  px              0.0       0.1       0.0       0.1       0.2       0.0
13 H  s               0.0       0.9       0.1       1.8       1.1       4.1
13 H  py              0.0       0.1       0.0       0.1       0.1       0.3

                     12        13        14        15        16        17   
                  -0.57277  -0.48527  -0.45727  -0.41867  -0.39775  -0.37964
                   2.00000   2.00000   2.00000   2.00000   2.00000   2.00000
                  --------  --------  --------  --------  --------  --------
 0 C  s               6.2       0.7       0.0       0.2       0.0       0.2
 0 C  pz              0.0       0.0       0.0       0.0      29.4       0.0
 0 C  px              4.3       2.6       0.2       9.6       0.0      17.1
 0 C  py              0.1       0.0       6.8       0.4       0.0       0.0
 0 C  dyz             0.0       0.0       0.0       0.0       0.2       0.0
 0 C  dx2y2           0.1       0.0       0.0       0.2       0.0       0.2
 1 C  s               8.0       0.2       0.2       3.6       0.0       0.0
 1 C  pz              0.0       0.0       0.0       0.0      17.8       0.0
 1 C  px              2.6       2.0       0.1       3.1       0.0      17.0
 1 C  py              0.8       0.0      14.3       0.2       0.0       0.3
 1 C  dx2y2           0.1       0.2       0.0       0.1       0.0       0.0
 2 C  s               1.3       2.1       0.1       2.3       0.0       0.1
 2 C  pz              0.0       0.0       0.0       0.0       7.0       0.0
 2 C  px              3.4       4.8      11.5       0.8       0.0       0.2
 2 C  py              8.0       9.7       4.1       0.0       0.0       0.7
 2 C  dx2y2           0.2       0.0       0.1       0.0       0.0       0.2
 2 C  dxy             0.0       0.0       0.0       0.4       0.0       0.0
 3 C  s               4.0       0.5       0.1       1.8       0.0       0.5
 3 C  pz              0.0       0.0       0.0       0.0       4.0       0.0
 3 C  px              1.7       1.4      11.1       8.1       0.0       0.2
 3 C  py              5.8       5.7       4.9      20.0       0.0       6.5
 3 C  dx2y2           0.1       0.0       0.1       0.2       0.0       0.2
 3 C  dxy             0.0       0.0       0.0       0.3       0.0       0.1
 4 C  s               4.7       2.0       0.5       1.7       0.0       0.3
 4 C  pz              0.0       0.0       0.0       0.0       5.4       0.0
 4 C  px              1.6      16.0       1.1       0.4       0.0      18.5
 4 C  py              0.4       0.8      13.4       1.1       0.0       0.5
 4 C  dx2y2           0.0       0.0       0.0       0.3       0.0       0.3
 4 C  dxy             0.0       0.0       0.1       0.2       0.0       0.0
 5 N  s               2.3       0.6       0.0       1.9       0.0       0.1
 5 N  pz              0.0       0.0       0.0       0.0       9.3       0.0
 5 N  px              6.3       2.4      11.0       0.1       0.0       1.0
 5 N  py              4.8       3.4       3.6       0.1       0.0       0.6
 5 N  dz2             0.2       0.1       0.0       0.4       0.0       0.0
 5 N  dxz             0.0       0.0       0.0       0.0       0.3       0.0
 5 N  dyz             0.0       0.0       0.0       0.0       0.4       0.0
 5 N  dx2y2           0.1       1.3       0.4       0.0       0.0       1.4
 5 N  dxy             0.0       2.8       0.2       1.0       0.0       0.2
 6 C  s               0.0       1.9       0.0       1.0       0.0       0.4
 6 C  pz              0.0       0.0       0.0       0.0       9.7       0.0
 6 C  px              8.6       2.8      10.1       1.2       0.0       1.7
 6 C  py              7.8       8.6       1.3       7.0       0.0      10.1
 6 C  dx2y2           0.4       0.0       0.0       0.2       0.0       0.0
 6 C  dxy             0.0       0.0       0.0       0.2       0.0       0.1
 7 H  s               2.3       0.4       2.3       1.8       0.0       1.0
 7 H  pz              0.0       0.0       0.0       0.0       0.2       0.0
 7 H  py              0.2       0.0       0.1       0.1       0.0       0.1
 8 H  s               2.7       0.6       0.2       0.6       7.8       1.5
 8 H  pz              0.1       0.0       0.0       0.0       0.0       0.1
 8 H  py              0.0       0.0       0.0       0.0       0.1       0.0
 9 H  s               2.7       0.6       0.2       0.6       7.6       1.5
 9 H  pz              0.1       0.0       0.0       0.0       0.0       0.1
 9 H  py              0.0       0.0       0.0       0.0       0.1       0.0
10 H  s               1.5       7.9       0.0       0.6       0.0       0.2
10 H  px              0.1       0.1       0.1       0.0       0.0       0.0
10 H  py              0.0       0.3       0.0       0.0       0.0       0.0
11 H  s               2.5       1.5       0.1      18.1       0.0       1.5
11 H  px              0.1       0.0       0.1       0.2       0.0       0.0
11 H  py              0.1       0.0       0.0       0.4       0.0       0.0
12 H  s               2.8       8.5       0.9       1.9       0.0       9.9
12 H  px              0.2       0.4       0.0       0.1       0.0       0.2
12 H  py              0.0       0.0       0.1       0.0       0.0       0.0
13 H  s               0.3       6.5       0.2       7.0       0.0       4.3
13 H  py              0.0       0.3       0.0       0.2       0.0       0.1

                     18        19        20        21        22        23   
                  -0.36659  -0.36035  -0.35286  -0.32094  -0.26713  -0.23666
                   2.00000   2.00000   2.00000   2.00000   2.00000   2.00000
                  --------  --------  --------  --------  --------  --------
 0 C  s               0.0       0.0       0.1       0.4       0.0       0.0
 0 C  pz              0.0      24.1       0.0       0.0       1.4       3.1
 0 C  px              0.5       0.0       2.5      10.7       0.0       0.0
 0 C  py              5.2       0.0      40.2       3.7       0.0       0.0
 0 C  dz2             0.0       0.0       0.4       0.0       0.0       0.0
 0 C  dxz             0.0       0.1       0.0       0.0       0.1       0.4
 0 C  dyz             0.0       0.2       0.0       0.0       0.0       0.1
 0 C  dx2y2           0.0       0.0       0.0       0.2       0.0       0.0
 0 C  dxy             0.0       0.0       0.3       0.1       0.0       0.0
 1 C  s               0.5       0.0       0.4       0.1       0.0       0.0
 1 C  pz              0.0       0.0       0.0       0.0       4.1      25.2
 1 C  px              0.1       0.0       1.0       7.9       0.0       0.0
 1 C  py              4.3       0.0       1.7       6.1       0.0       0.0
 1 C  dxz             0.0       0.3       0.0       0.0       0.1       0.2
 1 C  dyz             0.0       0.0       0.0       0.0       0.4       0.1
 1 C  dx2y2           0.1       0.0       0.1       0.7       0.0       0.0
 1 C  dxy             0.2       0.0       0.8       0.2       0.0       0.0
 2 C  s               0.3       0.0       0.4       0.1       0.0       0.0
 2 C  pz              0.0       1.8       0.0       0.0      35.3       2.7
 2 C  px              8.8       0.0       0.3      10.6       0.0       0.0
 2 C  py             19.9       0.0       2.5       4.9       0.0       0.0
 2 C  dxz             0.0       0.1       0.0       0.0       0.1       0.3
 2 C  dyz             0.0       0.0       0.0       0.0       0.0       0.2
 2 C  dx2y2           0.3       0.0       0.0       0.2       0.0       0.0
 2 C  dxy             0.6       0.0       0.1       0.1       0.0       0.0
 3 C  s               0.8       0.0       0.0       0.1       0.0       0.0
 3 C  pz              0.0       7.1       0.0       0.0      25.0      12.3
 3 C  px              4.7       0.0       0.3       9.8       0.0       0.0
 3 C  py              1.5       0.0       0.2       1.4       0.0       0.0
 3 C  dxz             0.0       0.0       0.0       0.0       0.3       0.2
 3 C  dyz             0.0       0.1       0.0       0.0       0.0       0.1
 3 C  dx2y2           0.2       0.0       0.1       0.3       0.0       0.0
 3 C  dxy             0.4       0.0       0.0       0.4       0.0       0.0
 4 C  s               0.6       0.0       0.1       0.1       0.0       0.0
 4 C  pz              0.0      15.8       0.0       0.0       0.1      22.9
 4 C  px              1.8       0.0       2.3       5.3       0.0       0.0
 4 C  py              2.7       0.0       0.5       0.6       0.0       0.0
 4 C  dxz             0.0       0.1       0.0       0.0       0.0       0.0
 4 C  dyz             0.0       0.0       0.0       0.0       0.8       0.1
 4 C  dx2y2           0.0       0.0       0.0       0.7       0.0       0.0
 5 N  s               1.0       0.0       0.8       0.0       0.0       0.0
 5 N  pz              0.0      24.3       0.0       0.0      22.9       0.8
 5 N  px              4.8       0.0       0.9       4.7       0.0       0.0
 5 N  py              6.5       0.0       5.3       0.9       0.0       0.0
 5 N  dxz             0.0       0.1       0.0       0.0       0.1       4.0
 5 N  dyz             0.0       0.8       0.0       0.0       0.2       1.0
 5 N  dx2y2           0.1       0.0       0.2       0.1       0.0       0.0
 5 N  dxy             0.3       0.0       0.0       0.0       0.0       0.0
 6 C  s               0.4       0.0       1.4       0.2       0.0       0.0
 6 C  pz              0.0       8.2       0.0       0.0       6.7      19.9
 6 C  px              0.5       0.0       3.7       2.6       0.0       0.0
 6 C  py              7.1       0.0       0.2       3.5       0.0       0.0
 6 C  dxz             0.0       0.2       0.0       0.0       0.3       0.2
 6 C  dyz             0.0       0.0       0.0       0.0       0.0       0.2
 6 C  dx2y2           0.1       0.0       0.1       0.4       0.0       0.0
 6 C  dxy             0.0       0.0       0.1       0.3       0.0       0.0
 7 H  s               2.7       0.0      15.6       5.2       0.0       0.0
 7 H  pz              0.0       0.2       0.0       0.0       0.0       0.0
 7 H  px              0.0       0.0       0.2       0.0       0.0       0.0
 7 H  py              0.0       0.0       0.2       0.1       0.0       0.0
 8 H  s               0.4       7.9       6.1       0.0       0.7       2.7
 8 H  pz              0.0       0.0       0.3       0.0       0.0       0.0
 8 H  px              0.0       0.1       0.0       0.1       0.0       0.0
 8 H  py              0.0       0.1       0.1       0.0       0.0       0.0
 9 H  s               0.4       7.9       6.4       0.0       0.7       2.7
 9 H  pz              0.0       0.0       0.3       0.0       0.0       0.0
 9 H  px              0.0       0.1       0.0       0.1       0.0       0.0
 9 H  py              0.0       0.1       0.1       0.0       0.0       0.0
10 H  s              18.2       0.0       1.0       0.0       0.0       0.0
10 H  pz              0.0       0.0       0.0       0.0       0.3       0.0
10 H  px              0.1       0.0       0.0       0.1       0.0       0.0
10 H  py              0.2       0.0       0.0       0.0       0.0       0.0
11 H  s               0.4       0.0       0.2       6.1       0.0       0.0
11 H  pz              0.0       0.0       0.0       0.0       0.2       0.1
11 H  py              0.0       0.0       0.0       0.1       0.0       0.0
12 H  s               0.4       0.0       1.0       5.3       0.0       0.0
12 H  pz              0.0       0.1       0.0       0.0       0.0       0.3
13 H  s               2.8       0.0       1.3       5.3       0.0       0.0
13 H  pz              0.0       0.0       0.0       0.0       0.1       0.2

                     24        25        26        27        28        29   
                  -0.22837  -0.05378  -0.03437   0.08899   0.10528   0.11790
                   2.00000   0.00000   0.00000   0.00000   0.00000   0.00000
                  --------  --------  --------  --------  --------  --------
 0 C  s               0.1       0.0       0.0       7.5       0.0       0.5
 0 C  pz              0.0       0.1       0.1       0.0       3.7       0.0
 0 C  px              1.1       0.0       0.0       4.4       0.0       2.8
 0 C  py              0.2       0.0       0.0       0.0       0.0       2.4
 0 C  dz2             0.0       0.0       0.0       0.2       0.0       0.1
 0 C  dxz             0.0       0.2       0.7       0.0       0.9       0.0
 0 C  dyz             0.0       0.1       0.0       0.0       0.2       0.0
 0 C  dx2y2           0.0       0.0       0.0       0.4       0.0       0.5
 1 C  s               0.4       0.0       0.0       6.3       0.0       4.9
 1 C  pz              0.0       4.8      24.0       0.0      15.3       0.0
 1 C  px              1.2       0.0       0.0       1.8       0.0       2.8
 1 C  py              4.3       0.0       0.0       0.1       0.0       0.2
 1 C  dz2             0.0       0.0       0.0       0.2       0.0       0.8
 1 C  dxz             0.0       0.0       0.1       0.0       0.5       0.0
 1 C  dyz             0.0       1.2       0.3       0.0       0.0       0.0
 1 C  dx2y2           0.1       0.0       0.0       0.7       0.0       0.5
 2 C  s               0.0       0.0       0.0      10.9       0.0       2.7
 2 C  pz              0.0      32.3       0.0       0.0      12.8       0.0
 2 C  px              0.1       0.0       0.0       1.1       0.0       4.7
 2 C  py              0.6       0.0       0.0       2.8       0.0      11.4
 2 C  dz2             0.0       0.0       0.0       0.0       0.0       0.8
 2 C  dxz             0.0       0.1       1.1       0.0       0.2       0.0
 2 C  dyz             0.0       0.1       0.4       0.0       0.4       0.0
 2 C  dx2y2           0.1       0.0       0.0       0.1       0.0       0.1
 2 C  dxy             0.2       0.0       0.0       0.5       0.0       0.8
 3 C  s               0.4       0.0       0.0       8.3       0.0       3.0
 3 C  pz              0.0       7.3      22.3       0.0      15.6       0.0
 3 C  px              1.3       0.0       0.0       0.4       0.0       1.0
 3 C  py              3.9       0.0       0.0       1.5       0.0       3.5
 3 C  dz2             0.0       0.0       0.0       0.1       0.0       0.5
 3 C  dxz             0.0       1.0       0.1       0.0       0.1       0.0
 3 C  dyz             0.0       0.1       0.4       0.0       0.3       0.0
 3 C  dx2y2           0.0       0.0       0.0       0.3       0.0       0.0
 3 C  dxy             0.1       0.0       0.0       0.5       0.0       0.7
 4 C  s               0.3       0.0       0.0       8.8       0.0       5.4
 4 C  pz              0.0       8.7      19.5       0.0      13.6       0.0
 4 C  px              0.4       0.0       0.0       1.0       0.0       1.3
 4 C  py              5.0       0.0       0.0       2.1       0.0       0.4
 4 C  dz2             0.0       0.0       0.0       0.1       0.0       1.0
 4 C  dxz             0.0       0.1       0.2       0.0       0.6       0.0
 4 C  dyz             0.0       1.1       0.2       0.0       0.0       0.0
 4 C  dx2y2           1.2       0.0       0.0       0.6       0.0       0.1
 4 C  dxy             0.5       0.0       0.0       0.2       0.0       0.0
 5 N  s               7.7       0.0       0.0       2.8       0.0       2.8
 5 N  pz              0.0      25.6       0.1       0.0      13.9       0.0
 5 N  px             13.2       0.0       0.0       0.3       0.0       0.2
 5 N  py             39.9       0.0       0.0       0.4       0.0       0.8
 5 N  dz2             0.2       0.0       0.0       1.5       0.0       7.7
 5 N  dxz             0.0       0.6       6.7       0.0       0.1       0.0
 5 N  dyz             0.0       1.2       2.8       0.0       0.5       0.0
 5 N  dx2y2           0.5       0.0       0.0       0.8       0.0       0.2
 5 N  dxy             1.6       0.0       0.0       1.4       0.0       0.6
 6 C  s               0.3       0.0       0.0       9.4       0.0       7.7
 6 C  pz              0.0      11.2      16.5       0.0      13.0       0.0
 6 C  px              3.6       0.0       0.0       1.2       0.0       2.6
 6 C  py              1.9       0.0       0.0       4.7       0.0       2.8
 6 C  dz2             0.0       0.0       0.0       0.1       0.0       1.1
 6 C  dxz             0.0       1.2       0.1       0.0       0.2       0.0
 6 C  dyz             0.0       0.0       0.4       0.0       0.4       0.0
 6 C  dx2y2           0.0       0.0       0.0       0.3       0.0       0.0
 6 C  dxy             1.7       0.0       0.0       0.1       0.0       0.1
 7 H  s               0.1       0.0       0.0       0.7       0.0       1.6
 7 H  px              0.0       0.0       0.0       0.0       0.0       0.2
 7 H  py              0.0       0.0       0.0       0.5       0.0       0.2
 8 H  s               0.2       0.6       1.0       1.1       1.8       0.1
 8 H  pz              0.0       0.0       0.0       0.4       0.1       0.1
 8 H  px              0.0       0.0       0.0       0.1       0.2       0.1
 8 H  py              0.0       0.0       0.0       0.1       0.1       0.1
 9 H  s               0.2       0.6       1.0       1.1       1.8       0.1
 9 H  pz              0.0       0.0       0.0       0.4       0.1       0.1
 9 H  px              0.0       0.0       0.0       0.1       0.2       0.1
 9 H  py              0.0       0.0       0.0       0.1       0.1       0.1
10 H  s               1.2       0.0       0.0       2.8       0.0       6.9
10 H  pz              0.0       0.9       0.0       0.0       0.8       0.0
10 H  px              0.0       0.0       0.0       0.4       0.0       0.6
10 H  py              0.0       0.0       0.0       0.9       0.0       1.0
11 H  s               0.9       0.0       0.0       1.8       0.0       2.3
11 H  pz              0.0       0.2       0.7       0.0       0.9       0.0
11 H  px              0.0       0.0       0.0       0.1       0.0       0.2
11 H  py              0.0       0.0       0.0       0.6       0.0       0.2
12 H  s               2.4       0.0       0.0       1.3       0.0       2.2
12 H  pz              0.0       0.2       0.7       0.0       0.8       0.0
12 H  px              0.0       0.0       0.0       0.5       0.0       0.2
12 H  py              0.0       0.0       0.0       0.1       0.0       0.0
13 H  s               2.6       0.0       0.0       2.1       0.0       3.5
13 H  pz              0.0       0.3       0.6       0.0       0.8       0.0
13 H  px              0.0       0.0       0.0       0.0       0.0       0.2
13 H  py              0.0       0.0       0.0       1.0       0.0       0.2

                     30        31        32        33        34        35   
                   0.11964   0.13738   0.14440   0.15789   0.16741   0.18227
                   0.00000   0.00000   0.00000   0.00000   0.00000   0.00000
                  --------  --------  --------  --------  --------  --------
 0 C  s              28.4       6.0       1.3       0.3       1.3       0.2
 0 C  px              3.8       4.5       0.8       0.1      39.1       0.0
 0 C  py              1.7      10.5       2.0       6.9       1.0      19.1
 0 C  dz2             0.0       0.0       0.1       0.7       1.1       1.2
 0 C  dx2y2           0.0       0.1       0.0       0.5       2.3       0.5
 0 C  dxy             0.0       0.2       0.0       0.7       0.1       1.1
 1 C  s               1.3       0.2       1.8       1.2      13.7       1.6
 1 C  px              1.8       1.5       1.1       0.1       2.9       0.2
 1 C  py              0.2       1.8       0.2       1.2       0.2       1.5
 1 C  dz2             0.2       0.0       0.2       0.1       0.2       0.2
 1 C  dx2y2           0.3       0.7       0.5       0.0       0.0       0.1
 1 C  dxy             0.1       0.7       0.1       0.9       0.2       1.3
 2 C  s               0.1       3.9       4.0       4.6       2.0       0.4
 2 C  px              3.4       2.0       1.0       2.9       1.3       1.1
 2 C  py              0.2       3.8      10.4       1.9       1.3       1.0
 2 C  dz2             0.0       0.2       0.0       0.5       0.9       0.0
 2 C  dx2y2           0.3       0.2       0.6       0.7       0.0       0.1
 2 C  dxy             0.3       0.1       0.1       0.0       0.3       0.1
 3 C  s               4.1       2.9       1.5       9.5       0.1       5.6
 3 C  px              2.3       1.2       4.7       5.7       2.0       3.1
 3 C  py              3.5       2.9       2.9      10.6       3.7       5.8
 3 C  dz2             0.0       0.0       0.0       1.1       0.1       0.0
 3 C  dx2y2           0.1       0.0       0.1       0.3       1.0       0.0
 3 C  dxy             0.4       0.3       0.2       0.0       0.1       0.2
 4 C  s               4.1       0.3       7.3       0.7       0.8       3.0
 4 C  px              4.9       0.7      30.1       0.3       2.0       3.0
 4 C  py              0.9       1.8       0.2      11.6       4.2       2.3
 4 C  dz2             0.1       0.0       0.6       0.0       0.1       0.4
 4 C  dx2y2           0.3       0.0       0.1       0.0       0.5       0.0
 4 C  dxy             0.1       0.0       0.0       1.0       0.3       0.0
 5 N  s               1.8       0.9       0.8       2.7       1.0       0.7
 5 N  px              0.1       0.4       0.3       0.6       0.6       0.1
 5 N  py              0.3       0.7       0.4       0.0       0.3       3.7
 5 N  dz2             0.1       0.0       0.3       0.1       0.8       1.4
 5 N  dx2y2           0.0       0.5       0.7       3.6       0.9       0.3
 5 N  dxy             0.1       0.5       4.4       0.2       0.2       0.1
 6 C  s               0.7       4.5       0.1       2.6       0.0       1.0
 6 C  px              9.9       1.8       2.6       1.2       1.5       3.1
 6 C  py              1.6      26.1       0.4       1.4       2.2       2.9
 6 C  dz2             0.0       0.0       0.0       0.5       0.1       0.1
 6 C  dx2y2           0.4       0.9       0.5       0.1       0.1       0.2
 6 C  dxy             0.0       0.2       0.2       0.0       0.2       0.0
 7 H  s               3.9       0.2       1.6       6.1       0.3      15.1
 7 H  px              0.2       0.0       0.1       0.1       1.6       0.6
 7 H  py              2.4       0.0       0.5       0.2       0.0       2.9
 8 H  s               2.8       1.6       0.0       1.6       0.9       2.7
 8 H  pz              1.2       0.6       0.0       0.3       0.1       1.1
 8 H  px              0.1       0.5       0.0       0.1       0.7       0.3
 8 H  py              0.4       0.1       0.0       0.1       0.0       0.1
 9 H  s               2.7       1.7       0.0       1.6       0.9       2.9
 9 H  pz              1.2       0.5       0.0       0.3       0.1       1.1
 9 H  px              0.1       0.5       0.0       0.1       0.7       0.3
 9 H  py              0.5       0.2       0.0       0.1       0.0       0.1
10 H  s               0.8       0.4       1.3       1.7       0.5       0.7
10 H  px              0.0       0.4       0.0       1.4       0.1       0.0
10 H  py              0.1       0.1       1.5       0.1       0.3       0.0
11 H  s               2.4       0.9       0.0       3.5       0.5       1.5
11 H  px              0.4       0.3       0.3       1.3       0.2       0.0
11 H  py              0.8       0.4       0.2       1.0       0.6       0.8
12 H  s               0.7       0.2       7.6       0.0       0.5       1.5
12 H  px              0.5       0.1       3.9       0.0       0.1       0.4
12 H  py              0.0       0.0       0.0       1.2       0.2       0.2
13 H  s               0.5       4.9       0.0       1.1       0.3       0.1
13 H  px              0.4       0.2       0.4       0.1       0.2       0.5
13 H  py              0.1       2.7       0.0       0.5       0.2       0.4

                     36        37        38        39        40        41   
                   0.18382   0.20697   0.21568   0.21684   0.23420   0.24072
                   0.00000   0.00000   0.00000   0.00000   0.00000   0.00000
                  --------  --------  --------  --------  --------  --------
 0 C  s               0.0       0.6       0.0       0.7       0.0       0.6
 0 C  pz             29.3       0.0      17.8       0.0      36.3       0.0
 0 C  px              0.0       5.1       0.0       1.4       0.0       2.2
[...]
10 H  py              0.0       4.3       0.2      12.0       0.1       0.5
11 H  s               0.0       0.0       0.0       0.4       0.0       0.7
11 H  px              0.2       0.0       0.4       0.1       0.0       1.0
11 H  py              0.3       0.2       0.0       1.3       0.0       1.5
12 H  s               1.8       0.2       0.0       3.2       0.0       1.0
12 H  px             11.0       0.6       0.3      10.0       0.1       3.5
12 H  py              0.6       0.2       0.1       0.5       0.0       0.0
13 H  s               0.6       0.9       0.3       1.0       0.0       2.3
13 H  px              2.2       0.9       0.9       0.1       0.0       2.5
13 H  py              2.4       2.8       1.1       3.2       0.0       5.4

                    162       163       164       165       166       167   
                   3.62889   3.75249   4.04339   4.07487  21.57375  21.88641
                   0.00000   0.00000   0.00000   0.00000   0.00000   0.00000
                  --------  --------  --------  --------  --------  --------
 0 C  s               0.2       0.0       0.0       0.1       2.9      34.0
 0 C  px              0.8       0.1       0.4       0.0       0.0       0.0
 0 C  py              5.6       0.2       0.1       0.1       0.0       0.0
 0 C  dz2             2.0       0.5       0.0       0.1       0.0       0.0
 0 C  dx2y2           6.0       0.0       1.1       0.1       0.0       0.0
 0 C  dxy             3.4       0.0       0.0       0.0       0.0       0.0
 1 C  s               0.4       0.5       0.4       0.0      33.7      17.7
 1 C  px              0.6       0.1       0.5       0.2       0.0       0.0
 1 C  py              0.8       0.1       0.0       0.4       0.0       0.0
 1 C  dz2             0.0       0.6       0.0       0.0       0.0       0.0
 1 C  dx2y2           3.0       0.2       5.5       0.2       0.0       0.0
 1 C  dxy             1.0       0.0       0.1       0.8       0.0       0.0
 2 C  s               0.2       0.7       0.1       0.0      29.9       1.8
 2 C  px              0.0       0.1       0.4       0.6       0.0       0.0
 2 C  py              0.1       0.2       0.9       0.2       0.0       0.0
 2 C  dz2             0.1       0.6       0.1       0.0       0.0       0.0
 2 C  dx2y2           0.6       0.3       2.5       0.4       0.0       0.0
 2 C  dxy             0.3       1.6       7.4       0.1       0.0       0.0
 3 C  s               0.5       1.5       0.2       0.0      17.1      30.2
 3 C  px              0.1       0.2       0.3       0.6       0.0       0.0
 3 C  py              1.1       0.5       1.2       0.0       0.0       0.0
 3 C  dz2             0.3       1.6       0.1       0.0       0.0       0.0
 3 C  dx2y2           0.1       0.5       2.2       1.0       0.0       0.0
 3 C  dxy             2.4       3.0       8.6       0.0       0.0       0.0
 4 C  s               0.1       4.2       0.3       2.2       5.6      13.9
 4 C  px              1.0       0.2       2.0       1.4       0.0       0.0
 4 C  py              0.0       1.9       0.0       4.1       0.0       0.0
 4 C  dz2             0.0       4.6       0.0       0.6       0.0       0.0
 4 C  dx2y2           1.4       0.2      12.3       1.5       0.0       0.0
 4 C  dxy             0.1       1.2       0.2       5.7       0.0       0.0
 5 N  s               1.8      19.2       2.8       0.0       0.2       0.0
 5 N  px              1.2       1.4       0.1      18.4       0.0       0.0
 5 N  py              0.6       7.0       0.2       5.4       0.0       0.0
 5 N  dz2             2.4      21.3       2.4       0.0       0.0       0.0
 5 N  dx2y2           0.7       0.3       3.5      27.9       0.0       0.0
 5 N  dxy             0.4       4.4       8.7       9.4       0.0       0.0
 6 C  s               1.3       2.8       0.4       2.3      10.2       1.9
 6 C  px              0.1       1.7       0.6       6.2       0.0       0.0
 6 C  py              3.4       0.2       1.0       0.0       0.0       0.0
 6 C  dz2             1.4       2.5       0.1       0.6       0.0       0.0
 6 C  dx2y2           0.5       1.2       3.7       7.6       0.0       0.0
 6 C  dxy             7.9       0.0       5.8       0.0       0.0       0.0
 7 H  s               5.4       0.1       0.2       0.1       0.0       0.0
 7 H  px              1.2       0.0       0.0       0.0       0.0       0.0
 7 H  py             12.2       0.0       0.2       0.0       0.0       0.0
 8 H  s               0.5       0.1       0.0       0.0       0.0       0.0
 8 H  pz              0.9       0.1       0.0       0.0       0.0       0.0
 9 H  s               0.5       0.1       0.0       0.0       0.0       0.0
 9 H  pz              0.9       0.1       0.0       0.0       0.0       0.0
10 H  s               0.0       0.8       2.2       0.0       0.0       0.0
10 H  px              0.1       0.4       1.0       0.0       0.0       0.0
10 H  py              0.3       1.5       3.3       0.0       0.0       0.0
11 H  s               1.3       1.6       2.4       0.1       0.0       0.0
11 H  px              1.2       1.2       1.2       0.1       0.0       0.0
11 H  py              2.9       3.4       3.0       0.0       0.0       0.0
12 H  s               0.6       0.7       2.2       0.2       0.0       0.0
12 H  px              1.9       2.0       3.8       0.2       0.0       0.0
12 H  py              0.0       0.2       0.1       0.0       0.0       0.0
13 H  s               4.0       0.0       1.4       0.2       0.0       0.0
13 H  px              2.4       0.2       0.3       0.0       0.0       0.0
13 H  py              9.6       0.0       2.1       0.2       0.0       0.0

                    168       169       170       171       172   
                  22.04458  22.08834  22.20955  22.23036  31.91154
                   0.00000   0.00000   0.00000   0.00000   0.00000
                  --------  --------  --------  --------  --------
 0 C  s              49.8      12.8       0.0       0.0       0.0
 1 C  s              16.9       2.3      19.0      10.0       0.0
 2 C  s               4.2      15.5      47.9       0.2       0.0
 3 C  s               3.3       8.6      27.0      13.4       0.0
 4 C  s              23.7      17.9       0.8      37.5       0.0
 5 N  s               0.0       0.1       0.0       0.0      99.8
 5 N  px              0.0       0.0       0.0       0.1       0.0
 6 C  s               1.6      42.2       4.9      38.4       0.0


                      *****************************
                      * MAYER POPULATION ANALYSIS *
                      *****************************

  NA   - Mulliken gross atomic population
  ZA   - Total nuclear charge
  QA   - Mulliken gross atomic charge
  VA   - Mayer's total valence
  BVA  - Mayer's bonded valence
  FA   - Mayer's free valence

  ATOM       NA         ZA         QA         VA         BVA        FA
  0 C      6.5606     6.0000    -0.5606     3.7843     3.7843    -0.0000
  1 C      5.7817     6.0000     0.2183     3.3283     3.3283    -0.0000
  2 C      6.1902     6.0000    -0.1902     3.8419     3.8419     0.0000
  3 C      6.1366     6.0000    -0.1366     3.7024     3.7024    -0.0000
  4 C      6.1260     6.0000    -0.1260     3.9225     3.9225    -0.0000
  5 N      7.2318     7.0000    -0.2318     2.9973     2.9973     0.0000
  6 C      6.1940     6.0000    -0.1940     4.0137     4.0137     0.0000
  7 H      0.8278     1.0000     0.1722     0.9576     0.9576     0.0000
  8 H      0.8207     1.0000     0.1793     0.9523     0.9523     0.0000
  9 H      0.8210     1.0000     0.1790     0.9524     0.9524    -0.0000
 10 H      0.8146     1.0000     0.1854     0.9567     0.9567     0.0000
 11 H      0.8157     1.0000     0.1843     0.9572     0.9572    -0.0000
 12 H      0.8404     1.0000     0.1596     0.9619     0.9619     0.0000
 13 H      0.8389     1.0000     0.1611     0.9624     0.9624     0.0000

  Mayer bond orders larger than 0.100000
B(  0-C ,  1-C ) :   0.8240 B(  0-C ,  7-H ) :   0.9832 B(  0-C ,  8-H ) :   0.9663 
B(  0-C ,  9-H ) :   0.9667 B(  1-C ,  2-C ) :   1.3347 B(  1-C ,  6-C ) :   1.3260 
B(  2-C ,  3-C ) :   1.4186 B(  2-C , 10-H ) :   0.9495 B(  3-C ,  4-C ) :   1.3523 
B(  3-C , 11-H ) :   0.9413 B(  4-C ,  5-N ) :   1.4637 B(  4-C , 12-H ) :   0.9709 
B(  5-N ,  6-C ) :   1.4913 B(  6-C , 13-H ) :   0.9784 

-------
TIMINGS
-------

Total SCF time: 0 days 0 hours 0 min 22 sec 

Total time                  ....      22.655 sec
Sum of individual times     ....      22.134 sec  ( 97.7%)

SCF preparation             ....       0.279 sec  (  1.2%)
Fock matrix formation       ....      20.252 sec  ( 89.4%)
  Startup                   ....       0.063 sec  (  0.3% of F)
  Split-RI-J                ....       2.935 sec  ( 14.5% of F)
  XC integration            ....      13.184 sec  ( 65.1% of F)
    XC Preparation          ....       0.000 sec  (  0.0% of XC)
    Basis function eval.    ....       2.263 sec  ( 17.2% of XC)
    Density eval.           ....       3.695 sec  ( 28.0% of XC)
    XC-Functional eval.     ....       1.725 sec  ( 13.1% of XC)
    XC-Potential eval.      ....       4.613 sec  ( 35.0% of XC)
  CPCM terms                ....       3.432 sec  ( 16.9% of F)
Diagonalization             ....       0.000 sec  (  0.0%)
Density matrix formation    ....       0.244 sec  (  1.1%)
Total Energy calculation    ....       0.048 sec  (  0.2%)
Population analysis         ....       0.085 sec  (  0.4%)
Orbital Transformation      ....       0.053 sec  (  0.2%)
Orbital Orthonormalization  ....       0.000 sec  (  0.0%)
DIIS solution               ....       1.022 sec  (  4.5%)
  MO trafo                  ....       0.000 sec  (  0.0 % of DIIS)
  Orb grad                  ....       0.000 sec  (  0.0 % of DIIS)
  Energy W gradient         ....       0.000 sec  (  0.0 % of DIIS)
  DIIS error                ....       0.007 sec  (  0.7 % of DIIS)
  DIIS work                 ....       0.966 sec  ( 94.6 % of DIIS)
  Form Q                    ....       0.000 sec  (  0.0 % of DIIS)
  Form QpQm                 ....       0.000 sec  (  0.0 % of DIIS)
  Exp/Cayley                ....       0.000 sec  (  0.0 % of DIIS)
  Orb update                ....       0.000 sec  (  0.0 % of DIIS)
  Wake-sleep                ....       0.021 sec  (  2.0 % of DIIS)
SOSCF solution              ....       0.153 sec  (  0.7%)
  MO trafo                  ....       0.064 sec  ( 41.8 % of SOSCF)
  Orb grad                  ....       0.002 sec  (  1.3 % of SOSCF)
  Rot update                ....       0.054 sec  ( 35.7 % of SOSCF)
  Step                      ....       0.032 sec  ( 21.2 % of SOSCF)
Finished LeanSCF after  22.8 sec

Maximum memory used throughout the entire LEANSCF-calculation: 19.7 MB


-------------------------------------------------------------------------------
                          DFT DISPERSION CORRECTION                            
                                                                               
                                DFTD4 V3.4.0                                   
-------------------------------------------------------------------------------
The R2SCAN3C composite method is recognized
Using three-body term ABC
Active option DFTDOPT                   ...         5   

-------------------------   ----------------
Dispersion correction           -0.004093989
-------------------------   ----------------

------------------   -----------------
gCP correction             0.006474727
------------------   -----------------

-------------------------   --------------------
FINAL SINGLE POINT ENERGY      -287.523937746209
-------------------------   --------------------


------------------------------------------------------------------------------
                              ORCA PROPERTY CALCULATIONS
------------------------------------------------------------------------------

GBWName                                 ... sp_solv.gbw
Number of atoms                         ...     14
Number of basis functions               ...    173
Max core memory                         ...   1024 MB

Electric properties:
Dipole moment                           ... YES
Quadrupole moment                       ...  NO
Static polarizability (Dipole/Dipole)   ...  NO
Static polarizability (Dipole/Quad.)    ...  NO
Static polarizability (Quad./Quad.)     ...  NO
Static polarizability (Velocity)        ...  NO

Atomic electric properties:
Dipole moment                           ...  NO
Quadrupole moment                       ...  NO
Static polarizability                   ...  NO

Choice of electric origin               ... Center of mass
Position of electric origin             ...     0.000004    -0.000002     0.000000

General magnetic properties:
Magnetizability                         ...  NO

EPR properties:
g-Tensor (aka g-matrix)                 ...  NO
Zero-Field splitting spin-orbit         ...  NO
Zero-field splitting spin-spin          ...  NO
Hyperfine couplings                     ...  NO (   0 nuclei)
Quadrupole couplings                    ...  NO (   0 nuclei)
Contact density                         ...  NO (   0 nuclei)

NMR properties:
Chemical shifts                         ...  NO (   0 nuclei)
Spin-rotation constants                 ...  NO (   0 nuclei)
Spin-spin couplings                     ...  NO (   0 nuclei,    0 pairs)

Choice of magnetic origin               ... GIAO
Position of magnetic origin             ...     0.000000     0.000000     0.000000

Properties with geometric perturbations:
SCF Hessian                             ...  NO
IR spectrum                             ...  NO
VCD spectrum                            ...  NO
X-ray spectroscopy properties:
SCF XES/XAS/RIXS spectra                ...  NO


-------------
DIPOLE MOMENT
-------------

Method             : SCF
Type of density    : Electron Density
Multiplicity       :   1
Irrep              :   0
Energy             :  -287.5263184839564587 Eh
Relativity type    : 
Basis              : AO
                                X                 Y                 Z
Electronic contribution:     -4.105836671       0.733925150      -0.000813274
Nuclear contribution   :      4.992810584      -1.831740812       0.001689498
                        -----------------------------------------
Total Dipole Moment    :      0.886973913      -1.097815662       0.000876223
                        -----------------------------------------
Magnitude (a.u.)       :      1.411354923
Magnitude (Debye)      :      3.587379120



--------------------
Rotational spectrum 
--------------------
 
Rotational constants in cm-1:             0.192435             0.087380             0.060769 
Rotational constants in MHz :          5769.053391          2619.575206          1821.812071 

Dipole components along the rotational axes: 
x,y,z [a.u.] :    -0.886972    -1.097817     0.000876 
x,y,z [Debye]:    -2.254505    -2.790429     0.002227 

 

Dipole moment calculation done in   0.0 sec 

Maximum memory used throughout the entire PROP-calculation: 10.3 MB

--------------------------------
SUGGESTED CITATIONS FOR THIS RUN
--------------------------------

Below you find a list of papers that are relevant to this ORCA run
We neither can nor want to force you to cite these papers, but we appreciate if you do
You receive ORCA, which is the product of decades of hard work by many enthusiastic individuals, for free
The only thing we kindly ask in return is that you cite our papers,
We deeply appreciate it, if you show your appreciation for ORCA by not just citing the generic ORCA reference.

Please note that relegating all ORCA citations to the supporting information does *not* help us.
SI sections are not indexed - citations you put there will not count into any citation statistics
But we need these citations in order to attract the funding resources that allow us to do what we are doing

Therefore, if you are a happy ORCA user, please consider citing a few of the papers listed below in the main body of your paper

In addition to the list printed below, the program has created the file sp_solv.bibtex that contains the list in bibtex format
You can import this file easily into all common literature databanks and citation aid programs


List of essential papers. We consider these as the minimum necessary citations

  1. Neese,F.
     Software update: the ORCA program system, version 5.0
     WIRES Comput. Molec. Sci., 2022 12(1)e1606
     doi.org/10.1002/wcms.1606
  2. Grimme,S.; Hansen,A.; Ehlert,S.; Mewes,J.
     r2SCAN-3c: A 'Swiss army knife' composite electronic-structure method
     J. Chem. Phys., 2021 154 064103
     doi.org/10.1063/5.0040021

List of papers to cite with high priority. The work reported in these papers was absolutely
necessary for this run to complete.
Our perspective: the developers of density functionals and basis sets usually get cited in chemistry papers
Good! But without the algorithms to do something with them, the functionals or basis sets would not do anything.
Hence, in our opinion, the algorithm design and method developments papers are equally worthy of getting cited

  1. Neese,F.
     An improvement of the resolution of the identity approximation for the formation of the Coulomb matrix
     J. Comp. Chem., 2003 24(14)1740-1747
     doi.org/10.1002/jcc.10318
  2. Garcia-Rates,M.; Neese,F.
     Effect of the Solute Cavity on the Solvation Energy and its Derivatives within the Framework of the Gaussian Charge Scheme
     J. Comput. Chem., 2020 41 922-939
     doi.org/10.1002/jcc.26139
  3. Neese,F.
     The SHARK Integral Generation and Digestion System
     J. Comp. Chem., 2022  1-16
     doi.org/10.1002/jcc.26942
  4. Lehtola,S.; Steigemann,C.; Oliveira,M.; Marques,M.
     Recent developments in Libxc - A comprehensive library of functionals for density functional theory
     Software X, 2018 7 
     doi.org/10.1016/j.softx.2017.11.002
  5. Caldeweyher,E.; Bannwarth,C.; Grimme,S.
     Extension of the D3 dispersion coefficient model
     J. Chem. Phys., 2017 147 034112-XXXX
     doi.org/10.1063/1.4993215
  6. Caldeweyher,E.; Ehlert,S.; Hansen,A.; Neugebauer,H.; Spicher,S.; Bannwarth,C.; Grimme,S.
     A generally applicable atomic-charge dependent London dispersion correction
     J. Chem. Phys., 2019 150 154122-XXXX
     doi.org/10.1063/1.5090222
  7. Caldeweyher,E.; Mewes,J.; Ehlert,S.; Grimme,S.
     Extension and evaluation of the D4 London-dispersion model for periodic systems
     Phys. Chem. Chem. Phys., 2020 22(16)8499-8512
     doi.org/10.1039/D0CP00502A

List of suggested additional citations. These are papers that are important in the 'surrounding' of 
of this run, or papers that preceded the highly important papers. If you like your results we are grateful for a citation.

  1. Neese,F.
     The ORCA program system
     WIRES Comput. Molec. Sci., 2012 2(1)73-78
     doi.org/10.1002/wcms.81
  2. Neese,F.
     Software update: the ORCA program system, version 4.0
     WIRES Comput. Molec. Sci., 2018 8(1)1-6
     doi.org/10.1002/wcms.1327
  3. Neese,F.; Wennmohs,F.; Becker,U.; Riplinger,C.
     The ORCA quantum chemistry program package
     J. Chem. Phys., 2020 152 Art. No. L224108
     doi.org/10.1063/5.0004608

List of optional additional citations

  1. Neese,F.
     Approximate second-order SCF convergence for spin unrestricted wavefunctions
     Chem. Phys. Lett., 2000 325(1-3)93-98
     doi.org/10.1016/s0009-2614(00)00662-x

Timings for individual modules:

Sum of individual times          ...       24.348 sec (=   0.406 min)
Startup calculation              ...        0.982 sec (=   0.016 min)   4.0 %
SCF iterations                   ...       23.060 sec (=   0.384 min)  94.7 %
Property calculations            ...        0.306 sec (=   0.005 min)   1.3 %
                             ****ORCA TERMINATED NORMALLY****
TOTAL RUN TIME: 0 days 0 hours 0 minutes 25 seconds 70 msec
