      -----------------------------------------------------------      
     |                   =====================                   |     
     |                           x T B                           |     
     |                   =====================                   |     
     |                         S. Grimme                         |     
     |          Mulliken Center for Theoretical Chemistry        |     
     |                    University of Bonn                     |     
      -----------------------------------------------------------      

   * xtb version 6.7.1 (edcfbbe) compiled by 'albert@albert-system' on 2024-07-22

   xtb is free software: you can redistribute it and/or modify it under
   the terms of the GNU Lesser General Public License as published by
   the Free Software Foundation, either version 3 of the License, or
   (at your option) any later version.
   
   xtb is distributed in the hope that it will be useful,
   but WITHOUT ANY WARRANTY; without even the implied warranty of
   MERCHANTABILITY or FITNESS FOR A PARTICULAR PURPOSE.  See the
   GNU Lesser General Public License for more details.
   
   Cite this work as:
   * C. Bannwarth, E. Caldeweyher, S. Ehlert, A. Hansen, P. Pracht,
     J. Seibert, S. Spicher, S. Grimme, WIREs Comput. Mol. Sci., 2020, 11,
     e01493. DOI: 10.1002/wcms.1493
   
   for GFN2-xTB:
   * C. Bannwarth, S. Ehlert and S. Grimme., J. Chem. Theory Comput., 2019,
     15, 1652-1671. DOI: 10.1021/acs.jctc.8b01176
   for GFN1-xTB:
   * S. Grimme, C. Bannwarth, P. Shushkov, J. Chem. Theory Comput., 2017,
     13, 1989-2009. DOI: 10.1021/acs.jctc.7b00118
   for GFN0-xTB:
   * P. Pracht, E. Caldeweyher, S. Ehlert, S. Grimme, ChemRxiv, 2019, preprint.
     DOI: 10.26434/chemrxiv.8326202.v1
   for GFN-FF:
   * S. Spicher and S. Grimme, Angew. Chem. Int. Ed., 2020, 59, 15665-15673.
     DOI: 10.1002/anie.202004239
   
   for ALPB and GBSA implicit solvation:
   * S. Ehlert, M. Stahn, S. Spicher, S. Grimme, J. Chem. Theory Comput.,
     2021, 17, 4250-4261. DOI: 10.1021/acs.jctc.1c00471
   
   for ddCOSMO and CPCM-X implicit solvation:
   * M. Stahn, S. Ehlert, S. Grimme, J. Phys. Chem. A,
     2023, XX, XXXX-XXXX. DOI: 10.1021/acs.jpca.3c04382
   
   for DFT-D4:
   * E. Caldeweyher, C. Bannwarth and S. Grimme, J. Chem. Phys., 2017,
     147, 034112. DOI: 10.1063/1.4993215
   * E. Caldeweyher, S. Ehlert, A. Hansen, H. Neugebauer, S. Spicher,
     C. Bannwarth and S. Grimme, J. Chem. Phys., 2019, 150, 154122.
     DOI: 10.1063/1.5090222
   * E. Caldeweyher, J.-M. Mewes, S. Ehlert and S. Grimme, Phys. Chem. Chem. Phys.
     2020, 22, 8499-8512. DOI: 10.1039/D0CP00502A
   
   for sTDA-xTB:
   * S. Grimme and C. Bannwarth, J. Chem. Phys., 2016, 145, 054103.
     DOI: 10.1063/1.4959605
   
   in the mass-spec context:
   * V. Asgeirsson, C. Bauer and S. Grimme, Chem. Sci., 2017, 8, 4879.
     DOI: 10.1039/c7sc00601b
   * J. Koopman and S. Grimme, ACS Omega 2019, 4, 12, 15120-15133.
     DOI: 10.1021/acsomega.9b02011
   
   for metadynamics refer to:
   * S. Grimme, J. Chem. Theory Comput., 2019, 155, 2847-2862
     DOI: 10.1021/acs.jctc.9b00143
   
   for SPH calculations refer to:
   * S. Spicher and S. Grimme, J. Chem. Theory Comput., 2021, 17, 1701-1714
     DOI: 10.1021/acs.jctc.0c01306
   
   for ONIOM refer to:
   * C. Plett, A. Katbashev, S. Ehlert, S. Grimme, M. Bursch,
     Phys. Chem. Chem. Phys., 2023, 25, 17860-17868. DOI: 10.1039/D3CP02178E
   
   for DIPRO refer to:
   * J. Kohn, N. Gildemeister, S. Grimme, D. Fazzi, A. Hansen,
     J. Chem. Phys., 2023, just accepted.
   
   for PTB refer to:
   * S. Grimme, M. Mueller, A. Hansen, J. Chem. Phys., 2023, 158, 124111.
     DOI: 10.1063/5.0137838
   
   with help from (in alphabetical order)
   P. Atkinson, C. Bannwarth, F. Bohle, G. Brandenburg, E. Caldeweyher
   M. Checinski, S. Dohm, S. Ehlert, S. Ehrlich, I. Gerasimov, C. Hölzer
   A. Katbashev, J. Kohn, J. Koopman, C. Lavigne, S. Lehtola, F. März, M. Müller,
   F. Musil, H. Neugebauer, J. Pisarek, C. Plett, P. Pracht, F. Pultar,
   J. Seibert, P. Shushkov, S. Spicher, M. Stahn, M. Steiner, T. Strunk,
   J. Stückrath, T. Rose, and J. Unsleber
   
 * started run on 2025/04/06 at 18:00:46.653     
   ID    Z sym.   atoms
    1    6 C      1, 2, 4, 6, 8, 10
    2    1 H      3, 5, 7, 9, 11, 18-24
    3    8 O      12-17

           -------------------------------------------------
          |                Calculation Setup                |
           -------------------------------------------------

          program call               : /srv/scratch/z5358697/.xtb/bin/xtb solv.coord --gfn2 --sp --chrg 0 --norestart --parallel 1 --alpb water reference -I xtb_sp-xcontrol-inp
          hostname                   : k155
          coordinate file            : solv.coord
          omp threads                :                     1


           -------------------------------------------------
          |                 G F N 2 - x T B                 |
           -------------------------------------------------

        Reference                      10.1021/acs.jctc.8b01176
      * Hamiltonian:
        H0-scaling (s, p, d)           1.850000    2.230000    2.230000
        zeta-weighting                 0.500000
      * Dispersion:
        s8                             2.700000
        a1                             0.520000
        a2                             5.000000
        s9                             5.000000
      * Repulsion:
        kExp                           1.500000    1.000000
        rExp                           1.000000
      * Coulomb:
        alpha                          2.000000
        third order                    shell-resolved
        anisotropic                    true
        a3                             3.000000
        a5                             4.000000
        cn-shift                       1.200000
        cn-exp                         4.000000
        max-rad                        5.000000

      * Solvation model:               ALPB
        Solvent                        water
        Parameter file                 internal GFN2-xTB/ALPB
        Dielectric constant                8.0200E+01
        Reference state                gsolv=reference [X=1]
        Free energy shift                  2.8945E-03 Eh       1.8164E+00 kcal/mol
        Temperature                        2.9815E+02 K
        Density                            1.0000E+00 kg/L
        Solvent mass                       1.8000E+01 g/mol
        Interaction kernel             P16
        Born radius scaling (c1)           1.4744E+00
        Born radii integrator          GBOBC
        Born offset                        0.0000E+00 a0       0.0000E+00 AA
        H-bond correction              true
        Ion screening                  false
        Surface tension                    1.0000E-05 Eh       1.5569E+01 dyn/cm
        Grid points                               974 per atom

          ...................................................
          :                      SETUP                      :
          :.................................................:
          :  # basis functions                  60          :
          :  # atomic orbitals                  60          :
          :  # shells                           36          :
          :  # electrons                        72          :
          :  max. iterations                   250          :
          :  Hamiltonian                  GFN2-xTB          :
          :  restarted?                      false          :
          :  GBSA solvation                   true          :
          :  PC potential                    false          :
          :  electronic temp.          300.0000000     K    :
          :  accuracy                    1.0000000          :
          :  -> integral cutoff          0.2500000E+02      :
          :  -> integral neglect         0.1000000E-07      :
          :  -> SCF convergence          0.1000000E-05 Eh   :
          :  -> wf. convergence          0.1000000E-03 e    :
          :  Broyden damping             0.4000000          :
          :  net charge                          0          :
          :  unpaired electrons                  0          :
          ...................................................

 iter      E             dE          RMSdq      gap      omega  full diag
   1    -43.6478965 -0.436479E+02  0.475E+00   10.53       0.0  T
   2    -43.6845027 -0.366062E-01  0.255E+00   10.28       1.0  T
   3    -43.6865714 -0.206868E-02  0.632E-01   10.32       1.0  T
   4    -43.6870423 -0.470875E-03  0.180E-01   10.30       1.0  T
   5    -43.6871101 -0.678597E-04  0.739E-02   10.32       1.0  T
   6    -43.6871264 -0.162504E-04  0.203E-02   10.33       1.0  T
   7    -43.6871270 -0.601292E-06  0.637E-03   10.32       3.2  T
   8    -43.6871272 -0.248923E-06  0.187E-03   10.32      10.9  T
   9    -43.6871273 -0.650252E-08  0.767E-04   10.32      26.6  T
  10    -43.6871273 -0.306776E-08  0.251E-04   10.32      81.4  T

   *** convergence criteria satisfied after 10 iterations ***

         #    Occupation            Energy/Eh            Energy/eV
      -------------------------------------------------------------
         1        2.0000           -0.7297795             -19.8583
       ...           ...                  ...                  ...
        30        2.0000           -0.4571714             -12.4403
        31        2.0000           -0.4527479             -12.3199
        32        2.0000           -0.4394207             -11.9572
        33        2.0000           -0.4346926             -11.8286
        34        2.0000           -0.4267017             -11.6111
        35        2.0000           -0.4153984             -11.3036
        36        2.0000           -0.4064657             -11.0605 (HOMO)
        37                         -0.0270452              -0.7359 (LUMO)
        38                          0.0033993               0.0925
        39                          0.0120364               0.3275
        40                          0.0212646               0.5786
        41                          0.0401207               1.0917
       ...                                ...                  ...
        60                          0.2985020               8.1227
      -------------------------------------------------------------
                  HL-Gap            0.3794204 Eh           10.3246 eV
             Fermi-level           -0.2167555 Eh           -5.8982 eV

 SCC (total)                   0 d,  0 h,  0 min,  0.027 sec
 SCC setup                      ...        0 min,  0.002 sec (  5.513%)
 Dispersion                     ...        0 min,  0.000 sec (  0.522%)
 classical contributions        ...        0 min,  0.000 sec (  0.095%)
 integral evaluation            ...        0 min,  0.003 sec ( 10.234%)
 iterations                     ...        0 min,  0.016 sec ( 58.797%)
 molecular gradient             ...        0 min,  0.007 sec ( 24.333%)
 printout                       ...        0 min,  0.000 sec (  0.452%)

         :::::::::::::::::::::::::::::::::::::::::::::::::::::
         ::                     SUMMARY                     ::
         :::::::::::::::::::::::::::::::::::::::::::::::::::::
         :: total energy             -43.383192093602 Eh    ::
         :: total w/o Gsasa/hb       -43.365779240378 Eh    ::
         :: gradient norm              0.000082091026 Eh/a0 ::
         :: HOMO-LUMO gap             10.324555654570 eV    ::
         ::.................................................::
         :: SCC energy               -43.686969569086 Eh    ::
         :: -> isotropic ES            0.172869605259 Eh    ::
         :: -> anisotropic ES         -0.005609411995 Eh    ::
         :: -> anisotropic XC         -0.009500592141 Eh    ::
         :: -> dispersion             -0.019319546500 Eh    ::
         :: -> Gsolv                  -0.036520443491 Eh    ::
         ::    -> Gelec               -0.019107590267 Eh    ::
         ::    -> Gsasa                0.005301360461 Eh    ::
         ::    -> Ghb                 -0.025608762844 Eh    ::
         ::    -> Gshift               0.002894549160 Eh    ::
         :: repulsion energy           0.303777475484 Eh    ::
         :: add. restraining           0.000000000000 Eh    ::
         :: total charge               0.000000000000 e     ::
         :::::::::::::::::::::::::::::::::::::::::::::::::::::

           -------------------------------------------------
          |                Property Printout                |
           -------------------------------------------------

    * Orbital Energies and Occupations

         #    Occupation            Energy/Eh            Energy/eV
      -------------------------------------------------------------
         1        2.0000           -0.7297795             -19.8583
       ...           ...                  ...                  ...
        24        2.0000           -0.5193314             -14.1317
        25        2.0000           -0.5054411             -13.7538
        26        2.0000           -0.5016346             -13.6502
        27        2.0000           -0.4973586             -13.5338
        28        2.0000           -0.4781992             -13.0125
        29        2.0000           -0.4694221             -12.7736
        30        2.0000           -0.4571714             -12.4403
        31        2.0000           -0.4527479             -12.3199
        32        2.0000           -0.4394207             -11.9572
        33        2.0000           -0.4346926             -11.8286
        34        2.0000           -0.4267017             -11.6111
        35        2.0000           -0.4153984             -11.3036
        36        2.0000           -0.4064657             -11.0605 (HOMO)
        37                         -0.0270452              -0.7359 (LUMO)
        38                          0.0033993               0.0925
        39                          0.0120364               0.3275
        40                          0.0212646               0.5786
        41                          0.0401207               1.0917
        42                          0.0541271               1.4729
        43                          0.0868616               2.3636
        44                          0.0933135               2.5392
        45                          0.1028237               2.7980
        46                          0.1085932               2.9550
        47                          0.1181601               3.2153
       ...                                ...                  ...
        60                          0.2985020               8.1227
      -------------------------------------------------------------
                  HL-Gap            0.3794204 Eh           10.3246 eV
             Fermi-level           -0.2167555 Eh           -5.8982 eV

     #   Z          covCN         q      C6AA      α(0)
     1   6 C        3.674     0.065    19.707     6.361
     2   6 C        3.738     0.081    19.315     6.271
     3   1 H        0.924     0.072     2.069     2.250
     4   6 C        3.728     0.095    19.102     6.240
     5   1 H        0.923     0.029     2.600     2.521
     6   6 C        3.731     0.102    18.992     6.221
     7   1 H        0.924     0.059     2.212     2.326
     8   6 C        3.727     0.086    19.249     6.264
     9   1 H        0.923     0.043     2.409     2.427
    10   6 C        3.615     0.236    17.358     6.012
    11   1 H        0.924     0.057     2.230     2.335
    12   8 O        1.699    -0.365    20.176     6.064
    13   8 O        1.656    -0.512    23.155     6.496
    14   8 O        1.656    -0.506    23.030     6.478
    15   8 O        1.656    -0.491    22.706     6.433
    16   8 O        1.656    -0.493    22.736     6.437
    17   8 O        1.655    -0.500    22.883     6.458
    18   1 H        0.924     0.046     2.368     2.406
    19   1 H        0.924     0.059     2.211     2.325
    20   1 H        0.804     0.384     0.515     1.127
    21   1 H        0.804     0.374     0.535     1.149
    22   1 H        0.805     0.360     0.564     1.180
    23   1 H        0.805     0.363     0.558     1.174
    24   1 H        0.804     0.357     0.573     1.189

 Mol. C6AA /au·bohr⁶  :       4716.030352
 Mol. C8AA /au·bohr⁸  :     100616.226049
 Mol. α(0) /au        :         98.144638


Wiberg/Mayer (AO) data.
largest (>0.10) Wiberg bond orders for each atom

 ---------------------------------------------------------------------------
     #   Z sym  total        # sym  WBO       # sym  WBO       # sym  WBO
 ---------------------------------------------------------------------------
     1   6 C    3.958 --    17 O    1.006     2 C    0.978    19 H    0.968
                            18 H    0.964
     2   6 C    3.938 --     1 C    0.978     4 C    0.964     3 H    0.957
                            12 O    0.952
     3   1 H    0.995 --     2 C    0.957
     4   6 C    3.961 --    16 O    1.002     6 C    0.969     2 C    0.964
                             5 H    0.957
     5   1 H    0.999 --     4 C    0.957
     6   6 C    3.960 --    15 O    1.004     4 C    0.969     8 C    0.962
                             7 H    0.958
     7   1 H    0.997 --     6 C    0.958
     8   6 C    3.959 --    14 O    1.001     6 C    0.962    10 C    0.959
                             9 H    0.954
     9   1 H    0.998 --     8 C    0.954
    10   6 C    3.930 --    13 O    1.000    12 O    0.971     8 C    0.959
                            11 H    0.949
    11   1 H    0.997 --    10 C    0.949
    12   8 O    2.072 --    10 C    0.971     2 C    0.952
    13   8 O    1.932 --    10 C    1.000    20 H    0.837
    14   8 O    1.915 --     8 C    1.001    21 H    0.843
    15   8 O    1.937 --     6 C    1.004    22 H    0.853
    16   8 O    1.927 --     4 C    1.002    23 H    0.851
    17   8 O    1.921 --     1 C    1.006    24 H    0.857
    18   1 H    0.998 --     1 C    0.964
    19   1 H    0.997 --     1 C    0.968
    20   1 H    0.852 --    13 O    0.837
    21   1 H    0.860 --    14 O    0.843
    22   1 H    0.870 --    15 O    0.853
    23   1 H    0.868 --    16 O    0.851
    24   1 H    0.873 --    17 O    0.857
 ---------------------------------------------------------------------------

Topologies differ in total number of bonds
Writing topology from bond orders to xtbtopo.mol

molecular dipole:
                 x           y           z       tot (Debye)
 q only:       -0.022      -0.337      -0.989
   full:        0.035      -0.524      -1.222       3.380
molecular quadrupole (traceless):
                xx          xy          yy          xz          yz          zz
 q only:       -3.317      -2.858       2.092       0.768      -3.587       1.226
  q+dip:       -5.864      -4.464       1.466       0.321      -3.824       4.398
   full:       -5.529      -4.144       1.976       0.778      -4.456       3.553


           -------------------------------------------------
          | TOTAL ENERGY              -43.383192093602 Eh   |
          | GRADIENT NORM               0.000082091026 Eh/α |
          | HOMO-LUMO GAP              10.324555654570 eV   |
           -------------------------------------------------

------------------------------------------------------------------------
 * finished run on 2025/04/06 at 18:00:46.715     
------------------------------------------------------------------------
 total:
 * wall-time:     0 d,  0 h,  0 min,  0.062 sec
 *  cpu-time:     0 d,  0 h,  0 min,  0.028 sec
 * ratio c/w:     0.445 speedup
 SCF:
 * wall-time:     0 d,  0 h,  0 min,  0.027 sec
 *  cpu-time:     0 d,  0 h,  0 min,  0.020 sec
 * ratio c/w:     0.711 speedup

