
                                 *****************
                                 * O   R   C   A *
                                 *****************

                                            #,                                       
                                            ###                                      
                                            ####                                     
                                            #####                                    
                                            ######                                   
                                           ########,                                 
                                     ,,################,,,,,                         
                               ,,#################################,,                 
                          ,,##########################################,,             
                       ,#########################################, ''#####,          
                    ,#############################################,,   '####,        
                  ,##################################################,,,,####,       
                ,###########''''           ''''###############################       
              ,#####''   ,,,,##########,,,,          '''####'''          '####       
            ,##' ,,,,###########################,,,                        '##       
           ' ,,###''''                  '''############,,,                           
         ,,##''                                '''############,,,,        ,,,,,,###''
      ,#''                                            '''#######################'''  
     '                                                          ''''####''''         
             ,#######,   #######,   ,#######,      ##                                
            ,#'     '#,  ##    ##  ,#'     '#,    #''#        ,####,   ,####,        
            ##       ##  ##   ,#'  ##            #'  '#       #'       #'  '#        
            ##       ##  #######   ##           ,######,      #####,   #    #        
            '#,     ,#'  ##    ##  '#,     ,#' ,#      #,     #,   #   #,  ,#        
             '#######'   ##     ##  '#######'  #'      '#     '####' # '####'        



                #########################################################
                #                        -***-                          #
                #          Department of theory and spectroscopy        #
                #                                                       #
                #                      Frank Neese                      #
                #                                                       #
                #     Directorship, Architecture, Infrastructure        #
                #                    SHARK, DRIVERS                     #
                #        Core code/Algorithms in most modules           #
                #                                                       #
                #        Max Planck Institute fuer Kohlenforschung      #
                #                Kaiser Wilhelm Platz 1                 #
                #                 D-45470 Muelheim/Ruhr                 #
                #                      Germany                          #
                #                                                       #
                #                  All rights reserved                  #
                #                        -***-                          #
                #########################################################


                         Program Version 6.0.0  -   RELEASE  -


 With contributions from (in alphabetic order):
   Daniel Aravena         : Magnetic Suceptibility
   Michael Atanasov       : Ab Initio Ligand Field Theory (pilot matlab implementation)
   Alexander A. Auer      : GIAO ZORA, VPT2 properties, NMR spectrum
   Ute Becker             : All parallelization in ORCA, NUMFREQ, NUMCALC
   Giovanni Bistoni       : ED, misc. LED, open-shell LED, HFLD
   Martin Brehm           : Molecular dynamics
   Dmytro Bykov           : pre 5.0 version of the SCF Hessian
   Marcos Casanova-Páez   : Triplet and SCS-CIS(D). UHF-(DLPNO)-IP/EA/STEOM-CCSD. UHF-CVS-IP/STEOM-CCSD
   Vijay G. Chilkuri      : MRCI spin determinant printing, contributions to CSF-ICE
   Pauline Colinet        : FMM embedding
   Dipayan Datta          : RHF DLPNO-CCSD density
   Achintya Kumar Dutta   : EOM-CC, STEOM-CC
   Nicolas Foglia         : Exact transition moments, OPA infrastructure, MCD improvements
   Dmitry Ganyushin       : Spin-Orbit,Spin-Spin,Magnetic field MRCI
   Miquel Garcia          : C-PCM and meta-GGA Hessian, CCSD/C-PCM, Gaussian charge scheme
   Tiago L. C. Gouveia    : GS-ROHF, GS-ROCIS
   Yang Guo               : DLPNO-NEVPT2, F12-NEVPT2, CIM, IAO-localization
   Andreas Hansen         : Spin unrestricted coupled pair/coupled cluster methods
   Ingolf Harden          : AUTO-CI MPn and infrastructure 
   Benjamin Helmich-Paris : MC-RPA, TRAH-(SCF,CASSCF), AVAS, COSX integrals, SCF dyn. polar.
   Lee Huntington         : MR-EOM, pCC
   Robert Izsak           : Overlap fitted RIJCOSX, COSX-SCS-MP3, EOM
   Riya Kayal             : Wick's Theorem for AUTO-CI, AUTO-CI UHF-CCSDT
   Emily Kempfer          : AUTO-CI, RHF CISDT and CCSDT
   Christian Kollmar      : KDIIS, OOCD, Brueckner-CCSD(T), CCSD density, CASPT2, CASPT2-K, improved NEVPT2
   Axel Koslowski         : Symmetry handling
   Simone Kossmann        : Meta GGA functionals, TD-DFT gradient, OOMP2, (MP2 Hessian; deprecated post 5.0)
   Lucas Lang             : DCDCAS
   Marvin Lechner         : AUTO-CI (C++ implementation), FIC-MRCC
   Spencer Leger          : CASSCF response
   Dagmar Lenk            : GEPOL surface, SMD, ORCA-2-JSON
   Dimitrios Liakos       : Extrapolation schemes; Compound Job, initial MDCI parallelization
   Dimitrios Manganas     : Further ROCIS development; embedding schemes. LFT, Crystal Embedding
   Dimitrios Pantazis     : SARC Basis sets
   Anastasios Papadopoulos: AUTO-CI, single reference methods and gradients
   Taras Petrenko         : pre 6.0 DFT Hessian and TD-DFT gradient, (ASA, deprecated), ECA, 1-Electron XAS/XES, NRVS
   Peter Pinski           : DLPNO-MP2, DLPNO-MP2 Gradient
   Christoph Reimann      : Effective Core Potentials
   Marius Retegan         : Local ZFS, SOC
   Christoph Riplinger    : Optimizer, TS searches, QM/MM, DLPNO-CCSD(T), (RO)-DLPNO pert. Triples
   Michael Roemelt        : Original ROCIS implementation
   Masaaki Saitow         : Open-shell DLPNO-CCSD energy and density
   Barbara Sandhoefer     : DKH picture change effects
   Kantharuban Sivalingam : CASSCF convergence/infrastructure, NEVPT2 and variants, FIC-MRCI
   Bernardo de Souza      : ESD, SOC TD-DFT
   Georgi Stoychev        : AutoAux, RI-MP2 NMR, DLPNO-MP2 response, X2C
   Van Anh Tran           : RI-MP2 g-tensors
   Willem Van den Heuvel  : Paramagnetic NMR
   Zikuan Wang            : NOTCH, Electric field optimization 
   Frank Wennmohs         : Technical directorship and infrastructure
   Hang Xu                : AUTO-CI-Response properties 


 We gratefully acknowledge several colleagues who have allowed us to
 interface, adapt or use parts of their codes:
   Stefan Grimme, W. Hujo, H. Kruse, P. Pracht,  : VdW corrections, initial TS optimization,
                  C. Bannwarth, S. Ehlert,         DFT functionals, gCP, sTDA/sTD-DF
                  L. Wittmann, M. Mueller
   Ed Valeev, F. Pavosevic, A. Kumar             : LibInt (2-el integral package), F12 methods
   Garnet Chan, S. Sharma, J. Yang, R. Olivares  : DMRG
   Ulf Ekstrom                                   : XCFun DFT Library
   Mihaly Kallay                                 : mrcc  (arbitrary order and MRCC methods)
   Frank Weinhold                                : gennbo (NPA and NBO analysis)
   Simon Mueller                                 : openCOSMO-RS
   Christopher J. Cramer and Donald G. Truhlar   : smd solvation model
   Lars Goerigk                                  : TD-DFT with DH, B97 family of functionals
   V. Asgeirsson, H. Jonsson                     : NEB implementation
   FAccTs GmbH                                   : IRC, NEB, NEB-TS, DLPNO-Multilevel, CI-OPT
                                                   MM, QMMM, 2- and 3-layer-ONIOM, Crystal-QMMM,
                                                   LR-CPCM, SF, NACMEs, symmetry and pop. for TD-DFT,
                                                   nearIR, NL-DFT gradient (VV10), updates on ESD,
                                                   ML-optimized integration grids, MBIS, APM,
                                                   GOAT, DOCKER, SOLVATOR, interface openCOSMO-RS
   S Lehtola, MJT Oliveira, MAL Marques          : LibXC Library
   Liviu Ungur et al                             : ANISO software


 Your calculation uses the libint2 library for the computation of 2-el integrals
 For citations please refer to: http://libint.valeyev.net

 Your ORCA version has been built with support for libXC version: 6.2.2
 For citations please refer to: https://libxc.gitlab.io

 This ORCA versions uses:
   CBLAS   interface :  Fast vector & matrix operations
   LAPACKE interface :  Fast linear algebra routines
   SCALAPACK package :  Parallel linear algebra routines
   Shared memory     :  Shared parallel matrices
   BLAS/LAPACK       :  OpenBLAS 0.3.27  USE64BITINT DYNAMIC_ARCH NO_AFFINITY SkylakeX SINGLE_THREADED
        Core in use  :  SkylakeX
   Copyright (c) 2011-2014, The OpenBLAS Project


Your calculation utilizes the geometrical counterpoise correction gCP
Please cite in your paper:
H.Kruse, S. Grimme J.Chem.Phys., 136, (2012), 154101 
   

Your calculation utilizes the DFT-NL dispersion correction.
Cite in your paper:
Vydrov, O. A.; Van Voorhis, T. J. Chem. Phys. 2010, 133, 244103
Hujo, W.; Grimme, S. J. Chem. Theory Comput. 2011, 7, 3866 
   

Your calculation utilizes the SMD solvation module
Please cite in your paper:
A.V. Marenich, C.J. Cramer, D.G. Truhlar J. Phys. Chem. B, 113, (2009), 6378 

================================================================================

----- Orbital basis set information -----
Your calculation utilizes the basis: def2-TZVP
   F. Weigend and R. Ahlrichs, Phys. Chem. Chem. Phys. 7, 3297 (2005).

----- AuxJ basis set information -----
Your calculation utilizes the auxiliary basis: def2/J
   F. Weigend, Phys. Chem. Chem. Phys. 8, 1057 (2006).

================================================================================
                                        WARNINGS
                       Please study these warnings very carefully!
================================================================================


================================================================================
                                       INPUT FILE
================================================================================
NAME = sp_solv.inp
|  1> ! wb97x-v def2-tzvp def2/J RIJCOSX DEFGRID2 scfconv7 GCP(DFT/TZ) printgap
|  2> %output
|  3>     printlevel normal
|  4> end
|  5> %cpcm
|  6>     smd true
|  7>     smdsolvent "water"
|  8> end
|  9> * xyz 0 1
| 10> C -1.7013642163963403 0.6238980237495589 -0.6276530529196355
| 11> C -1.2047433946318513 -0.07481902490394249 0.6317473078387581
| 12> C 0.04522000185189111 -0.9401519794239559 0.3816718403087007
| 13> C 1.2015286152631595 -0.15781865201805167 -0.025461465779557355
| 14> C 2.1448481208395886 0.5224388849288745 -0.3508416184046219
| 15> H -1.9636765647176644 -0.10651482748788504 -1.4011060389204253
| 16> H -2.5902995533364064 1.2262837698744429 -0.41658133689818533
| 17> H -0.9357746874511543 1.2905043584934197 -1.0393854032055412
| 18> H -0.9768406143154765 0.6617481146696763 1.410193017340507
| 19> H -1.986667730723259 -0.7315048225605477 1.0280393566791297
| 20> H -0.17485151359674306 -1.6852317288246166 -0.3935226698839358
| 21> H 0.29968236787842845 -1.4966440790597337 1.2914212699447762
| 22> H 2.9802082588737226 1.116203045749712 -0.6474921949956213
| 23> *
| 24> 
| 25>                          ****END OF INPUT****
================================================================================

                       ****************************
                       * Single Point Calculation *
                       ****************************

---------------------------------
CARTESIAN COORDINATES (ANGSTROEM)
---------------------------------
  C     -1.701364    0.623898   -0.627653
  C     -1.204743   -0.074819    0.631747
  C      0.045220   -0.940152    0.381672
  C      1.201529   -0.157819   -0.025461
  C      2.144848    0.522439   -0.350842
  H     -1.963677   -0.106515   -1.401106
  H     -2.590300    1.226284   -0.416581
  H     -0.935775    1.290504   -1.039385
  H     -0.976841    0.661748    1.410193
  H     -1.986668   -0.731505    1.028039
  H     -0.174852   -1.685232   -0.393523
  H      0.299682   -1.496644    1.291421
  H      2.980208    1.116203   -0.647492

----------------------------
CARTESIAN COORDINATES (A.U.)
----------------------------
  NO LB      ZA    FRAG     MASS         X           Y           Z
   0 C     6.0000    0    12.011   -3.215112    1.178996   -1.186092
   1 C     6.0000    0    12.011   -2.276635   -0.141387    1.193829
   2 C     6.0000    0    12.011    0.085453   -1.776630    0.721255
   3 C     6.0000    0    12.011    2.270560   -0.298234   -0.048115
   4 C     6.0000    0    12.011    4.053176    0.987266   -0.662995
   5 H     1.0000    0     1.008   -3.710811   -0.201284   -2.647707
   6 H     1.0000    0     1.008   -4.894957    2.317340   -0.787225
   7 H     1.0000    0     1.008   -1.768358    2.438700   -1.964154
   8 H     1.0000    0     1.008   -1.845961    1.250523    2.664879
   9 H     1.0000    0     1.008   -3.754258   -1.382344    1.942713
  10 H     1.0000    0     1.008   -0.330421   -3.184626   -0.743650
  11 H     1.0000    0     1.008    0.566318   -2.828247    2.440433
  12 H     1.0000    0     1.008    5.631777    2.109318   -1.223583

--------------------------------
INTERNAL COORDINATES (ANGSTROEM)
--------------------------------
 C      0   0   0     0.000000000000     0.00000000     0.00000000
 C      1   0   0     1.523458901109     0.00000000     0.00000000
 C      2   1   0     1.540697035172   112.82286507     0.00000000
 C      3   2   1     1.454253270082   112.85341812    64.20389636
 C      4   3   2     1.207673072440   178.23545838    17.12650274
 H      1   2   3     1.095691664150   110.84574419    59.83850097
 H      1   2   3     1.094360950372   110.96544402   179.80925335
 H      1   2   3     1.095451897905   111.22175853   299.77180091
 H      2   1   3     1.095649830474   110.29293205   122.04335905
 H      2   1   3     1.095303287766   109.95967383   239.96930679
 H      3   2   1     1.097497987931   109.46692776   302.51935657
 H      3   2   1     1.096393440971   109.79690182   185.65145267
 H      5   4   3     1.066950797124   179.36361427   212.67372156

---------------------------
INTERNAL COORDINATES (A.U.)
---------------------------
 C      0   0   0     0.000000000000     0.00000000     0.00000000
 C      1   0   0     2.878920099380     0.00000000     0.00000000
 C      2   1   0     2.911495451820   112.82286507     0.00000000
 C      3   2   1     2.748140409815   112.85341812    64.20389636
 C      4   3   2     2.282171366223   178.23545838    17.12650274
 H      1   2   3     2.070557172464   110.84574419    59.83850097
 H      1   2   3     2.068042487861   110.96544402   179.80925335
 H      1   2   3     2.070104079924   111.22175853   299.77180091
 H      2   1   3     2.070478118273   110.29293205   122.04335905
 H      2   1   3     2.069823247460   109.95967383   239.96930679
 H      3   2   1     2.073970629718   109.46692776   302.51935657
 H      3   2   1     2.071883338463   109.79690182   185.65145267
 H      5   4   3     2.016244804933   179.36361427   212.67372156

---------------------
BASIS SET INFORMATION
---------------------
There are 2 groups of distinct atoms

 Group   1 Type C   : 11s6p2d1f contracted to 5s3p2d1f pattern {62111/411/11/1}
 Group   2 Type H   : 5s1p contracted to 3s1p pattern {311/1}

Atom   0C    basis set group =>   1
Atom   1C    basis set group =>   1
Atom   2C    basis set group =>   1
Atom   3C    basis set group =>   1
Atom   4C    basis set group =>   1
Atom   5H    basis set group =>   2
Atom   6H    basis set group =>   2
Atom   7H    basis set group =>   2
Atom   8H    basis set group =>   2
Atom   9H    basis set group =>   2
Atom  10H    basis set group =>   2
Atom  11H    basis set group =>   2
Atom  12H    basis set group =>   2
---------------------------------
AUXILIARY/J BASIS SET INFORMATION
---------------------------------
There are 2 groups of distinct atoms

 Group   1 Type C   : 12s5p4d2f1g contracted to 6s4p3d1f1g pattern {711111/2111/211/2/1}
 Group   2 Type H   : 5s2p1d contracted to 3s1p1d pattern {311/2/1}

Atom   0C    basis set group =>   1
Atom   1C    basis set group =>   1
Atom   2C    basis set group =>   1
Atom   3C    basis set group =>   1
Atom   4C    basis set group =>   1
Atom   5H    basis set group =>   2
Atom   6H    basis set group =>   2
Atom   7H    basis set group =>   2
Atom   8H    basis set group =>   2
Atom   9H    basis set group =>   2
Atom  10H    basis set group =>   2
Atom  11H    basis set group =>   2
Atom  12H    basis set group =>   2

Checking for AutoStart:
The File: sp_solv.gbw exists
Trying to determine its content:
     ... Fine, the file contains calculation information
     ... Fine, the calculation information was read
     ... Fine, the file contains a basis set
     ... Fine, the basis set was read
     ... Fine, the file contains a geometry
     ... Fine, the geometry was read
     ... Fine, the file contains a set of orbitals
     ... Fine, the orbitals can be read
     => possible old guess file was deleted
     => GBW file was renamed to GES file
     => GES file is set as startup file
     => Guess is set to MORead
     ... now leaving AutoStart

------------------------------------------------------------------------------
                             ORCA STARTUP CALCULATIONS
                           -- RI-GTO INTEGRALS CHOSEN --
------------------------------------------------------------------------------
------------------------------------------------------------------------------
                   ___                                                        
                  /   \      - P O W E R E D   B Y -                         
                 /     \                                                     
                 |  |  |   _    _      __       _____    __    __             
                 |  |  |  | |  | |    /  \     |  _  \  |  |  /  |          
                  \  \/   | |  | |   /    \    | | | |  |  | /  /          
                 / \  \   | |__| |  /  /\  \   | |_| |  |  |/  /          
                |  |  |   |  __  | /  /__\  \  |    /   |      \           
                |  |  |   | |  | | |   __   |  |    \   |  |\   \          
                \     /   | |  | | |  |  |  |  | |\  \  |  | \   \       
                 \___/    |_|  |_| |__|  |__|  |_| \__\ |__|  \__/        
                                                                              
                      - O R C A' S   B I G   F R I E N D -                    
                                      &                                       
                       - I N T E G R A L  F E E D E R -                       
                                                                              
 v1 FN, 2020, v2 2021, v3 2022-2024                                           
------------------------------------------------------------------------------


----------------------
SHARK INTEGRAL PACKAGE
----------------------

Number of atoms                             ...     13
Number of basis functions                   ...    203
Number of shells                            ...     87
Maximum angular momentum                    ...      3
Integral batch strategy                     ... SHARK/LIBINT Hybrid
RI-J (if used) integral strategy            ... SPLIT-RIJ (Revised 2003 algorithm where possible)
Printlevel                                  ...      1
Contraction scheme used                     ... SEGMENTED contraction
Prescreening option                         ... SCHWARTZ
   Thresh                                   ... 3.000e-11
   Tcut                                     ... 1.000e-12
   Tpresel                                  ... 1.000e-12 
Coulomb Range Separation                    ... NOT USED
Exchange Range Separation                   ... Long Range
   Mu parameter                             ... 3.000e-01
   Scaling (regular/separated)              ... 1.670e-01 8.330e-01
Multipole approximations                    ... NOT USED
Finite Nucleus Model                        ... NOT USED
CABS basis                                  ... NOT available
Auxiliary Coulomb fitting basis             ... AVAILABLE
   # of basis functions in Aux-J            ...    333
   # of shells in Aux-J                     ...    115
   Maximum angular momentum in Aux-J        ...      4
Auxiliary J/K fitting basis                 ... NOT available
Auxiliary Correlation fitting basis         ... NOT available
Auxiliary 'external' fitting basis          ... NOT available

Checking pre-screening integrals            ... done (  0.0 sec) Dimension = 87
Check shell pair data                       ... done (  0.0 sec)
Shell pair information
Shell pair cut-off parameter TPreSel        ...   1.0e-12
Total number of shell pairs                 ...      3828
Shell pairs after pre-screening             ...      3666
Total number of primitive shell pairs       ...     11160
Primitive shell pairs kept                  ...      8553
          la=0 lb=0:   1140 shell pairs
          la=1 lb=0:   1083 shell pairs
          la=1 lb=1:    271 shell pairs
          la=2 lb=0:    474 shell pairs
          la=2 lb=1:    226 shell pairs
          la=2 lb=2:     55 shell pairs
          la=3 lb=0:    237 shell pairs
          la=3 lb=1:    115 shell pairs
          la=3 lb=2:     50 shell pairs
          la=3 lb=3:     15 shell pairs

Calculating one electron integrals          ... done (  0.0 sec)
Calculating RI/J V-Matrix + Cholesky decomp.... done (  0.0 sec)
Calculating Nuclear repulsion               ... done (  0.0 sec) ENN=    156.969025130305 Eh

Diagonalization of the overlap matrix:
Smallest eigenvalue                        ... 2.139e-05
Time for diagonalization                   ...    0.004 sec
Threshold for overlap eigenvalues          ... 1.000e-07
Number of eigenvalues below threshold      ... 0
Time for construction of square roots      ...    0.013 sec
Total time needed                          ...    0.025 sec

-------------------
DFT GRID GENERATION
-------------------

General Integration Accuracy     IntAcc      ... 4.388
Radial Grid Type                 RadialGrid  ... OptM3 with GC (2021)
Angular Grid (max. ang.)         AngularGrid ... 4 (Lebedev-302)
Angular grid pruning method      GridPruning ... 4 (adaptive)
Weight generation scheme         WeightScheme... mBecke (2022)
Basis function cutoff            BFCut       ... 1.0000e-11
Integration weight cutoff        WCut        ... 1.0000e-14
Partially contracted basis set               ... off
Rotationally invariant grid construction     ... off
Angular grids for H and He will be reduced by one unit

Total number of grid points                  ...    56094
Total number of batches                      ...      884
Average number of points per batch           ...       63
Average number of grid points per atom       ...     4315

--------------------
COSX GRID GENERATION
--------------------

GRIDX 1
-------
General Integration Accuracy     IntAcc      ... 3.816
Radial Grid Type                 RadialGrid  ... OptM3 with GC (2021)
Angular Grid (max. ang.)         AngularGrid ... 1 (Lebedev-50)
Angular grid pruning method      GridPruning ... 4 (adaptive)
Weight generation scheme         WeightScheme... mBecke (2022)
Basis function cutoff            BFCut       ... 1.0000e-11
Integration weight cutoff        WCut        ... 1.0000e-14
Partially contracted basis set               ... on
Rotationally invariant grid construction     ... off
Angular grids for H and He will be reduced by one unit

Total number of grid points                  ...     7222
Total number of batches                      ...       65
Average number of points per batch           ...      111
Average number of grid points per atom       ...      556
UseSFitting                                  ... on

GRIDX 2
-------
General Integration Accuracy     IntAcc      ... 4.020
Radial Grid Type                 RadialGrid  ... OptM3 with GC (2021)
Angular Grid (max. ang.)         AngularGrid ... 2 (Lebedev-110)
Angular grid pruning method      GridPruning ... 4 (adaptive)
Weight generation scheme         WeightScheme... mBecke (2022)
Basis function cutoff            BFCut       ... 1.0000e-11
Integration weight cutoff        WCut        ... 1.0000e-14
Partially contracted basis set               ... on
Rotationally invariant grid construction     ... off
Angular grids for H and He will be reduced by one unit

Total number of grid points                  ...    15280
Total number of batches                      ...      128
Average number of points per batch           ...      119
Average number of grid points per atom       ...     1175
UseSFitting                                  ... on

GRIDX 3
-------
General Integration Accuracy     IntAcc      ... 4.338
Radial Grid Type                 RadialGrid  ... OptM3 with GC (2021)
Angular Grid (max. ang.)         AngularGrid ... 3 (Lebedev-194)
Angular grid pruning method      GridPruning ... 4 (adaptive)
Weight generation scheme         WeightScheme... mBecke (2022)
Basis function cutoff            BFCut       ... 1.0000e-11
Integration weight cutoff        WCut        ... 1.0000e-14
Partially contracted basis set               ... on
Rotationally invariant grid construction     ... off
Angular grids for H and He will be reduced by one unit

Total number of grid points                  ...    33476
Total number of batches                      ...      269
Average number of points per batch           ...      124
Average number of grid points per atom       ...     2575
UseSFitting                                  ... on
Initializing property integral containers    ... done (  0.0 sec)

SHARK setup successfully completed in   1.3 seconds

Maximum memory used throughout the entire STARTUP-calculation: 28.9 MB
-------------------------------------------------------------------------------
                                 ORCA GUESS
                   Start orbitals & Density for SCF / CASSCF
-------------------------------------------------------------------------------

------------
SCF SETTINGS
------------
Hamiltonian:
 Density Functional     Method          .... DFT(GTOs)
 Exchange Functional    Exchange        .... WB97X-V
 Correlation Functional Correlation     .... WB97X-V
 Gradients option       PostSCFGGA      .... off
 Hybrid DFT is turned on
   Fraction HF Exchange ScalHFX         ....  0.167000
   Scaling of DF-GGA-X  ScalDFX         ....  0.000000
   Scaling of DF-GGA-C  ScalDFC         ....  1.000000
   Scaling of DF-LDA-C  ScalLDAC        ....  1.000000
   Perturbative correction              ....  0.000000
 Long-range corrected/Screened/Range-Separated Hybrid DFT is turned on
   Amount of maximum screened exact exchange              ....  0.833000
   Range separation parameter mu (erf(mu*r12)/r12)        ....  0.300000
   NL short-range parameter             ....  6.000000
   NL long-range parameter              ....  0.010000
 RI-approximation to the Coulomb term is turned on
   Number of AuxJ basis functions       .... 333
   RIJ-COSX (HFX calculated with COS-X)).... on


General Settings:
 Integral files         IntName         .... sp_solv
 Hartree-Fock type      HFTyp           .... RHF
 Total Charge           Charge          ....    0
 Multiplicity           Mult            ....    1
 Number of Electrons    NEL             ....   38
 Basis Dimension        Dim             ....  203
 Nuclear Repulsion      ENuc            ....    156.9690251303 Eh

Convergence Acceleration:
 AO-DIIS                CNVDIIS         .... on
   Start iteration      DIISMaxIt       ....    12
   Startup error        DIISStart       ....  0.200000
   # of expansion vecs  DIISMaxEq       ....     5
   Bias factor          DIISBfac        ....   1.050
   Max. coefficient     DIISMaxC        ....  10.000
 MO-DIIS                CNVKDIIS        .... off
 Trust-Rad. Augm. Hess. CNVTRAH         .... auto
   Auto Start mean grad. ratio tolernc. ....  1.125000
   Auto Start start iteration           ....     1
   Auto Start num. interpolation iter.  ....    10
   Max. Number of Micro iterations      ....    24
   Max. Number of Macro iterations      .... Maxiter - #DIIS iter
   Number of Davidson start vectors     ....     2
   Converg. threshold    (grad. norm)   ....   1.000e-04
   Grad. Scal. Fac. for Micro threshold ....   0.100
   Minimum threshold for Micro iter.    ....   1.000e-02
   NR start threshold (gradient norm)   ....   1.000e-04
   Initial trust radius                 ....   0.400
   Minimum AH scaling param. (alpha)    ....   1.000
   Maximum AH scaling param. (alpha)    .... 1000.000
   Quad. conv. algorithm                .... NR
   White noise on init. David. guess    .... on
   Maximum white noise                  ....   0.010
   Pseudo random numbers                .... off
   Inactive MOs                         .... canonical
   Orbital update algorithm             .... Taylor
   Preconditioner                       .... Diag
   Full preconditioner red. dimension   ....   250
 SOSCF                  CNVSOSCF        .... on
   Start iteration      SOSCFMaxIt      ....   150
   Startup grad/error   SOSCFStart      ....  0.003300
   Hessian update       SOSCFHessUp     .... L-BFGS
 Level Shifting         CNVShift        .... on
   Level shift para.    LevelShift      ....    0.2500
   Turn off err/grad.   ShiftErr        ....    0.0010
 Zerner damping         CNVZerner       .... off
 Static damping         CNVDamp         .... on
   Fraction old density DampFac         ....    0.7000
   Max. Damping (<1)    DampMax         ....    0.9800
   Min. Damping (>=0)   DampMin         ....    0.0000
   Turn off err/grad.   DampErr         ....    0.1000

SCF Procedure:
 Maximum # iterations   MaxIter         ....   125
 SCF integral mode      SCFMode         .... Direct
   Integral package                     .... SHARK and LIBINT hybrid scheme
 Reset frequency        DirectResetFreq ....    20
 Integral Threshold     Thresh          ....  3.000e-11 Eh
 Primitive CutOff       TCut            ....  1.000e-12 Eh

Convergence Tolerance:
 Convergence Check Mode ConvCheckMode   .... Total+1el-Energy
 Convergence forced     ConvForced      .... 0
 Energy Change          TolE            ....  1.000e-07 Eh
 1-El. energy change                    ....  1.000e-04 Eh
 Orbital Gradient       TolG            ....  1.000e-04
 Orbital Rotation angle TolX            ....  1.000e-04
 DIIS Error             TolErr          ....  1.000e-07

---------------------
INITIAL GUESS: MOREAD
---------------------
Guess MOs are being read from file: sp_solv.ges
Input Geometry matches current geometry (good)
Atom 0: N(Shells)= 11 and 9 - projection required
Input basis set needs projection
NBasis(read)= 135
NBasis(calc)= 203
Basis set overlap was calculated
Using GuessMode=FMatrix for the initial guess
C*T matrix was formed
Effective Fockian was calculated
Effective Fockian was diagonalized
Initial density was built
                      ------------------
                      INITIAL GUESS DONE (   0.0 sec)
                      ------------------
             **** ENERGY FILE WAS UPDATED (sp_solv.en.tmp) ****
Finished Guess after   0.3 sec
Maximum memory used throughout the entire GUESS-calculation: 16.1 MB

-------------------------------------------------------------------------------------------
                                      ORCA LEAN-SCF
                              memory conserving SCF solver
-------------------------------------------------------------------------------------------

--------------------
CPCM SOLVATION MODEL
--------------------
CPCM parameters:
  Epsilon                                         ...      78.3550
  Refrac                                          ...       1.3328
  Rsolv                                           ...       1.3000
  Surface type                                    ... GAUSSIAN VDW
  Discretization scheme                           ... Constant charge density
    Threshold for H atoms                         ...       5.0000 (charges/Ang^2)
    Threshold for non-H atoms                     ...       5.0000 (charges/Ang^2)
  Epsilon function type                           ...         CPCM
Solvent:                                          ... WATER
SMD-CDS solvent descriptors:
  Soln                                            ...       1.3328
  Soln25                                          ...       1.3323
  Sola                                            ...       0.0000
  Solb                                            ...       0.0000
  Solg                                            ...       0.0000
  Solc                                            ...       0.0000
  Solh                                            ...       0.0000
Radii:
  Scheme                                          ... Element-dependent radii
  Radius for C  used is    3.4960 Bohr (=   1.8500 Ang.)
  Radius for H  used is    2.2677 Bohr (=   1.2000 Ang.)
Calculating surface                               ...        done! (  0.0s)
Cavity surface points                             ...         1063
Cavity Volume                                     ...     630.0088
Cavity Surface-area                               ...     428.7853
Calculating surface distance matrix               ...        done! (  0.0s)
Performing Cholesky decomposition & store         ...        done! (  0.0s)
Overall time for CPCM initialization              ...                 0.0s

----------------------------------------D-I-I-S--------------------------------------------
Iteration    Energy (Eh)           Delta-E    RMSDP     MaxDP     DIISErr   Damp  Time(sec)
-------------------------------------------------------------------------------------------
               ***  Starting incremental Fock matrix formation  ***
    1    -195.4383491155510626     0.00e+00  2.27e-03  1.19e-01  3.31e-02  0.700   7.0
    2    -195.4408725122069939    -2.52e-03  1.77e-03  8.97e-02  2.44e-02  0.700   4.0
                               ***Turning on AO-DIIS***
    3    -195.4428001607487602    -1.93e-03  1.36e-03  6.62e-02  1.77e-02  0.700   3.8
    4    -195.4442302406263536    -1.43e-03  3.26e-03  1.57e-01  1.25e-02  0.000   3.9
                              *** Initializing SOSCF ***
---------------------------------------S-O-S-C-F--------------------------------------
Iteration    Energy (Eh)           Delta-E    RMSDP     MaxDP     MaxGrad    Time(sec)
--------------------------------------------------------------------------------------
    5    -195.4479149852647595    -3.68e-03  8.00e-05  1.76e-03  7.36e-04     3.9
               *** Restarting incremental Fock matrix formation ***
    6    -195.4479284635845318    -1.35e-05  3.92e-05  8.49e-04  2.03e-04     6.9
    7    -195.4479305746817488    -2.11e-06  1.76e-05  5.01e-04  6.26e-05     5.5
    8    -195.4479308142065008    -2.40e-07  2.96e-06  9.46e-05  2.06e-05     5.2
                  *** Gradient check signals convergence ***

               *****************************************************
               *                     SUCCESS                       *
               *           SCF CONVERGED AFTER   8 CYCLES          *
               *****************************************************


------------------
NL GRID GENERATION
------------------

General Integration Accuracy     IntAcc      ... 4.004
Radial Grid Type                 RadialGrid  ... OptM3 with GC (2021)
Angular Grid (max. ang.)         AngularGrid ... 2 (Lebedev-110)
Angular grid pruning method      GridPruning ... 4 (adaptive)
Weight generation scheme         WeightScheme... mBecke (2022)
Basis function cutoff            BFCut       ... 1.0000e-10
Integration weight cutoff        WCut        ... 1.0000e-14
Partially contracted basis set               ... off
Rotationally invariant grid construction     ... off
Angular grids for H and He will be reduced by one unit

Total number of grid points                  ...    16989
Total number of batches                      ...      273
Average number of points per batch           ...       62
Average number of grid points per atom       ...     1307
Final grid set up in    0.1 sec

-------------------------------------------------------------------------------
                    post-SCF DFT-NL dispersion correction                      
-------------------------------------------------------------------------------

SCF Energy:     -195.447930814 
NL    Energy:      0.147836638 
SC+NL Energy:   -195.300094176 
NL done in  :              1.1 sec
-------------------------------------------------------------------------------
Recomputing exchange energy using gridx3       ... done (   11.258 sec)
Old exchange energy                            :     -9.714466716 Eh
New exchange energy                            :     -9.714462287 Eh
Exchange energy change after final integration :      0.000004429 Eh
Total energy after final integration           :   -195.300089747 Eh

SMD CDS free energy correction energy :                 4.22814     Kcal/mol
Total Energy after SMD CDS correction =              -195.293351774 Eh
             **** ENERGY FILE WAS UPDATED (sp_solv.en.tmp) ****

----------------
TOTAL SCF ENERGY
----------------

Total Energy       :       -195.29335177371084 Eh           -5314.20227 eV

Components:
Nuclear Repulsion  :        156.96902513030503 Eh            4271.34432 eV
Electronic Energy  :       -352.40836091241152 Eh           -9589.51902 eV
One Electron Energy:       -571.79185957485038 Eh          -15559.24752 eV
Two Electron Energy:        219.38349866243885 Eh            5969.72849 eV
CPCM Dielectric    :         -0.00859503209999 Eh              -0.23388 eV
SMD CDS (Gcds)     :          0.00673797329371 Eh               0.18335 eV

Virial components:
Potential Energy   :       -389.71935334902463 Eh          -10604.80274 eV
Kinetic Energy     :        194.42600157531379 Eh            5290.60047 eV
Virial Ratio       :          2.00446108129247

DFT components:
N(Alpha)           :       18.999971194437 electrons
N(Beta)            :       18.999971194437 electrons
N(Total)           :       37.999942388874 electrons
E(X)               :      -18.965596755001 Eh       
E(C)               :       -1.506686103623 Eh       
NL Energy, E(C,NL) :        0.147836638076 Eh       
E(XC)              :      -20.324446220548 Eh       

CPCM Solvation Model Properties:
Surface-charge          :         -0.04338280358060
Corrected charge        :         -0.00000000000000
Outlying charge corr.   :          0.00016383696095 Eh               0.00446 eV
Free-energy (cav+disp)  :          0.00673797329371 Eh               0.18335 eV

---------------
SCF CONVERGENCE
---------------

  Last Energy change         ...    2.3952e-07  Tolerance :   1.0000e-07
  Last MAX-Density change    ...    9.4637e-05  Tolerance :   1.0000e-05
  Last RMS-Density change    ...    2.9557e-06  Tolerance :   1.0000e-06
  Last DIIS Error            ...    7.3559e-04  Tolerance :   1.0000e-07
  Last Orbital Gradient      ...    2.0629e-05  Tolerance :   1.0000e-04
  Last Orbital Rotation      ...    4.2501e-05  Tolerance :   1.0000e-04


----------------
ORBITAL ENERGIES
----------------

  NO   OCC          E(Eh)            E(eV) 
   0   2.0000     -12.060890      -328.1935 
   1   2.0000     -12.055649      -328.0509 
   2   2.0000     -12.042378      -327.6898 
   3   2.0000     -12.038532      -327.5851 
   4   2.0000     -12.026724      -327.2638 
   5   2.0000      -1.324884       -36.0519 
   6   2.0000      -1.276155       -34.7259 
   7   2.0000      -1.197896       -32.5964 
   8   2.0000      -1.079433       -29.3729 
   9   2.0000      -0.979655       -26.6578 
  10   2.0000      -0.929269       -25.2867 
  11   2.0000      -0.880337       -23.9552 
  12   2.0000      -0.865092       -23.5404 
  13   2.0000      -0.833413       -22.6783 
  14   2.0000      -0.796162       -21.6647 
  15   2.0000      -0.777935       -21.1687 
  16   2.0000      -0.757235       -20.6054 
  17   2.0000      -0.682124       -18.5615 
  18   2.0000      -0.678263       -18.4565 
  19   0.0000      -0.163332        -4.4445 
  20   0.0000      -0.151739        -4.1290 
  21   0.0000      -0.045900        -1.2490 
  22   0.0000      -0.002893        -0.0787 
  23   0.0000       0.008063         0.2194 
  24   0.0000       0.016460         0.4479 
  25   0.0000       0.033625         0.9150 
  26   0.0000       0.041093         1.1182 
  27   0.0000       0.058543         1.5930 
  28   0.0000       0.065671         1.7870 
  29   0.0000       0.075154         2.0451 
*Only the first 10 virtual orbitals were printed.

                    ********************************
                    * MULLIKEN POPULATION ANALYSIS *
                    ********************************

-----------------------
MULLIKEN ATOMIC CHARGES
-----------------------
   0 C :   -0.398243
   1 C :   -0.160598
   2 C :   -0.211496
   3 C :   -0.131346
   4 C :   -0.240406
   5 H :    0.122173
   6 H :    0.131174
   7 H :    0.125604
   8 H :    0.110626
   9 H :    0.116967
  10 H :    0.151746
  11 H :    0.152250
  12 H :    0.231549
Sum of atomic charges:    0.0000000

--------------------------------
MULLIKEN REDUCED ORBITAL CHARGES
--------------------------------
  0 C s       :     3.247568  s :     3.247568
      pz      :     0.979643  p :     3.087295
      px      :     1.062145
      py      :     1.045507
      dz2     :     0.013443  d :     0.059963
      dxz     :     0.011248
      dyz     :     0.017345
      dx2y2   :     0.003232
      dxy     :     0.014694
      f0      :     0.000611  f :     0.003416
      f+1     :     0.000295
      f-1     :     0.000712
      f+2     :     0.000470
      f-2     :     0.000886
      f+3     :     0.000043
      f-3     :     0.000399

  1 C s       :     3.178514  s :     3.178514
      pz      :     0.968841  p :     2.876396
      px      :     0.936277
      py      :     0.971279
      dz2     :     0.016621  d :     0.100086
      dxz     :     0.019859
      dyz     :     0.027311
      dx2y2   :     0.012927
      dxy     :     0.023368
      f0      :     0.000982  f :     0.005602
      f+1     :     0.000558
      f-1     :     0.000851
      f+2     :     0.000586
      f-2     :     0.001246
      f+3     :     0.000753
      f-3     :     0.000627

  2 C s       :     3.238109  s :     3.238109
      pz      :     1.037965  p :     2.872668
      px      :     0.875268
      py      :     0.959435
      dz2     :     0.009260  d :     0.095773
      dxz     :     0.017738
      dyz     :     0.023737
      dx2y2   :     0.026865
      dxy     :     0.018173
      f0      :     0.000391  f :     0.004947
      f+1     :     0.000376
      f-1     :     0.000838
      f+2     :     0.000213
      f-2     :     0.001056
      f+3     :     0.001184
      f-3     :     0.000889

  3 C s       :     3.334504  s :     3.334504
      pz      :     0.946074  p :     2.695753
      px      :     0.851164
      py      :     0.898515
      dz2     :     0.010467  d :     0.090868
      dxz     :     0.018946
      dyz     :     0.014604
      dx2y2   :     0.029057
      dxy     :     0.017794
      f0      :     0.000809  f :     0.010221
      f+1     :     0.001411
      f-1     :     0.000781
      f+2     :     0.000854
      f-2     :     0.001808
      f+3     :     0.003203
      f-3     :     0.001355

  4 C s       :     3.187538  s :     3.187538
      pz      :     1.019028  p :     3.033186
      px      :     1.006009
      py      :     1.008149
      dz2     :     0.000876  d :     0.012426
      dxz     :     0.003912
      dyz     :     0.002533
      dx2y2   :     0.006720
      dxy     :    -0.001614
      f0      :     0.000617  f :     0.007257
      f+1     :     0.000997
      f-1     :     0.000547
      f+2     :     0.000571
      f-2     :     0.001306
      f+3     :     0.002103
      f-3     :     0.001118

  5 H s       :     0.857152  s :     0.857152
      pz      :     0.008509  p :     0.020675
      px      :     0.004645
      py      :     0.007520

  6 H s       :     0.847932  s :     0.847932
      pz      :     0.004317  p :     0.020894
      px      :     0.009718
      py      :     0.006859

  7 H s       :     0.853444  s :     0.853444
      pz      :     0.005420  p :     0.020952
      px      :     0.008209
      py      :     0.007322

  8 H s       :     0.868465  s :     0.868465
      pz      :     0.008799  p :     0.020909
      px      :     0.004235
      py      :     0.007875

  9 H s       :     0.861972  s :     0.861972
      pz      :     0.005453  p :     0.021061
      px      :     0.008651
      py      :     0.006957

 10 H s       :     0.826962  s :     0.826962
      pz      :     0.008393  p :     0.021292
      px      :     0.004256
      py      :     0.008643

 11 H s       :     0.826292  s :     0.826292
      pz      :     0.010276  p :     0.021458
      px      :     0.004391
      py      :     0.006790

 12 H s       :     0.745833  s :     0.745833
      pz      :     0.004750  p :     0.022618
      px      :     0.010636
      py      :     0.007232


------------------------
MULLIKEN OVERLAP CHARGES
------------------------
B(  0-C ,  1-C ) :   0.6419 B(  0-C ,  2-C ) :  -0.0950 B(  0-C ,  5-H ) :   0.8191 
B(  0-C ,  6-H ) :   0.8286 B(  0-C ,  7-H ) :   0.8305 B(  0-C ,  8-H ) :  -0.0784 
B(  0-C ,  9-H ) :  -0.0596 B(  1-C ,  2-C ) :   0.6655 B(  1-C ,  3-C ) :  -0.0850 
B(  1-C ,  5-H ) :  -0.0800 B(  1-C ,  6-H ) :  -0.0771 B(  1-C ,  7-H ) :  -0.0648 
B(  1-C ,  8-H ) :   0.8364 B(  1-C ,  9-H ) :   0.8453 B(  1-C , 10-H ) :  -0.0660 
B(  1-C , 11-H ) :  -0.0631 B(  2-C ,  3-C ) :   0.6807 B(  2-C ,  4-C ) :  -0.2248 
B(  2-C ,  8-H ) :  -0.0591 B(  2-C ,  9-H ) :  -0.1108 B(  2-C , 10-H ) :   0.8933 
B(  2-C , 11-H ) :   0.8279 B(  3-C ,  4-C ) :   1.4517 B(  3-C , 10-H ) :  -0.1182 
B(  3-C , 11-H ) :  -0.0729 B(  3-C , 12-H ) :  -0.0661 B(  4-C , 12-H ) :   0.8411 
B(  5-H ,  7-H ) :  -0.0526 B(  8-H ,  9-H ) :  -0.0519 


                     *******************************
                     * LOEWDIN POPULATION ANALYSIS *
                     *******************************

----------------------
LOEWDIN ATOMIC CHARGES
----------------------
   0 C :   -0.310014
   1 C :   -0.272110
   2 C :   -0.240782
   3 C :   -0.132180
   4 C :   -0.141651
   5 H :    0.120566
   6 H :    0.120105
   7 H :    0.119881
   8 H :    0.137297
   9 H :    0.137890
  10 H :    0.161503
  11 H :    0.161153
  12 H :    0.138342

-------------------------------
LOEWDIN REDUCED ORBITAL CHARGES
-------------------------------
  0 C s       :     2.827611  s :     2.827611
      pz      :     1.061155  p :     3.192993
      px      :     1.064820
      py      :     1.067017
      dz2     :     0.059432  d :     0.264569
      dxz     :     0.047961
      dyz     :     0.076443
      dx2y2   :     0.014970
      dxy     :     0.065763
      f0      :     0.005413  f :     0.024842
      f+1     :     0.003747
      f-1     :     0.003575
      f+2     :     0.004746
      f-2     :     0.003042
      f+3     :     0.001416
      f-3     :     0.002903

  1 C s       :     2.778273  s :     2.778273
      pz      :     1.034731  p :     3.058320
      px      :     0.998545
      py      :     1.025044
      dz2     :     0.068029  d :     0.397314
      dxz     :     0.077036
      dyz     :     0.105372
      dx2y2   :     0.054000
      dxy     :     0.092876
      f0      :     0.007218  f :     0.038204
      f+1     :     0.005073
      f-1     :     0.004410
      f+2     :     0.005450
      f-2     :     0.005776
      f+3     :     0.005818
      f-3     :     0.004460

  2 C s       :     2.762816  s :     2.762816
      pz      :     1.024795  p :     3.049449
      px      :     1.006689
      py      :     1.017965
      dz2     :     0.042256  d :     0.389991
      dxz     :     0.067391
      dyz     :     0.095483
      dx2y2   :     0.093718
      dxy     :     0.091143
      f0      :     0.003463  f :     0.038525
      f+1     :     0.005294
      f-1     :     0.004113
      f+2     :     0.004195
      f-2     :     0.005715
      f+3     :     0.009589
      f-3     :     0.006156

  3 C s       :     2.815758  s :     2.815758
      pz      :     0.897135  p :     2.915075
      px      :     1.048929
      py      :     0.969011
      dz2     :     0.041022  d :     0.356125
      dxz     :     0.076650
      dyz     :     0.050258
      dx2y2   :     0.110599
      dxy     :     0.077596
      f0      :     0.004248  f :     0.045222
      f+1     :     0.005613
      f-1     :     0.003087
      f+2     :     0.002864
      f-2     :     0.008601
      f+3     :     0.010071
      f-3     :     0.010739

  4 C s       :     2.899030  s :     2.899030
      pz      :     0.986668  p :     3.075108
      px      :     1.068409
      py      :     1.020031
      dz2     :     0.016443  d :     0.131908
      dxz     :     0.025836
      dyz     :     0.014708
      dx2y2   :     0.033509
      dxy     :     0.041412
      f0      :     0.003507  f :     0.035605
      f+1     :     0.004310
      f-1     :     0.002348
      f+2     :     0.002113
      f-2     :     0.006751
      f+3     :     0.007443
      f-3     :     0.009135

  5 H s       :     0.818959  s :     0.818959
      pz      :     0.023224  p :     0.060475
      px      :     0.014247
      py      :     0.023004

  6 H s       :     0.819200  s :     0.819200
      pz      :     0.013645  p :     0.060695
      px      :     0.027471
      py      :     0.019579

  7 H s       :     0.819034  s :     0.819034
      pz      :     0.015578  p :     0.061085
      px      :     0.024572
      py      :     0.020936

  8 H s       :     0.804287  s :     0.804287
      pz      :     0.022765  p :     0.058416
      px      :     0.013176
      py      :     0.022475

  9 H s       :     0.803772  s :     0.803772
      pz      :     0.015099  p :     0.058338
      px      :     0.023012
      py      :     0.020227

 10 H s       :     0.780185  s :     0.780185
      pz      :     0.024294  p :     0.058313
      px      :     0.012238
      py      :     0.021781

 11 H s       :     0.780390  s :     0.780390
      pz      :     0.028194  p :     0.058457
      px      :     0.012762
      py      :     0.017501

 12 H s       :     0.790918  s :     0.790918
      pz      :     0.015607  p :     0.070740
      px      :     0.032434
      py      :     0.022699


---------------------------------
LOEWDIN BOND ORDERS (THRESH 0.050000)
---------------------------------
B(  0-C ,  1-C ) :   1.2895 B(  0-C ,  2-C ) :   0.1397 B(  0-C ,  5-H ) :   0.9059 
B(  0-C ,  6-H ) :   0.9074 B(  0-C ,  7-H ) :   0.9031 B(  0-C ,  8-H ) :   0.0738 
B(  0-C ,  9-H ) :   0.0750 B(  1-C ,  2-C ) :   1.1815 B(  1-C ,  3-C ) :   0.1619 
B(  1-C ,  5-H ) :   0.0774 B(  1-C ,  6-H ) :   0.0807 B(  1-C ,  7-H ) :   0.0770 
B(  1-C ,  8-H ) :   0.8504 B(  1-C ,  9-H ) :   0.8483 B(  1-C , 10-H ) :   0.0693 
B(  1-C , 11-H ) :   0.0715 B(  2-C ,  3-C ) :   1.2949 B(  2-C ,  4-C ) :   0.2602 
B(  2-C ,  8-H ) :   0.0730 B(  2-C ,  9-H ) :   0.0784 B(  2-C , 10-H ) :   0.8176 
B(  2-C , 11-H ) :   0.8192 B(  3-C ,  4-C ) :   2.9827 B(  3-C , 10-H ) :   0.0949 
B(  3-C , 11-H ) :   0.0971 B(  3-C , 12-H ) :   0.1269 B(  4-C , 12-H ) :   0.9130 


------------------------------------------
LOEWDIN REDUCED ORBITAL POPULATIONS PER MO
-------------------------------------------
THRESHOLD FOR PRINTING IS 0.1%%
                      0         1         2         3         4         5   
                 -12.06089 -12.05565 -12.04238 -12.03853 -12.02672  -1.32488
                   2.00000   2.00000   2.00000   2.00000   2.00000   2.00000
                  --------  --------  --------  --------  --------  --------
 0 C  s               0.0       0.0       0.2       0.0      99.4       2.7
 0 C  pz              0.0       0.0       0.0       0.0       0.0       0.9
 0 C  px              0.0       0.0       0.0       0.0       0.0       0.5
 0 C  py              0.0       0.0       0.0       0.0       0.0       0.5
 0 C  dxz             0.0       0.0       0.0       0.0       0.0       0.1
 0 C  dyz             0.0       0.0       0.1       0.0       0.0       0.1
 1 C  s               0.1       0.0      99.2       0.0       0.2       8.9
 1 C  pz              0.0       0.0       0.0       0.0       0.0       0.6
 1 C  px              0.0       0.0       0.0       0.0       0.0       1.8
 1 C  py              0.0       0.0       0.0       0.0       0.0       0.3
 1 C  dx2y2           0.0       0.0       0.0       0.0       0.0       0.1
 1 C  dxy             0.1       0.0       0.0       0.0       0.0       0.3
 2 C  s              96.8       2.4       0.1       0.0       0.0      17.2
 2 C  pz              0.0       0.0       0.0       0.0       0.0       0.1
 2 C  px              0.0       0.0       0.0       0.0       0.0       0.3
 2 C  py              0.0       0.0       0.0       0.0       0.0       2.3
 2 C  dz2             0.0       0.0       0.0       0.0       0.0       0.3
 2 C  dxz             0.0       0.0       0.0       0.0       0.0       0.1
 2 C  dx2y2           0.0       0.0       0.0       0.0       0.0       0.1
 2 C  dxy             0.0       0.1       0.1       0.0       0.0       0.0
 3 C  s               2.4      94.5       0.0       1.6       0.0      25.8
 3 C  px              0.0       0.0       0.0       0.1       0.0       0.3
 3 C  py              0.0       0.0       0.0       0.1       0.0       0.1
 3 C  dz2             0.0       0.0       0.0       0.1       0.0       0.4
 3 C  dxz             0.0       0.0       0.0       0.1       0.0       0.4
 3 C  dyz             0.0       0.0       0.0       0.0       0.0       0.1
 3 C  dx2y2           0.0       0.0       0.0       0.0       0.0       0.3
 3 C  dxy             0.1       0.0       0.0       0.3       0.0       1.2
 3 C  f-2             0.0       0.0       0.0       0.1       0.0       0.0
 3 C  f-3             0.0       0.0       0.0       0.2       0.0       0.0
 4 C  s               0.0       1.5       0.0      97.1       0.0      12.9
 4 C  pz              0.0       0.0       0.0       0.0       0.0       0.5
 4 C  px              0.0       0.1       0.0       0.0       0.0       4.3
 4 C  py              0.0       0.1       0.0       0.0       0.0       2.3
 4 C  dz2             0.0       0.1       0.0       0.0       0.0       0.1
 4 C  dxz             0.0       0.1       0.0       0.0       0.0       0.1
 4 C  dxy             0.0       0.3       0.0       0.0       0.0       0.5
 4 C  f-3             0.0       0.2       0.0       0.0       0.0       0.0
 5 H  s               0.0       0.0       0.0       0.0       0.0       0.4
 6 H  s               0.0       0.0       0.0       0.0       0.0       0.5
 7 H  s               0.0       0.0       0.0       0.0       0.0       0.5
 8 H  s               0.0       0.0       0.0       0.0       0.0       1.5
 9 H  s               0.0       0.0       0.0       0.0       0.0       1.5
10 H  s               0.0       0.0       0.0       0.0       0.0       3.0
10 H  pz              0.0       0.0       0.0       0.0       0.0       0.1
10 H  py              0.0       0.0       0.0       0.0       0.0       0.2
11 H  s               0.0       0.0       0.0       0.0       0.0       3.1
11 H  pz              0.0       0.0       0.0       0.0       0.0       0.2
12 H  s               0.0       0.0       0.0       0.0       0.0       1.1

                      6         7         8         9        10        11   
                  -1.27615  -1.19790  -1.07943  -0.97966  -0.92927  -0.88034
                   2.00000   2.00000   2.00000   2.00000   2.00000   2.00000
                  --------  --------  --------  --------  --------  --------
 0 C  s               8.6      19.1      10.5       0.1       0.1       0.2
 0 C  pz              1.5       0.3       6.3       0.8       2.2       0.2
 0 C  px              0.3       0.1       0.5       0.0       0.6       5.4
 0 C  py              0.6       0.0       1.6       0.0       0.4       8.0
 0 C  dz2             0.1       0.1       0.4       0.1       0.1       0.0
 0 C  dxz             0.1       0.0       0.2       0.0       0.0       0.2
 0 C  dyz             0.2       0.0       0.5       0.0       0.0       0.1
 1 C  s              14.2       2.6      12.5       0.3       0.2       0.2
 1 C  pz              0.9       2.2       7.3       0.3       0.5      14.9
 1 C  px              0.0       5.8       0.0       0.2       0.1       0.6
 1 C  py              0.0       4.4       0.9       1.4      10.1       1.3
 1 C  dz2             0.0       0.8       0.1       0.0       0.0       0.2
 1 C  dxz             0.0       0.4       0.1       0.0       0.0       0.6
 1 C  dyz             0.1       0.5       0.3       0.0       0.0       0.1
 1 C  dx2y2           0.0       0.2       0.1       0.1       0.4       0.0
 1 C  dxy             0.2       0.2       0.2       0.2       0.4       0.0
 2 C  s               4.6      13.0       0.8       1.2       1.2       0.1
 2 C  pz              0.2       0.1       1.9       0.1       0.7      24.0
 2 C  px              4.7       2.1      10.6       1.5      12.1       5.0
 2 C  py              0.2       0.6       0.5       4.0      19.1       2.5
 2 C  dz2             0.0       0.0       0.1       0.2       0.3       0.2
 2 C  dxz             0.0       0.0       0.2       0.2       0.3       0.0
 2 C  dyz             0.0       0.0       0.2       0.0       0.0       0.2
 2 C  dxy             0.9       0.3       0.9       0.1       0.2       0.0
 3 C  s               8.4       0.3       1.3       3.6       1.8       0.0
 3 C  pz              1.2       1.3       0.3       0.1       1.4       3.4
 3 C  px             11.3       9.1       2.9       1.0      10.1       1.3
 3 C  py              4.4       5.7       3.0       0.3       3.1       0.2
 3 C  dz2             0.0       0.0       0.0       0.2       0.0       0.2
 3 C  dxz             0.0       0.0       0.0       0.1       0.0       0.3
 3 C  dyz             0.0       0.0       0.0       0.1       0.0       0.3
 3 C  dx2y2           0.0       0.0       0.1       0.0       0.1       0.3
 3 C  dxy             0.2       0.2       0.1       0.7       0.0       0.0
 4 C  s              15.9       3.8       1.2      11.5       0.8       0.0
 4 C  pz              0.4       0.1       0.0       2.6       0.5       0.6
 4 C  px              3.4       0.5       0.3      20.9       4.9       0.1
 4 C  py              1.7       0.3       0.2      10.1       3.4       0.1
 4 C  dxz             0.1       0.0       0.0       0.0       0.1       0.0
 4 C  dxy             0.3       0.0       0.0       0.1       0.3       0.0
 4 C  f-3             0.0       0.0       0.0       0.1       0.0       0.0
 5 H  s               1.6       4.6       5.3       0.3       1.2       0.1
 5 H  pz              0.1       0.3       0.1       0.0       0.0       0.0
 5 H  py              0.0       0.2       0.4       0.0       0.0       0.0
 6 H  s               1.6       4.9       4.9       0.1       0.1       5.5
 6 H  pz              0.0       0.0       0.1       0.0       0.0       0.0
 6 H  px              0.1       0.3       0.3       0.0       0.0       0.2
 6 H  py              0.1       0.2       0.1       0.0       0.0       0.0
 7 H  s               1.5       4.6       5.5       0.1       0.0       0.2
 7 H  px              0.1       0.2       0.4       0.0       0.0       0.1
 7 H  py              0.1       0.2       0.1       0.0       0.0       0.0
 8 H  s               2.6       0.6       6.3       0.8       3.2       4.2
 8 H  pz              0.2       0.1       0.2       0.0       0.2       0.0
 8 H  py              0.1       0.0       0.4       0.0       0.0       0.1
 9 H  s               2.8       0.6       6.9       0.1       0.4       0.6
 9 H  px              0.1       0.0       0.4       0.0       0.1       0.0
 9 H  py              0.1       0.1       0.2       0.0       0.0       0.1
10 H  s               0.8       3.4       0.7       2.1       6.9       2.7
10 H  pz              0.1       0.2       0.0       0.1       0.5       0.0
10 H  px              0.0       0.1       0.1       0.0       0.0       0.0
10 H  py              0.1       0.2       0.0       0.0       0.0       0.3
11 H  s               0.8       3.6       0.3       1.6       4.2      13.4
11 H  pz              0.0       0.4       0.1       0.1       0.2       0.3
11 H  px              0.0       0.0       0.1       0.0       0.3       0.0
11 H  py              0.0       0.1       0.0       0.0       0.0       0.2
12 H  s               1.3       0.4       0.5      30.3       5.7       0.0
12 H  pz              0.0       0.0       0.0       0.1       0.0       0.0
12 H  px              0.1       0.0       0.0       1.0       0.1       0.0
12 H  py              0.0       0.0       0.0       0.5       0.1       0.0

                     12        13        14        15        16        17   
                  -0.86509  -0.83341  -0.79616  -0.77794  -0.75724  -0.68212
                   2.00000   2.00000   2.00000   2.00000   2.00000   2.00000
                  --------  --------  --------  --------  --------  --------
 0 C  s               0.0       0.0       0.4       0.1       0.0       0.0
 0 C  pz              6.0      11.5       6.4      14.6       2.2       0.0
 0 C  px             10.7       4.2       9.4      16.4       5.1       0.1
 0 C  py              3.7      12.7      13.1       0.3      12.2       0.3
 0 C  dz2             0.2       0.0       0.4       0.6       0.7       0.1
 0 C  dxz             0.1       0.0       0.2       0.3       1.1       0.0
 0 C  dyz             0.0       0.2       0.1       0.0       2.5       0.0
 0 C  dx2y2           0.1       0.2       0.1       0.2       0.1       0.0
 0 C  dxy             0.1       0.0       0.2       2.6       0.0       0.2
 0 C  f0              0.0       0.0       0.0       0.2       0.0       0.0
 0 C  f+2             0.0       0.0       0.0       0.0       0.2       0.0
 1 C  s               0.1       0.0       0.1       0.2       0.0       0.2
 1 C  pz              0.0       0.1      13.7       8.5       2.5       0.2
 1 C  px             28.6       0.2       1.4       3.8       5.0       2.4
 1 C  py              0.4      14.2       4.5       0.1      13.2       0.5
 1 C  dz2             0.0       0.0       0.4       0.9       0.9       0.0
 1 C  dxz             0.0       0.1       0.7       0.8       0.9       0.0
 1 C  dyz             0.0       0.0       0.6       0.0       3.2       0.0
 1 C  dx2y2           0.1       1.5       0.0       0.2       0.0       0.0
 1 C  dxy             0.3       0.2       0.0       2.2       0.1       0.1
 1 C  f0              0.0       0.1       0.1       0.1       0.0       0.0
 1 C  f+2             0.0       0.0       0.0       0.0       0.2       0.0
 2 C  s               0.1       0.1       0.0       0.4       0.0       0.0
 2 C  pz              6.0       5.4       8.1       0.9       0.8       0.1
 2 C  px              6.8       0.0       3.2       3.0       0.0       0.8
 2 C  py              4.9       9.8       1.9       2.6       1.0       1.5
 2 C  dz2             0.0       0.1       0.0       0.1       0.2       0.2
 2 C  dxz             0.0       0.1       1.4       0.2       0.0       0.1
 2 C  dyz             0.0       0.4       1.2       0.1       0.5       0.3
 2 C  dx2y2           0.4       1.0       0.0       0.1       1.0       1.8
 2 C  dxy             0.5       0.1       0.3       0.0       0.1       0.5
 2 C  f+3             0.0       0.1       0.0       0.0       0.1       0.2
 3 C  s               0.6       0.3       0.0       0.1       0.1       0.0
 3 C  pz              0.3       2.2       2.9       0.5       0.6       0.4
 3 C  px              0.5       0.9       1.5       0.1       0.3      12.0
 3 C  py              4.4       0.3       0.2       2.6       0.1      21.9
 3 C  dxz             0.2       0.1       0.0       0.1       0.0       0.0
 3 C  dyz             0.0       0.0       0.2       0.0       0.0       0.4
 3 C  dx2y2           0.4       0.1       0.1       0.1       0.0       4.0
 3 C  dxy             0.1       0.1       0.0       0.0       0.0       0.4
 3 C  f+3             0.1       0.0       0.0       0.1       0.0       0.1
 4 C  pz              0.2       0.3       1.1       0.2       0.2       0.5
 4 C  px              0.4       0.0       0.3       0.3       0.0      16.7
 4 C  py              0.2       0.4       0.1       0.7       0.1      28.7
 4 C  dyz             0.0       0.0       0.1       0.0       0.0       0.1
 4 C  dx2y2           0.0       0.0       0.1       0.1       0.0       1.2
 4 C  dxy             0.1       0.0       0.0       0.0       0.0       0.1
 4 C  f+3             0.0       0.0       0.0       0.0       0.0       0.3
 5 H  s               0.0      13.0       0.1       2.7      11.5       0.1
 5 H  pz              0.1       0.2       0.1       0.0       0.1       0.0
 5 H  px              0.1       0.0       0.1       0.3       0.0       0.0
 5 H  py              0.0       0.2       0.2       0.1       0.0       0.0
 6 H  s               1.3       0.3       9.1      12.3       0.1       0.2
 6 H  pz              0.0       0.1       0.2       0.1       0.0       0.0
 6 H  px              0.0       0.1       0.1       0.1       0.1       0.0
 6 H  py              0.2       0.1       0.0       0.2       0.1       0.0
 7 H  s               8.1       2.1       0.6       9.9       7.7       0.1
 7 H  pz              0.0       0.3       0.1       0.0       0.2       0.0
 7 H  px              0.1       0.0       0.2       0.0       0.0       0.0
 7 H  py              0.2       0.0       0.1       0.3       0.0       0.0
 8 H  s               0.4       3.1       1.2       2.6      13.2       0.1
 8 H  pz              0.0       0.2       0.1       0.0       0.2       0.0
 8 H  px              0.3       0.0       0.0       0.1       0.0       0.0
 8 H  py              0.0       0.0       0.2       0.1       0.0       0.0
 9 H  s               8.3       3.0       2.0       5.3       8.4       0.3
 9 H  pz              0.1       0.0       0.1       0.0       0.2       0.0
 9 H  px              0.0       0.1       0.2       0.0       0.1       0.0
 9 H  py              0.3       0.0       0.0       0.1       0.0       0.0
10 H  s               2.4       9.0       1.6       0.7       2.0       0.3
10 H  pz              0.0       0.2       0.0       0.0       0.0       0.0
10 H  px              0.2       0.0       0.0       0.1       0.0       0.0
10 H  py              0.0       0.1       0.2       0.0       0.0       0.0
11 H  s               0.2       0.0       8.1       0.0       0.0       1.3
11 H  px              0.1       0.0       0.0       0.0       0.0       0.0
11 H  py              0.1       0.2       0.0       0.0       0.0       0.0
12 H  s               0.1       0.0       0.0       0.0       0.0       0.0
12 H  px              0.0       0.0       0.0       0.0       0.0       0.2
12 H  py              0.0       0.0       0.0       0.0       0.0       0.4

                     18        19        20        21        22        23   
                  -0.67826  -0.16333  -0.15174  -0.04590  -0.00289   0.00806
                   2.00000   0.00000   0.00000   0.00000   0.00000   0.00000
                  --------  --------  --------  --------  --------  --------
 0 C  s               0.0       0.0       0.0       0.1       9.4       0.6
 0 C  pz              0.2       0.1       0.0       0.8       2.9       8.1
 0 C  px              0.0       0.0       0.0       0.2       0.4       0.8
 0 C  py              0.1       0.1       0.0       0.2       0.5       1.6
 0 C  dz2             0.0       0.0       0.0       0.7       0.2       2.2
 0 C  dxz             0.0       0.1       0.0       0.0       1.1       2.6
 0 C  dyz             0.0       0.1       0.0       0.3       0.8       4.6
 0 C  dx2y2           0.0       0.0       0.1       0.0       0.1       0.0
 0 C  dxy             0.0       0.2       0.0       0.0       2.2       1.0
 0 C  f+1             0.0       0.0       0.0       0.0       0.2       0.1
 0 C  f-1             0.0       0.0       0.0       0.0       0.1       0.1
 0 C  f-2             0.0       0.0       0.0       0.0       0.2       0.0
 1 C  s               0.0       1.7       0.0       0.5       1.5      12.6
 1 C  pz              0.2       0.1       0.0       0.0       8.5       1.6
 1 C  px              0.0       2.7       0.0       1.4       2.3       0.7
 1 C  py              0.0       1.1       0.0       1.1       0.0       0.1
 1 C  dz2             0.0       0.2       0.0       0.3       0.2       0.0
 1 C  dxz             0.1       0.2       0.0       0.8       1.2       0.2
 1 C  dyz             0.2       0.0       0.1       0.0       1.4       0.2
 1 C  dx2y2           0.0       0.4       0.0       1.8       0.0       0.1
 1 C  dxy             0.0       0.0       0.0       0.5       8.9       0.4
 1 C  f+1             0.0       0.0       0.0       0.0       0.4       0.1
 1 C  f-1             0.0       0.0       0.0       0.0       0.3       0.2
 1 C  f-2             0.0       0.0       0.0       0.0       0.1       0.1
 1 C  f-3             0.0       0.0       0.0       0.2       0.0       0.2
 2 C  s               0.0       0.2       0.0       9.7       4.6       0.4
 2 C  pz              2.9       0.0       0.0       0.9       1.6       0.5
 2 C  px              0.1       0.5       0.0       5.7       4.0       1.1
 2 C  py              0.2       0.3       0.0       3.2       0.6       5.7
 2 C  dz2             0.4       0.7       1.3       0.7       0.1       3.4
 2 C  dxz             0.7       0.7       2.0       0.7       1.8       0.3
 2 C  dyz             1.8       0.3       4.0       0.3       0.6       0.4
 2 C  dx2y2           0.0       4.5       0.0       0.2       0.2       0.0
 2 C  dxy             0.4       2.4       0.6       3.5       4.2       1.2
 2 C  f+1             0.1       0.0       0.3       0.0       0.2       0.1
 2 C  f-1             0.0       0.0       0.1       0.1       0.2       0.0
 2 C  f+2             0.1       0.1       0.1       0.0       0.0       0.0
 2 C  f-2             0.0       0.0       0.2       0.1       0.0       0.0
 2 C  f+3             0.0       0.5       0.0       0.0       0.0       0.0
 2 C  f-3             0.0       0.2       0.1       0.2       0.0       0.1
 3 C  s               0.0       0.1       0.0       8.4       2.2       2.1
 3 C  pz             30.1       0.0      29.4       0.1       0.1       0.1
 3 C  px              0.9       8.2       2.0       1.4       0.1       0.9
 3 C  py              1.9      19.9       0.5       0.2       0.3       3.0
 3 C  dz2             1.0       0.0       1.4       3.3       0.0       0.0
 3 C  dxz             2.4       0.3       3.5       2.8       0.1       0.1
 3 C  dyz             1.3       0.2       1.6       1.6       0.0       0.0
 3 C  dx2y2           0.0       6.6       0.1       1.4       0.0       0.3
 3 C  dxy             0.4       0.4       0.3      13.0       0.2       0.1
 3 C  f0              0.0       0.0       0.2       0.0       0.0       0.0
 3 C  f+1             0.1       0.0       0.4       0.0       0.0       0.0
 3 C  f-1             0.0       0.0       0.2       0.0       0.0       0.0
 3 C  f+2             0.0       0.2       0.0       0.0       0.0       0.1
 3 C  f-2             0.1       0.0       0.5       0.0       0.0       0.0
 3 C  f+3             0.0       0.9       0.0       0.0       0.0       0.2
 3 C  f-3             0.0       0.1       0.1       0.1       0.0       0.0
 4 C  s               0.0       0.0       0.0       8.5       0.7       1.5
 4 C  pz             42.0       0.1      30.7       0.1       0.1       0.1
 4 C  px              1.2      10.2       2.1       0.6       0.8       1.9
 4 C  py              2.6      21.9       0.5       0.2       0.2       0.8
 4 C  dz2             0.3       0.0       2.0       1.1       0.3       0.4
 4 C  dxz             0.7       0.3       4.6       1.1       0.1       1.1
 4 C  dyz             0.3       0.4       2.5       0.4       0.1       0.1
 4 C  dx2y2           0.0       6.9       0.2       0.8       0.0       2.1
 4 C  dxy             0.1       1.0       0.5       3.7       1.4       1.2
 4 C  f0              0.1       0.0       0.2       0.0       0.0       0.0
 4 C  f+1             0.1       0.0       0.4       0.0       0.0       0.0
 4 C  f-1             0.1       0.0       0.2       0.0       0.0       0.0
 4 C  f+2             0.0       0.2       0.0       0.0       0.0       0.0
 4 C  f-2             0.1       0.0       0.4       0.0       0.0       0.0
 4 C  f+3             0.0       0.9       0.0       0.0       0.0       0.1
 5 H  s               0.0       0.0       0.0       0.1       2.2       2.7
 5 H  pz              0.0       0.0       0.0       0.0       0.6       0.0
 5 H  py              0.0       0.0       0.0       0.1       0.2       1.3
 6 H  s               0.0       0.0       0.0       0.2       7.0       0.8
 6 H  pz              0.0       0.0       0.0       0.0       0.1       0.9
 6 H  px              0.0       0.0       0.0       0.0       1.7       0.1
 6 H  py              0.0       0.0       0.0       0.0       1.0       0.0
 7 H  s               0.0       0.0       0.0       0.2       2.4       1.6
 7 H  pz              0.0       0.0       0.0       0.0       0.3       0.1
 7 H  px              0.0       0.0       0.0       0.1       0.3       0.8
 7 H  py              0.0       0.0       0.0       0.0       0.2       0.1
 8 H  s               0.3       0.1       0.0       1.3       0.6       5.3
 8 H  pz              0.0       0.0       0.0       0.2       0.1       1.2
 8 H  px              0.0       0.0       0.0       0.1       0.3       0.1
 8 H  py              0.0       0.1       0.0       0.1       0.2       0.6
 9 H  s               0.0       0.4       0.0       0.5       2.4       5.1
 9 H  pz              0.0       0.0       0.0       0.0       0.1       0.4
 9 H  px              0.0       0.2       0.0       0.1       0.3       1.0
 9 H  py              0.0       0.0       0.0       0.3       0.3       0.6
10 H  s               3.2       0.4       1.9       2.2       1.5       3.4
10 H  pz              0.0       0.0       0.0       0.1       0.4       0.8
10 H  px              0.0       0.0       0.1       0.4       0.0       0.3
10 H  py              0.0       0.0       0.1       0.7       0.1       0.0
11 H  s               2.2       0.5       1.9       1.8       6.3       0.7
11 H  pz              0.0       0.0       0.0       0.5       0.7       0.4
11 H  px              0.0       0.0       0.0       0.1       1.0       0.0
11 H  py              0.0       0.0       0.1       0.4       0.8       0.2
12 H  s               0.0       0.0       0.0       5.5       0.8       2.7
12 H  pz              0.6       0.0       1.6       0.1       0.0       0.1
12 H  px              0.0       0.5       0.1       1.1       0.1       0.8
12 H  py              0.0       1.1       0.0       0.4       0.1       0.1

                     24        25        26        27        28        29   
                   0.01646   0.03363   0.04109   0.05854   0.06567   0.07515
                   0.00000   0.00000   0.00000   0.00000   0.00000   0.00000
                  --------  --------  --------  --------  --------  --------
 0 C  s               8.7       1.3       0.5       1.8       0.1       0.8
 0 C  pz              1.1       2.3       2.6       1.1       0.3       0.5
 0 C  px              1.5       0.9       5.3       1.9       3.6      11.3
 0 C  py              1.0       6.1       0.0       7.3       2.4       0.1
 0 C  dz2             1.6       2.2       0.1       2.9       0.2       0.1
 0 C  dxz             0.0       1.7       0.0       1.1       2.1       1.5
 0 C  dyz             0.9       2.0       1.0       0.1       2.7       0.7
 0 C  dx2y2           0.4       0.1       0.1       0.7       0.3       0.3
 0 C  dxy             1.0       0.2       2.7       0.0       0.1       7.0
 0 C  f0              0.2       0.0       0.0       0.0       0.0       0.0
 0 C  f-1             0.2       0.1       0.0       0.0       0.0       0.1
 0 C  f+2             0.0       0.2       0.0       0.0       0.0       0.0
 0 C  f-2             0.1       0.0       0.0       0.0       0.0       0.0
 0 C  f-3             0.0       0.0       0.0       0.1       0.0       0.1
 1 C  s               0.0       0.5       4.0       0.0       0.3       1.3
 1 C  pz              2.7       1.6       3.1       0.4       0.9       1.8
 1 C  px              9.7       1.4       1.8       2.8       1.2       4.9
 1 C  py              3.1       7.8       0.5       2.0       0.1       1.9
 1 C  dz2             4.1       3.2       0.3       0.4       1.0       2.1
 1 C  dxz             0.7       1.0       2.5       0.8       0.3       0.2
 1 C  dyz             7.3       3.1       0.1       0.2       0.1       0.2
 1 C  dx2y2           0.0       0.4       0.0       0.1       3.6       0.1
 1 C  dxy             3.2       0.0       0.0       0.7       0.4       2.7
 1 C  f0              0.1       0.0       0.0       0.1       0.0       0.0
 1 C  f+2             0.1       0.2       0.0       0.0       0.0       0.1
 1 C  f-2             0.0       0.0       0.1       0.0       0.0       0.2
 1 C  f+3             0.2       0.1       0.0       0.0       0.0       0.0
 1 C  f-3             0.1       0.1       0.2       0.0       0.0       0.0
 2 C  s               3.6       0.1       1.0       1.7       0.7       0.5
 2 C  pz              0.1       3.8       5.4       4.4       0.3       1.7
 2 C  px              6.4       0.4       0.6       6.2       1.9       0.1
 2 C  py              0.6       3.0       0.5       4.4       8.8       0.8
 2 C  dz2             0.0       0.1       0.7       0.9       4.7       1.0
 2 C  dxz             0.4       0.0       0.9       0.5       1.3       0.1
 2 C  dyz             1.5       1.2       2.3       1.9       1.2       0.0
 2 C  dx2y2           0.6       0.8       0.0       0.0       0.2       0.6
 2 C  dxy             1.6       0.0       0.0       0.9       1.5       0.2
 2 C  f-1             0.0       0.0       0.0       0.1       0.0       0.0
 2 C  f+2             0.1       0.0       0.1       0.1       0.0       0.0
 2 C  f-2             0.1       0.0       0.1       0.0       0.0       0.0
[...]
 1 C  px              0.2       2.0       0.0       0.2       1.3       0.0
 1 C  py              0.3       1.6       0.0       0.0       0.9       0.1
 1 C  dz2             0.5       2.9       0.1       0.0       0.3       0.1
 1 C  dxz             1.3       1.2       0.1       0.2       0.2       0.1
 1 C  dyz             2.0       1.3       0.2       0.0       0.0       0.0
 1 C  dx2y2           0.0       0.8       0.0       0.5       0.2       0.0
 1 C  dxy             3.0       1.3       0.0       0.2       1.2       0.0
 1 C  f0              0.2       0.3       0.3       0.0       0.1       0.0
 1 C  f+1             3.2       0.1       0.0       0.1       0.4       0.0
 1 C  f-1             8.2       0.9       0.0       0.1       0.0       0.0
 1 C  f+2             0.0       0.0       0.2       0.2       0.0       0.0
 1 C  f-2             3.7       0.0       0.2       0.3       0.5       0.1
 1 C  f+3             0.1       0.0       0.1       0.5       0.0       0.1
 1 C  f-3             1.6       0.4       0.0       0.7       1.9       0.1
 2 C  s               2.8      13.4       0.0       0.9       1.0       1.5
 2 C  pz              0.0       0.1       0.1       0.2       0.3       0.1
 2 C  px              0.6       0.1       0.0       2.0       2.8       1.2
 2 C  py              1.8       1.7       0.0       0.2       0.3       0.6
 2 C  dz2             1.8       1.1       1.8       0.3       0.1       0.6
 2 C  dxz             1.0       0.7       2.0       0.7       0.1       0.9
 2 C  dyz             0.0       0.1       4.8       0.1       0.5       0.4
 2 C  dx2y2           1.1       0.8       0.1       3.5       0.7       0.6
 2 C  dxy             0.5       0.6       0.7       0.8       6.4       3.4
 2 C  f0              0.1       0.6       0.5       0.0       0.0       0.0
 2 C  f+1             0.3       0.0       3.7       0.0       0.0       0.0
 2 C  f-1             0.3       3.6       0.1       0.9       0.0       0.1
 2 C  f+2             0.1       0.1       2.8       1.4       0.4       0.0
 2 C  f-2             0.6       2.9       0.7       0.9       0.1       0.2
 2 C  f+3             0.2       0.1       0.3       5.3       1.3       0.2
 2 C  f-3             0.7       8.0       0.5       0.2       1.8       0.3
 3 C  s               0.3       0.6       0.0       2.2      10.3       9.8
 3 C  pz              0.1       0.2       8.8       0.1       0.8       1.4
 3 C  px              1.1       1.5       0.7       0.1       9.5      12.7
 3 C  py              0.1       1.1       0.0      10.5       0.3       4.5
 3 C  dz2             0.1       2.0       0.9       0.5       0.8       0.5
 3 C  dxz             0.0       2.2       2.2       0.1       0.9       0.3
 3 C  dyz             0.0       0.9       1.1       0.6       0.1       0.3
 3 C  dx2y2           0.0       1.7       0.2       0.9       2.2       0.1
 3 C  dxy             0.3       6.7       0.3       3.8       1.3       2.2
 3 C  f0              0.1       0.1       4.7       0.5       1.7       1.7
 3 C  f+1             0.1       0.0      10.4       0.3       1.5       1.2
 3 C  f-1             0.1       0.0       5.4       2.0       0.0       0.4
 3 C  f+2             0.2       0.0       0.5       2.8       3.0       0.6
 3 C  f-2             0.2       0.1      12.2       2.7       1.3       2.4
 3 C  f+3             0.1       0.2       0.0      23.9       3.8       0.0
 3 C  f-3             1.4       0.2       2.3       0.5       6.8       6.2
 4 C  s               0.2       0.9       0.0       2.1       2.0       7.2
 4 C  pz              0.1       0.4       3.5       0.2       0.3       1.0
 4 C  px              0.6       3.7       0.3       3.5       1.7       7.8
 4 C  py              0.4       1.4       0.0       0.6       4.3       3.8
 4 C  dz2             0.0       0.8       3.4       0.2       0.6       0.1
 4 C  dxz             0.0       0.6       8.3       1.7       0.1       0.1
 4 C  dyz             0.0       0.4       4.9       0.1       0.6       0.0
 4 C  dx2y2           0.3       0.1       0.5      12.7       1.9       0.2
 4 C  dxy             0.0       3.3       0.8       0.1       3.8       0.3
 4 C  f0              0.2       0.8       0.6       0.2       1.3       2.4
 4 C  f+1             0.1       0.5       1.5       0.2       0.8       1.7
 4 C  f-1             0.1       0.2       0.5       0.0       0.7       0.8
 4 C  f+2             0.1       0.3       0.2       0.7       0.0       0.6
 4 C  f-2             0.4       1.3       1.2       0.2       2.5       3.9
 4 C  f+3             0.2       0.0       0.0       1.4       2.1       0.6
 4 C  f-3             1.0       3.1       0.4       1.4       3.2       8.6
 5 H  s               0.3       0.1       0.0       0.0       0.0       0.0
 6 H  s               0.6       0.2       0.0       0.1       0.0       0.0
 7 H  s               0.3       0.0       0.0       0.0       0.0       0.0
 8 H  s               1.0       0.1       0.1       0.1       0.0       0.0
 9 H  s               0.2       0.0       0.0       0.5       0.2       0.2
 9 H  py              0.0       0.0       0.0       0.2       0.0       0.0
10 H  s               0.1       0.7       1.2       0.4       0.0       0.0
10 H  pz              0.1       0.0       0.4       0.1       0.0       0.0
10 H  py              0.1       0.0       0.1       0.1       0.0       0.0
11 H  s               0.2       0.8       1.5       0.3       0.0       0.0
11 H  pz              0.1       0.0       0.5       0.1       0.0       0.0
11 H  px              0.0       0.0       0.1       0.0       0.0       0.0
12 H  s               0.7       3.0       0.0       0.3       2.6       5.3
12 H  px              0.1       0.6       0.0       0.1       0.0       0.0
12 H  py              0.0       0.4       0.0       0.0       0.0       0.0

                    198       199       200       201       202   
                  20.73358  20.84660  20.93130  20.96719  21.87986
                   0.00000   0.00000   0.00000   0.00000   0.00000
                  --------  --------  --------  --------  --------
 0 C  s              95.1       3.2       0.2       0.0       0.0
 1 C  s               3.2      95.0       0.1       0.3       0.0
 2 C  s               0.0       0.4       7.0      88.9       1.9
 3 C  s               0.0       0.0       1.4       2.0      96.1
 3 C  px              0.0       0.0       0.4       0.0       0.3
 3 C  py              0.0       0.0       0.2       0.0       0.2
 3 C  dxy             0.0       0.0       0.1       0.1       0.2
 4 C  s               0.2       0.1      89.8       7.4       0.4
 4 C  px              0.0       0.0       0.0       0.0       0.2
 5 H  s               0.2       0.0       0.0       0.0       0.0
 6 H  s               0.2       0.0       0.0       0.0       0.0
 7 H  s               0.2       0.0       0.0       0.0       0.0
 8 H  s               0.0       0.2       0.0       0.0       0.0
 9 H  s               0.0       0.2       0.0       0.0       0.0
10 H  s               0.0       0.0       0.0       0.2       0.0
11 H  s               0.0       0.0       0.0       0.2       0.0
12 H  s               0.0       0.0       0.1       0.0       0.0


                      *****************************
                      * MAYER POPULATION ANALYSIS *
                      *****************************

  NA   - Mulliken gross atomic population
  ZA   - Total nuclear charge
  QA   - Mulliken gross atomic charge
  VA   - Mayer's total valence
  BVA  - Mayer's bonded valence
  FA   - Mayer's free valence

  ATOM       NA         ZA         QA         VA         BVA        FA
  0 C      6.3982     6.0000    -0.3982     3.9161     3.9161     0.0000
  1 C      6.1606     6.0000    -0.1606     3.8772     3.8772     0.0000
  2 C      6.2115     6.0000    -0.2115     3.8898     3.8898    -0.0000
  3 C      6.1313     6.0000    -0.1313     3.7979     3.7979     0.0000
  4 C      6.2404     6.0000    -0.2404     3.7307     3.7307    -0.0000
  5 H      0.8778     1.0000     0.1222     0.9709     0.9709     0.0000
  6 H      0.8688     1.0000     0.1312     0.9685     0.9685     0.0000
  7 H      0.8744     1.0000     0.1256     0.9722     0.9722     0.0000
  8 H      0.8894     1.0000     0.1106     0.9718     0.9718     0.0000
  9 H      0.8830     1.0000     0.1170     0.9693     0.9693     0.0000
 10 H      0.8483     1.0000     0.1517     0.9625     0.9625    -0.0000
 11 H      0.8477     1.0000     0.1523     0.9598     0.9598     0.0000
 12 H      0.7685     1.0000     0.2315     0.9558     0.9558    -0.0000

  Mayer bond orders larger than 0.100000
B(  0-C ,  1-C ) :   0.9841 B(  0-C ,  5-H ) :   0.9758 B(  0-C ,  6-H ) :   0.9778 
B(  0-C ,  7-H ) :   0.9757 B(  1-C ,  2-C ) :   0.9649 B(  1-C ,  8-H ) :   0.9728 
B(  1-C ,  9-H ) :   0.9725 B(  2-C ,  3-C ) :   1.0647 B(  2-C , 10-H ) :   0.9771 
B(  2-C , 11-H ) :   0.9551 B(  3-C ,  4-C ) :   2.7679 B(  4-C , 12-H ) :   0.9682 


-------
TIMINGS
-------

Total SCF time: 0 days 0 hours 0 min 52 sec 

Total time                  ....      52.985 sec
Sum of individual times     ....      51.286 sec  ( 96.8%)

SCF preparation             ....       0.237 sec  (  0.4%)
Fock matrix formation       ....      50.053 sec  ( 94.5%)
  Startup                   ....       0.047 sec  (  0.1% of F)
  Split-RI-J                ....       1.695 sec  (  3.4% of F)
  Chain of spheres X        ....      39.490 sec  ( 78.9% of F)
  XC integration            ....       7.107 sec  ( 14.2% of F)
    Basis function eval.    ....       1.610 sec  ( 22.7% of XC)
    Density eval.           ....       1.239 sec  ( 17.4% of XC)
    XC-Functional eval.     ....       1.664 sec  ( 23.4% of XC)
    XC-Potential eval.      ....       1.920 sec  ( 27.0% of XC)
  CPCM terms                ....       2.384 sec  (  4.8% of F)
Diagonalization             ....       0.000 sec  (  0.0%)
Density matrix formation    ....       0.157 sec  (  0.3%)
Total Energy calculation    ....       0.046 sec  (  0.1%)
Population analysis         ....       0.100 sec  (  0.2%)
Orbital Transformation      ....       0.053 sec  (  0.1%)
Orbital Orthonormalization  ....       0.000 sec  (  0.0%)
DIIS solution               ....       0.424 sec  (  0.8%)
  MO trafo                  ....       0.000 sec  (  0.0 % of DIIS)
  Orb grad                  ....       0.000 sec  (  0.0 % of DIIS)
  Energy W gradient         ....       0.000 sec  (  0.0 % of DIIS)
  DIIS error                ....       0.005 sec  (  1.1 % of DIIS)
  DIIS work                 ....       0.381 sec  ( 90.0 % of DIIS)
  Form Q                    ....       0.000 sec  (  0.0 % of DIIS)
  Form QpQm                 ....       0.000 sec  (  0.0 % of DIIS)
  Exp/Cayley                ....       0.000 sec  (  0.0 % of DIIS)
  Orb update                ....       0.000 sec  (  0.0 % of DIIS)
  Wake-sleep                ....       0.011 sec  (  2.6 % of DIIS)
SOSCF solution              ....       0.109 sec  (  0.2%)
  MO trafo                  ....       0.049 sec  ( 45.2 % of SOSCF)
  Orb grad                  ....       0.002 sec  (  1.4 % of SOSCF)
  Rot update                ....       0.030 sec  ( 27.0 % of SOSCF)
  Step                      ....       0.029 sec  ( 26.3 % of SOSCF)
Grid generation             ....       0.108 sec  (  0.2%)
Finished LeanSCF after  53.1 sec

Maximum memory used throughout the entire LEANSCF-calculation: 23.1 MB
------------------   -----------------
gCP correction             0.007700065
------------------   -----------------

-------------------------   --------------------
FINAL SINGLE POINT ENERGY      -195.285651708411
-------------------------   --------------------


------------------------------------------------------------------------------
                              ORCA PROPERTY CALCULATIONS
------------------------------------------------------------------------------

GBWName                                 ... sp_solv.gbw
Number of atoms                         ...     13
Number of basis functions               ...    203
Max core memory                         ...   1024 MB

Electric properties:
Dipole moment                           ... YES
Quadrupole moment                       ...  NO
Static polarizability (Dipole/Dipole)   ...  NO
Static polarizability (Dipole/Quad.)    ...  NO
Static polarizability (Quad./Quad.)     ...  NO
Static polarizability (Velocity)        ...  NO

Atomic electric properties:
Dipole moment                           ...  NO
Quadrupole moment                       ...  NO
Static polarizability                   ...  NO

Choice of electric origin               ... Center of mass
Position of electric origin             ...     0.012212    -0.001129    -0.001557

General magnetic properties:
Magnetizability                         ...  NO

EPR properties:
g-Tensor (aka g-matrix)                 ...  NO
Zero-Field splitting spin-orbit         ...  NO
Zero-field splitting spin-spin          ...  NO
Hyperfine couplings                     ...  NO (   0 nuclei)
Quadrupole couplings                    ...  NO (   0 nuclei)
Contact density                         ...  NO (   0 nuclei)

NMR properties:
Chemical shifts                         ...  NO (   0 nuclei)
Spin-rotation constants                 ...  NO (   0 nuclei)
Spin-spin couplings                     ...  NO (   0 nuclei,    0 pairs)

Choice of magnetic origin               ... GIAO
Position of magnetic origin             ...     0.000000     0.000000     0.000000

Properties with geometric perturbations:
SCF Hessian                             ...  NO
IR spectrum                             ...  NO
VCD spectrum                            ...  NO
X-ray spectroscopy properties:
SCF XES/XAS/RIXS spectra                ...  NO


-------------
DIPOLE MOMENT
-------------

Method             : SCF
Type of density    : Electron Density
Multiplicity       :   1
Irrep              :   0
Energy             :  -195.2933517737108389 Eh
Relativity type    : 
Basis              : AO
                                X                 Y                 Z
Electronic contribution:      4.653138141      -0.472165585       0.299158902
Nuclear contribution   :     -5.066075984       0.262334309      -0.151837318
                        -----------------------------------------
Total Dipole Moment    :     -0.412937843      -0.209831276       0.147321584
                        -----------------------------------------
Magnitude (a.u.)       :      0.486056042
Magnitude (Debye)      :      1.235456274



--------------------
Rotational spectrum 
--------------------
 
Rotational constants in cm-1:             0.333236             0.105345             0.087899 
Rotational constants in MHz :          9990.155302          3158.159731          2635.153875 

Dipole components along the rotational axes: 
x,y,z [a.u.] :    -0.417928    -0.246868    -0.025366 
x,y,z [Debye]:    -1.062288    -0.627487    -0.064475 

 

Dipole moment calculation done in   0.0 sec 

Maximum memory used throughout the entire PROP-calculation: 13.4 MB

--------------------------------
SUGGESTED CITATIONS FOR THIS RUN
--------------------------------

Below you find a list of papers that are relevant to this ORCA run
We neither can nor want to force you to cite these papers, but we appreciate if you do
You receive ORCA, which is the product of decades of hard work by many enthusiastic individuals, for free
The only thing we kindly ask in return is that you cite our papers,
We deeply appreciate it, if you show your appreciation for ORCA by not just citing the generic ORCA reference.

Please note that relegating all ORCA citations to the supporting information does *not* help us.
SI sections are not indexed - citations you put there will not count into any citation statistics
But we need these citations in order to attract the funding resources that allow us to do what we are doing

Therefore, if you are a happy ORCA user, please consider citing a few of the papers listed below in the main body of your paper

In addition to the list printed below, the program has created the file sp_solv.bibtex that contains the list in bibtex format
You can import this file easily into all common literature databanks and citation aid programs


List of essential papers. We consider these as the minimum necessary citations

  1. Neese,F.
     Software update: the ORCA program system, version 5.0
     WIRES Comput. Molec. Sci., 2022 12(1)e1606
     doi.org/10.1002/wcms.1606

List of papers to cite with high priority. The work reported in these papers was absolutely
necessary for this run to complete.
Our perspective: the developers of density functionals and basis sets usually get cited in chemistry papers
Good! But without the algorithms to do something with them, the functionals or basis sets would not do anything.
Hence, in our opinion, the algorithm design and method developments papers are equally worthy of getting cited

  1. Neese,F.
     An improvement of the resolution of the identity approximation for the formation of the Coulomb matrix
     J. Comp. Chem., 2003 24(14)1740-1747
     doi.org/10.1002/jcc.10318
  2. Neese,F.; Wennmohs,F.; Hansen,A.; Becker,U.
     Efficient, approximate and parallel Hartree-Fock and hybrid DFT calculations. A 'chain-of-spheres' algorithm for the Hartree-Fock exchange
     Chem. Phys., 2009 356(1-3)98-109
     doi.org/10.1016/j.chemphys.2008.10.036
  3. Garcia-Rates,M.; Neese,F.
     Effect of the Solute Cavity on the Solvation Energy and its Derivatives within the Framework of the Gaussian Charge Scheme
     J. Comput. Chem., 2020 41 922-939
     doi.org/10.1002/jcc.26139
  4. Helmich-Paris,B.; de Souza,B.; Neese,F.; Izsák,R.
     An improved chain of spheres for exchange algorithm
     J. Chem. Phys., 2021 155 104109
     doi.org/doi: 10.1063/5.0058766.
  5. Neese,F.
     The SHARK Integral Generation and Digestion System
     J. Comp. Chem., 2022  1-16
     doi.org/10.1002/jcc.26942

List of suggested additional citations. These are papers that are important in the 'surrounding' of 
of this run, or papers that preceded the highly important papers. If you like your results we are grateful for a citation.

  1. Izsak,R.; Neese,F.
     An overlap fitted chain of spheres exchange method
     J. Chem. Phys., 2011 135 144105
     doi.org/10.1063/1.3646921
  2. Izsak,R.; Hansen,A.; Neese,F.
     The resolution of identity and chain of spheres approximations for the LPNO-CCSD singles Fock term
     Molec. Phys., 2012 110 2413-2417
     doi.org/10.1080/00268976.2012.687466
  3. Neese,F.
     The ORCA program system
     WIRES Comput. Molec. Sci., 2012 2(1)73-78
     doi.org/10.1002/wcms.81
  4. Izsak,R.; Neese,F.; Klopper,W.
     Robust fitting techniques in the chain of spheres approximation to the Fock exchange: The role of the complementary space
     J. Chem. Phys., 2013 139 
     doi.org/10.1063/1.4819264
  5. Neese,F.
     Software update: the ORCA program system, version 4.0
     WIRES Comput. Molec. Sci., 2018 8(1)1-6
     doi.org/10.1002/wcms.1327
  6. Neese,F.; Wennmohs,F.; Becker,U.; Riplinger,C.
     The ORCA quantum chemistry program package
     J. Chem. Phys., 2020 152 Art. No. L224108
     doi.org/10.1063/5.0004608

List of optional additional citations

  1. Neese,F.
     Approximate second-order SCF convergence for spin unrestricted wavefunctions
     Chem. Phys. Lett., 2000 325(1-3)93-98
     doi.org/10.1016/s0009-2614(00)00662-x

Timings for individual modules:

Sum of individual times          ...       54.829 sec (=   0.914 min)
Startup calculation              ...        1.314 sec (=   0.022 min)   2.4 %
SCF iterations                   ...       53.422 sec (=   0.890 min)  97.4 %
Property calculations            ...        0.093 sec (=   0.002 min)   0.2 %
                             ****ORCA TERMINATED NORMALLY****
TOTAL RUN TIME: 0 days 0 hours 0 minutes 55 seconds 493 msec
