      -----------------------------------------------------------      
     |                   =====================                   |     
     |                           x T B                           |     
     |                   =====================                   |     
     |                         S. Grimme                         |     
     |          Mulliken Center for Theoretical Chemistry        |     
     |                    University of Bonn                     |     
      -----------------------------------------------------------      

   * xtb version 6.7.1 (edcfbbe) compiled by 'albert@albert-system' on 2024-07-22

   xtb is free software: you can redistribute it and/or modify it under
   the terms of the GNU Lesser General Public License as published by
   the Free Software Foundation, either version 3 of the License, or
   (at your option) any later version.
   
   xtb is distributed in the hope that it will be useful,
   but WITHOUT ANY WARRANTY; without even the implied warranty of
   MERCHANTABILITY or FITNESS FOR A PARTICULAR PURPOSE.  See the
   GNU Lesser General Public License for more details.
   
   Cite this work as:
   * C. Bannwarth, E. Caldeweyher, S. Ehlert, A. Hansen, P. Pracht,
     J. Seibert, S. Spicher, S. Grimme, WIREs Comput. Mol. Sci., 2020, 11,
     e01493. DOI: 10.1002/wcms.1493
   
   for GFN2-xTB:
   * C. Bannwarth, S. Ehlert and S. Grimme., J. Chem. Theory Comput., 2019,
     15, 1652-1671. DOI: 10.1021/acs.jctc.8b01176
   for GFN1-xTB:
   * S. Grimme, C. Bannwarth, P. Shushkov, J. Chem. Theory Comput., 2017,
     13, 1989-2009. DOI: 10.1021/acs.jctc.7b00118
   for GFN0-xTB:
   * P. Pracht, E. Caldeweyher, S. Ehlert, S. Grimme, ChemRxiv, 2019, preprint.
     DOI: 10.26434/chemrxiv.8326202.v1
   for GFN-FF:
   * S. Spicher and S. Grimme, Angew. Chem. Int. Ed., 2020, 59, 15665-15673.
     DOI: 10.1002/anie.202004239
   
   for ALPB and GBSA implicit solvation:
   * S. Ehlert, M. Stahn, S. Spicher, S. Grimme, J. Chem. Theory Comput.,
     2021, 17, 4250-4261. DOI: 10.1021/acs.jctc.1c00471
   
   for ddCOSMO and CPCM-X implicit solvation:
   * M. Stahn, S. Ehlert, S. Grimme, J. Phys. Chem. A,
     2023, XX, XXXX-XXXX. DOI: 10.1021/acs.jpca.3c04382
   
   for DFT-D4:
   * E. Caldeweyher, C. Bannwarth and S. Grimme, J. Chem. Phys., 2017,
     147, 034112. DOI: 10.1063/1.4993215
   * E. Caldeweyher, S. Ehlert, A. Hansen, H. Neugebauer, S. Spicher,
     C. Bannwarth and S. Grimme, J. Chem. Phys., 2019, 150, 154122.
     DOI: 10.1063/1.5090222
   * E. Caldeweyher, J.-M. Mewes, S. Ehlert and S. Grimme, Phys. Chem. Chem. Phys.
     2020, 22, 8499-8512. DOI: 10.1039/D0CP00502A
   
   for sTDA-xTB:
   * S. Grimme and C. Bannwarth, J. Chem. Phys., 2016, 145, 054103.
     DOI: 10.1063/1.4959605
   
   in the mass-spec context:
   * V. Asgeirsson, C. Bauer and S. Grimme, Chem. Sci., 2017, 8, 4879.
     DOI: 10.1039/c7sc00601b
   * J. Koopman and S. Grimme, ACS Omega 2019, 4, 12, 15120-15133.
     DOI: 10.1021/acsomega.9b02011
   
   for metadynamics refer to:
   * S. Grimme, J. Chem. Theory Comput., 2019, 155, 2847-2862
     DOI: 10.1021/acs.jctc.9b00143
   
   for SPH calculations refer to:
   * S. Spicher and S. Grimme, J. Chem. Theory Comput., 2021, 17, 1701-1714
     DOI: 10.1021/acs.jctc.0c01306
   
   for ONIOM refer to:
   * C. Plett, A. Katbashev, S. Ehlert, S. Grimme, M. Bursch,
     Phys. Chem. Chem. Phys., 2023, 25, 17860-17868. DOI: 10.1039/D3CP02178E
   
   for DIPRO refer to:
   * J. Kohn, N. Gildemeister, S. Grimme, D. Fazzi, A. Hansen,
     J. Chem. Phys., 2023, just accepted.
   
   for PTB refer to:
   * S. Grimme, M. Mueller, A. Hansen, J. Chem. Phys., 2023, 158, 124111.
     DOI: 10.1063/5.0137838
   
   with help from (in alphabetical order)
   P. Atkinson, C. Bannwarth, F. Bohle, G. Brandenburg, E. Caldeweyher
   M. Checinski, S. Dohm, S. Ehlert, S. Ehrlich, I. Gerasimov, C. Hölzer
   A. Katbashev, J. Kohn, J. Koopman, C. Lavigne, S. Lehtola, F. März, M. Müller,
   F. Musil, H. Neugebauer, J. Pisarek, C. Plett, P. Pracht, F. Pultar,
   J. Seibert, P. Shushkov, S. Spicher, M. Stahn, M. Steiner, T. Strunk,
   J. Stückrath, T. Rose, and J. Unsleber
   
 * started run on 2025/04/04 at 20:03:49.625     
   ID    Z sym.   atoms
    1    6 C      1-6
    2    8 O      7, 9, 10
    3    7 N      8
    4    1 H      11-15

           -------------------------------------------------
          |                Calculation Setup                |
           -------------------------------------------------

          program call               : /srv/scratch/z5358697/.xtb/bin/xtb solv.coord --gfn2 --sp --chrg 0 --norestart --parallel 1 --alpb water reference -I xtb_sp-xcontrol-inp
          hostname                   : k142
          coordinate file            : solv.coord
          omp threads                :                     1


           -------------------------------------------------
          |                 G F N 2 - x T B                 |
           -------------------------------------------------

        Reference                      10.1021/acs.jctc.8b01176
      * Hamiltonian:
        H0-scaling (s, p, d)           1.850000    2.230000    2.230000
        zeta-weighting                 0.500000
      * Dispersion:
        s8                             2.700000
        a1                             0.520000
        a2                             5.000000
        s9                             5.000000
      * Repulsion:
        kExp                           1.500000    1.000000
        rExp                           1.000000
      * Coulomb:
        alpha                          2.000000
        third order                    shell-resolved
        anisotropic                    true
        a3                             3.000000
        a5                             4.000000
        cn-shift                       1.200000
        cn-exp                         4.000000
        max-rad                        5.000000

      * Solvation model:               ALPB
        Solvent                        water
        Parameter file                 internal GFN2-xTB/ALPB
        Dielectric constant                8.0200E+01
        Reference state                gsolv=reference [X=1]
        Free energy shift                  2.8945E-03 Eh       1.8164E+00 kcal/mol
        Temperature                        2.9815E+02 K
        Density                            1.0000E+00 kg/L
        Solvent mass                       1.8000E+01 g/mol
        Interaction kernel             P16
        Born radius scaling (c1)           1.4744E+00
        Born radii integrator          GBOBC
        Born offset                        0.0000E+00 a0       0.0000E+00 AA
        H-bond correction              true
        Ion screening                  false
        Surface tension                    1.0000E-05 Eh       1.5569E+01 dyn/cm
        Grid points                               974 per atom

          ...................................................
          :                      SETUP                      :
          :.................................................:
          :  # basis functions                  45          :
          :  # atomic orbitals                  45          :
          :  # shells                           25          :
          :  # electrons                        52          :
          :  max. iterations                   250          :
          :  Hamiltonian                  GFN2-xTB          :
          :  restarted?                      false          :
          :  GBSA solvation                   true          :
          :  PC potential                    false          :
          :  electronic temp.          300.0000000     K    :
          :  accuracy                    1.0000000          :
          :  -> integral cutoff          0.2500000E+02      :
          :  -> integral neglect         0.1000000E-07      :
          :  -> SCF convergence          0.1000000E-05 Eh   :
          :  -> wf. convergence          0.1000000E-03 e    :
          :  Broyden damping             0.4000000          :
          :  net charge                          0          :
          :  unpaired electrons                  0          :
          ...................................................

 iter      E             dE          RMSdq      gap      omega  full diag
   1    -30.6647956 -0.306648E+02  0.627E+00    2.88       0.0  T
   2    -30.7717024 -0.106907E+00  0.314E+00    2.28       1.0  T
   3    -30.7737352 -0.203286E-02  0.149E+00    2.16       1.0  T
   4    -30.7745732 -0.837960E-03  0.762E-01    2.10       1.0  T
   5    -30.7772294 -0.265620E-02  0.911E-02    2.09       1.0  T
   6    -30.7772333 -0.385900E-05  0.490E-02    2.09       1.0  T
   7    -30.7772402 -0.698485E-05  0.129E-02    2.10       2.0  T
   8    -30.7772409 -0.624551E-06  0.532E-03    2.10       4.9  T
   9    -30.7772410 -0.945953E-07  0.305E-03    2.10       8.5  T
  10    -30.7772410 -0.343456E-07  0.105E-03    2.10      24.6  T
  11    -30.7772410 -0.198952E-08  0.417E-04    2.10      61.9  T
  12    -30.7772410 -0.116163E-08  0.222E-04    2.10     116.3  T

   *** convergence criteria satisfied after 12 iterations ***

         #    Occupation            Energy/Eh            Energy/eV
      -------------------------------------------------------------
         1        2.0000           -0.7797795             -21.2189
       ...           ...                  ...                  ...
        20        2.0000           -0.4831417             -13.1470
        21        2.0000           -0.4651604             -12.6577
        22        2.0000           -0.4624265             -12.5833
        23        2.0000           -0.4554070             -12.3923
        24        2.0000           -0.4437143             -12.0741
        25        2.0000           -0.4373412             -11.9007
        26        2.0000           -0.4076649             -11.0931 (HOMO)
        27                         -0.3305386              -8.9944 (LUMO)
        28                         -0.2423073              -6.5935
        29                         -0.2293570              -6.2411
        30                         -0.1110971              -3.0231
        31                         -0.0030996              -0.0843
       ...                                ...                  ...
        45                          0.6388651              17.3844
      -------------------------------------------------------------
                  HL-Gap            0.0771263 Eh            2.0987 eV
             Fermi-level           -0.3691018 Eh          -10.0438 eV

 SCC (total)                   0 d,  0 h,  0 min,  0.010 sec
 SCC setup                      ...        0 min,  0.001 sec (  6.498%)
 Dispersion                     ...        0 min,  0.000 sec (  0.641%)
 classical contributions        ...        0 min,  0.000 sec (  0.125%)
 integral evaluation            ...        0 min,  0.001 sec ( 12.891%)
 iterations                     ...        0 min,  0.005 sec ( 46.912%)
 molecular gradient             ...        0 min,  0.003 sec ( 31.840%)
 printout                       ...        0 min,  0.000 sec (  0.990%)

         :::::::::::::::::::::::::::::::::::::::::::::::::::::
         ::                     SUMMARY                     ::
         :::::::::::::::::::::::::::::::::::::::::::::::::::::
         :: total energy             -30.427881236752 Eh    ::
         :: total w/o Gsasa/hb       -30.426123347452 Eh    ::
         :: gradient norm              0.000122972338 Eh/a0 ::
         :: HOMO-LUMO gap              2.098712470699 eV    ::
         ::.................................................::
         :: SCC energy               -30.777213825395 Eh    ::
         :: -> isotropic ES            0.090351437167 Eh    ::
         :: -> anisotropic ES          0.004284450868 Eh    ::
         :: -> anisotropic XC          0.002948003092 Eh    ::
         :: -> dispersion             -0.012251706525 Eh    ::
         :: -> Gsolv                  -0.018572654886 Eh    ::
         ::    -> Gelec               -0.016814765587 Eh    ::
         ::    -> Gsasa                0.004062018252 Eh    ::
         ::    -> Ghb                 -0.008714456711 Eh    ::
         ::    -> Gshift               0.002894549160 Eh    ::
         :: repulsion energy           0.349332588643 Eh    ::
         :: add. restraining           0.000000000000 Eh    ::
         :: total charge              -0.000000000000 e     ::
         :::::::::::::::::::::::::::::::::::::::::::::::::::::

           -------------------------------------------------
          |                Property Printout                |
           -------------------------------------------------

    * Orbital Energies and Occupations

         #    Occupation            Energy/Eh            Energy/eV
      -------------------------------------------------------------
         1        2.0000           -0.7797795             -21.2189
       ...           ...                  ...                  ...
        14        2.0000           -0.5426414             -14.7660
        15        2.0000           -0.5384253             -14.6513
        16        2.0000           -0.5325638             -14.4918
        17        2.0000           -0.5046916             -13.7334
        18        2.0000           -0.4984669             -13.5640
        19        2.0000           -0.4894099             -13.3175
        20        2.0000           -0.4831417             -13.1470
        21        2.0000           -0.4651604             -12.6577
        22        2.0000           -0.4624265             -12.5833
        23        2.0000           -0.4554070             -12.3923
        24        2.0000           -0.4437143             -12.0741
        25        2.0000           -0.4373412             -11.9007
        26        2.0000           -0.4076649             -11.0931 (HOMO)
        27                         -0.3305386              -8.9944 (LUMO)
        28                         -0.2423073              -6.5935
        29                         -0.2293570              -6.2411
        30                         -0.1110971              -3.0231
        31                         -0.0030996              -0.0843
        32                          0.0690636               1.8793
        33                          0.1169610               3.1827
        34                          0.1497745               4.0756
        35                          0.1699739               4.6252
        36                          0.1741173               4.7380
        37                          0.1837835               5.0010
       ...                                ...                  ...
        45                          0.6388651              17.3844
      -------------------------------------------------------------
                  HL-Gap            0.0771263 Eh            2.0987 eV
             Fermi-level           -0.3691018 Eh          -10.0438 eV

     #   Z          covCN         q      C6AA      α(0)
     1   6 C        2.919    -0.026    28.658     8.779
     2   6 C        2.917    -0.032    28.789     8.799
     3   6 C        2.916     0.011    27.780     8.643
     4   6 C        2.917    -0.065    29.612     8.924
     5   6 C        2.844     0.166    24.413     8.098
     6   6 C        2.919    -0.043    29.068     8.841
     7   8 O        1.660    -0.424    21.314     6.232
     8   7 N        2.762     0.564    13.335     5.424
     9   8 O        0.930    -0.446    22.578     6.372
    10   8 O        0.930    -0.447    22.599     6.375
    11   1 H        0.926     0.086     1.917     2.165
    12   1 H        0.926     0.086     1.921     2.168
    13   1 H        0.926     0.087     1.907     2.159
    14   1 H        0.926     0.093     1.853     2.129
    15   1 H        0.804     0.390     0.504     1.115

 Mol. C6AA /au·bohr⁶  :       3090.268520
 Mol. C8AA /au·bohr⁸  :      74131.811393
 Mol. α(0) /au        :         86.222125


Wiberg/Mayer (AO) data.
largest (>0.10) Wiberg bond orders for each atom

 ---------------------------------------------------------------------------
     #   Z sym  total        # sym  WBO       # sym  WBO       # sym  WBO
 ---------------------------------------------------------------------------
     1   6 C    3.986 --     6 C    1.455     2 C    1.439    11 H    0.964
     2   6 C    3.985 --     1 C    1.439     3 C    1.359    12 H    0.961
     3   6 C    3.949 --     2 C    1.359     4 C    1.359     8 N    0.998
     4   6 C    3.984 --     5 C    1.383     3 C    1.359    13 H    0.956
     5   6 C    3.950 --     4 C    1.383     6 C    1.329     7 O    1.118
     6   6 C    3.985 --     1 C    1.455     5 C    1.329    14 H    0.963
     7   8 O    2.122 --     5 C    1.118    15 H    0.827
     8   7 N    3.904 --     9 O    1.426    10 O    1.422     3 C    0.998
     9   8 O    1.889 --     8 N    1.426    10 O    0.323
    10   8 O    1.886 --     8 N    1.422     9 O    0.323
    11   1 H    0.992 --     1 C    0.964
    12   1 H    0.993 --     2 C    0.961
    13   1 H    0.992 --     4 C    0.956
    14   1 H    0.991 --     6 C    0.963
    15   1 H    0.848 --     7 O    0.827
 ---------------------------------------------------------------------------

Topologies differ in total number of bonds
Writing topology from bond orders to xtbtopo.mol

molecular dipole:
                 x           y           z       tot (Debye)
 q only:       -2.628      -0.305       0.000
   full:       -2.433      -0.164       0.000       6.199
molecular quadrupole (traceless):
                xx          xy          yy          xz          yz          zz
 q only:      -13.242      -4.109      10.712      -0.002       0.004       2.530
  q+dip:      -14.518      -3.621      12.439      -0.002       0.006       2.079
   full:      -16.007      -3.991      11.180      -0.002       0.006       4.827


           -------------------------------------------------
          | TOTAL ENERGY              -30.427881236752 Eh   |
          | GRADIENT NORM               0.000122972338 Eh/α |
          | HOMO-LUMO GAP               2.098712470699 eV   |
           -------------------------------------------------

------------------------------------------------------------------------
 * finished run on 2025/04/04 at 20:03:49.674     
------------------------------------------------------------------------
 total:
 * wall-time:     0 d,  0 h,  0 min,  0.048 sec
 *  cpu-time:     0 d,  0 h,  0 min,  0.017 sec
 * ratio c/w:     0.358 speedup
 SCF:
 * wall-time:     0 d,  0 h,  0 min,  0.010 sec
 *  cpu-time:     0 d,  0 h,  0 min,  0.010 sec
 * ratio c/w:     0.991 speedup

