
                                 *****************
                                 * O   R   C   A *
                                 *****************

                                            #,                                       
                                            ###                                      
                                            ####                                     
                                            #####                                    
                                            ######                                   
                                           ########,                                 
                                     ,,################,,,,,                         
                               ,,#################################,,                 
                          ,,##########################################,,             
                       ,#########################################, ''#####,          
                    ,#############################################,,   '####,        
                  ,##################################################,,,,####,       
                ,###########''''           ''''###############################       
              ,#####''   ,,,,##########,,,,          '''####'''          '####       
            ,##' ,,,,###########################,,,                        '##       
           ' ,,###''''                  '''############,,,                           
         ,,##''                                '''############,,,,        ,,,,,,###''
      ,#''                                            '''#######################'''  
     '                                                          ''''####''''         
             ,#######,   #######,   ,#######,      ##                                
            ,#'     '#,  ##    ##  ,#'     '#,    #''#        ,####,   ,####,        
            ##       ##  ##   ,#'  ##            #'  '#       #'       #'  '#        
            ##       ##  #######   ##           ,######,      #####,   #    #        
            '#,     ,#'  ##    ##  '#,     ,#' ,#      #,     #,   #   #,  ,#        
             '#######'   ##     ##  '#######'  #'      '#     '####' # '####'        



                #########################################################
                #                        -***-                          #
                #          Department of theory and spectroscopy        #
                #                                                       #
                #                      Frank Neese                      #
                #                                                       #
                #     Directorship, Architecture, Infrastructure        #
                #                    SHARK, DRIVERS                     #
                #        Core code/Algorithms in most modules           #
                #                                                       #
                #        Max Planck Institute fuer Kohlenforschung      #
                #                Kaiser Wilhelm Platz 1                 #
                #                 D-45470 Muelheim/Ruhr                 #
                #                      Germany                          #
                #                                                       #
                #                  All rights reserved                  #
                #                        -***-                          #
                #########################################################


                         Program Version 6.0.0  -   RELEASE  -


 With contributions from (in alphabetic order):
   Daniel Aravena         : Magnetic Suceptibility
   Michael Atanasov       : Ab Initio Ligand Field Theory (pilot matlab implementation)
   Alexander A. Auer      : GIAO ZORA, VPT2 properties, NMR spectrum
   Ute Becker             : All parallelization in ORCA, NUMFREQ, NUMCALC
   Giovanni Bistoni       : ED, misc. LED, open-shell LED, HFLD
   Martin Brehm           : Molecular dynamics
   Dmytro Bykov           : pre 5.0 version of the SCF Hessian
   Marcos Casanova-Páez   : Triplet and SCS-CIS(D). UHF-(DLPNO)-IP/EA/STEOM-CCSD. UHF-CVS-IP/STEOM-CCSD
   Vijay G. Chilkuri      : MRCI spin determinant printing, contributions to CSF-ICE
   Pauline Colinet        : FMM embedding
   Dipayan Datta          : RHF DLPNO-CCSD density
   Achintya Kumar Dutta   : EOM-CC, STEOM-CC
   Nicolas Foglia         : Exact transition moments, OPA infrastructure, MCD improvements
   Dmitry Ganyushin       : Spin-Orbit,Spin-Spin,Magnetic field MRCI
   Miquel Garcia          : C-PCM and meta-GGA Hessian, CCSD/C-PCM, Gaussian charge scheme
   Tiago L. C. Gouveia    : GS-ROHF, GS-ROCIS
   Yang Guo               : DLPNO-NEVPT2, F12-NEVPT2, CIM, IAO-localization
   Andreas Hansen         : Spin unrestricted coupled pair/coupled cluster methods
   Ingolf Harden          : AUTO-CI MPn and infrastructure 
   Benjamin Helmich-Paris : MC-RPA, TRAH-(SCF,CASSCF), AVAS, COSX integrals, SCF dyn. polar.
   Lee Huntington         : MR-EOM, pCC
   Robert Izsak           : Overlap fitted RIJCOSX, COSX-SCS-MP3, EOM
   Riya Kayal             : Wick's Theorem for AUTO-CI, AUTO-CI UHF-CCSDT
   Emily Kempfer          : AUTO-CI, RHF CISDT and CCSDT
   Christian Kollmar      : KDIIS, OOCD, Brueckner-CCSD(T), CCSD density, CASPT2, CASPT2-K, improved NEVPT2
   Axel Koslowski         : Symmetry handling
   Simone Kossmann        : Meta GGA functionals, TD-DFT gradient, OOMP2, (MP2 Hessian; deprecated post 5.0)
   Lucas Lang             : DCDCAS
   Marvin Lechner         : AUTO-CI (C++ implementation), FIC-MRCC
   Spencer Leger          : CASSCF response
   Dagmar Lenk            : GEPOL surface, SMD, ORCA-2-JSON
   Dimitrios Liakos       : Extrapolation schemes; Compound Job, initial MDCI parallelization
   Dimitrios Manganas     : Further ROCIS development; embedding schemes. LFT, Crystal Embedding
   Dimitrios Pantazis     : SARC Basis sets
   Anastasios Papadopoulos: AUTO-CI, single reference methods and gradients
   Taras Petrenko         : pre 6.0 DFT Hessian and TD-DFT gradient, (ASA, deprecated), ECA, 1-Electron XAS/XES, NRVS
   Peter Pinski           : DLPNO-MP2, DLPNO-MP2 Gradient
   Christoph Reimann      : Effective Core Potentials
   Marius Retegan         : Local ZFS, SOC
   Christoph Riplinger    : Optimizer, TS searches, QM/MM, DLPNO-CCSD(T), (RO)-DLPNO pert. Triples
   Michael Roemelt        : Original ROCIS implementation
   Masaaki Saitow         : Open-shell DLPNO-CCSD energy and density
   Barbara Sandhoefer     : DKH picture change effects
   Kantharuban Sivalingam : CASSCF convergence/infrastructure, NEVPT2 and variants, FIC-MRCI
   Bernardo de Souza      : ESD, SOC TD-DFT
   Georgi Stoychev        : AutoAux, RI-MP2 NMR, DLPNO-MP2 response, X2C
   Van Anh Tran           : RI-MP2 g-tensors
   Willem Van den Heuvel  : Paramagnetic NMR
   Zikuan Wang            : NOTCH, Electric field optimization 
   Frank Wennmohs         : Technical directorship and infrastructure
   Hang Xu                : AUTO-CI-Response properties 


 We gratefully acknowledge several colleagues who have allowed us to
 interface, adapt or use parts of their codes:
   Stefan Grimme, W. Hujo, H. Kruse, P. Pracht,  : VdW corrections, initial TS optimization,
                  C. Bannwarth, S. Ehlert,         DFT functionals, gCP, sTDA/sTD-DF
                  L. Wittmann, M. Mueller
   Ed Valeev, F. Pavosevic, A. Kumar             : LibInt (2-el integral package), F12 methods
   Garnet Chan, S. Sharma, J. Yang, R. Olivares  : DMRG
   Ulf Ekstrom                                   : XCFun DFT Library
   Mihaly Kallay                                 : mrcc  (arbitrary order and MRCC methods)
   Frank Weinhold                                : gennbo (NPA and NBO analysis)
   Simon Mueller                                 : openCOSMO-RS
   Christopher J. Cramer and Donald G. Truhlar   : smd solvation model
   Lars Goerigk                                  : TD-DFT with DH, B97 family of functionals
   V. Asgeirsson, H. Jonsson                     : NEB implementation
   FAccTs GmbH                                   : IRC, NEB, NEB-TS, DLPNO-Multilevel, CI-OPT
                                                   MM, QMMM, 2- and 3-layer-ONIOM, Crystal-QMMM,
                                                   LR-CPCM, SF, NACMEs, symmetry and pop. for TD-DFT,
                                                   nearIR, NL-DFT gradient (VV10), updates on ESD,
                                                   ML-optimized integration grids, MBIS, APM,
                                                   GOAT, DOCKER, SOLVATOR, interface openCOSMO-RS
   S Lehtola, MJT Oliveira, MAL Marques          : LibXC Library
   Liviu Ungur et al                             : ANISO software


 Your calculation uses the libint2 library for the computation of 2-el integrals
 For citations please refer to: http://libint.valeyev.net

 Your ORCA version has been built with support for libXC version: 6.2.2
 For citations please refer to: https://libxc.gitlab.io

 This ORCA versions uses:
   CBLAS   interface :  Fast vector & matrix operations
   LAPACKE interface :  Fast linear algebra routines
   SCALAPACK package :  Parallel linear algebra routines
   Shared memory     :  Shared parallel matrices
   BLAS/LAPACK       :  OpenBLAS 0.3.27  USE64BITINT DYNAMIC_ARCH NO_AFFINITY SkylakeX SINGLE_THREADED
        Core in use  :  SkylakeX
   Copyright (c) 2011-2014, The OpenBLAS Project


Your calculation utilizes the geometrical counterpoise correction gCP
Please cite in your paper:
H.Kruse, S. Grimme J.Chem.Phys., 136, (2012), 154101 
   

Your calculation utilizes the DFT-NL dispersion correction.
Cite in your paper:
Vydrov, O. A.; Van Voorhis, T. J. Chem. Phys. 2010, 133, 244103
Hujo, W.; Grimme, S. J. Chem. Theory Comput. 2011, 7, 3866 
   

================================================================================

----- Orbital basis set information -----
Your calculation utilizes the basis: def2-TZVP
   F. Weigend and R. Ahlrichs, Phys. Chem. Chem. Phys. 7, 3297 (2005).

----- AuxJ basis set information -----
Your calculation utilizes the auxiliary basis: def2/J
   F. Weigend, Phys. Chem. Chem. Phys. 8, 1057 (2006).

================================================================================
                                        WARNINGS
                       Please study these warnings very carefully!
================================================================================


================================================================================
                                       INPUT FILE
================================================================================
NAME = sp_gas.inp
|  1> ! wb97x-v def2-tzvp def2/J RIJCOSX DEFGRID2 scfconv7 GCP(DFT/TZ) printgap
|  2> %output
|  3>     printlevel normal
|  4> end
|  5> * xyz 0 1
|  6> C -0.42219754967077894 -1.0599562787261738 5.1503815832794345e-05
|  7> C 0.94845661019811 -1.2204991299880246 2.050402262952928e-05
|  8> C 1.775613662417412 -0.08671415682698985 3.819611771124386e-05
|  9> C 1.2287846372344342 1.200834489314045 9.102765180765281e-05
| 10> C -0.14541659080212704 1.3480901453058265 0.00012800536514855852
| 11> C -0.9887598000898716 0.22584297563583863 9.110240017361816e-05
| 12> C -2.4277405323934556 0.4270732760947801 -1.773993672330595e-05
| 13> O -3.2692747163237867 -0.4718559467966561 -0.00018351693818382321
| 14> O 3.1321138456187563 -0.18568679029901086 -4.023483449570205e-06
| 15> H -1.0715823623096599 -1.9295973222876812 2.1641359443073784e-05
| 16> H 1.3961711032006627 -2.210261195175301 -2.3364622283190914e-05
| 17> H 1.8901382923246994 2.0605417889872513 8.854035415288748e-05
| 18> H -0.5828370902401695 2.3427485296338344 0.00017227294576939214
| 19> H -2.750418120635767 1.4872039986934964 0.0002519765883771322
| 20> H 3.393343155709313 -1.1184535518860759 -4.263015486991942e-05
| 21> *
| 22> 
| 23>                          ****END OF INPUT****
================================================================================

                       ****************************
                       * Single Point Calculation *
                       ****************************

---------------------------------
CARTESIAN COORDINATES (ANGSTROEM)
---------------------------------
  C     -0.422198   -1.059956    0.000052
  C      0.948457   -1.220499    0.000021
  C      1.775614   -0.086714    0.000038
  C      1.228785    1.200834    0.000091
  C     -0.145417    1.348090    0.000128
  C     -0.988760    0.225843    0.000091
  C     -2.427741    0.427073   -0.000018
  O     -3.269275   -0.471856   -0.000184
  O      3.132114   -0.185687   -0.000004
  H     -1.071582   -1.929597    0.000022
  H      1.396171   -2.210261   -0.000023
  H      1.890138    2.060542    0.000089
  H     -0.582837    2.342749    0.000172
  H     -2.750418    1.487204    0.000252
  H      3.393343   -1.118454   -0.000043

----------------------------
CARTESIAN COORDINATES (A.U.)
----------------------------
  NO LB      ZA    FRAG     MASS         X           Y           Z
   0 C     6.0000    0    12.011   -0.797838   -2.003027    0.000097
   1 C     6.0000    0    12.011    1.792323   -2.306409    0.000039
   2 C     6.0000    0    12.011    3.355424   -0.163866    0.000072
   3 C     6.0000    0    12.011    2.322066    2.269248    0.000172
   4 C     6.0000    0    12.011   -0.274798    2.547521    0.000242
   5 C     6.0000    0    12.011   -1.868485    0.426781    0.000172
   6 C     6.0000    0    12.011   -4.587765    0.807052   -0.000034
   7 O     8.0000    0    15.999   -6.178034   -0.891679   -0.000347
   8 O     8.0000    0    15.999    5.918837   -0.350897   -0.000008
   9 H     1.0000    0     1.008   -2.024997   -3.646410    0.000041
  10 H     1.0000    0     1.008    2.638381   -4.176788   -0.000044
  11 H     1.0000    0     1.008    3.571844    3.893860    0.000167
  12 H     1.0000    0     1.008   -1.101402    4.427153    0.000326
  13 H     1.0000    0     1.008   -5.197537    2.810408    0.000476
  14 H     1.0000    0     1.008    6.412489   -2.113571   -0.000081

--------------------------------
INTERNAL COORDINATES (ANGSTROEM)
--------------------------------
 C      0   0   0     0.000000000000     0.00000000     0.00000000
 C      1   0   0     1.380024215012     0.00000000     0.00000000
 C      2   1   0     1.403444745872   119.43222296     0.00000000
 C      3   2   1     1.398857927651   120.87604027     0.00000000
 C      4   3   2     1.382068466005   119.12751985     0.00000000
 C      5   4   3     1.403804288299   120.80770850     0.00000000
 C      6   5   4     1.452982860742   118.96328332   180.00675487
 O      7   6   5     1.231362480334   125.15050367   179.99293408
 O      3   2   1     1.360105999907   121.93975382   180.00066083
 H      1   2   3     1.085346110890   120.06916866   179.99898874
 H      2   1   3     1.086313589555   121.01994451   180.00037046
 H      4   3   2     1.084659070039   119.41851895   180.00091876
 H      5   4   3     1.086591918248   119.85475298   179.99981148
 H      7   6   5     1.108150733293   114.88969625     0.00000000
 H      9   3   2     0.968656071814   109.81836363     0.00000000

---------------------------
INTERNAL COORDINATES (A.U.)
---------------------------
 C      0   0   0     0.000000000000     0.00000000     0.00000000
 C      1   0   0     2.607867824551     0.00000000     0.00000000
 C      2   1   0     2.652126213788   119.43222296     0.00000000
 C      3   2   1     2.643458383526   120.87604027     0.00000000
 C      4   3   2     2.611730899079   119.12751985     0.00000000
 C      5   4   3     2.652805650509   120.80770850     0.00000000
 C      6   5   4     2.745739684084   118.96328332   180.00675487
 O      7   6   5     2.326937859417   125.15050367   179.99293408
 O      3   2   1     2.570227852928   121.93975382   180.00066083
 H      1   2   3     2.051006910099   120.06916866   179.99898874
 H      2   1   3     2.052835179817   121.01994451   180.00037046
 H      4   3   2     2.049708591048   119.41851895   180.00091876
 H      5   4   3     2.053361144821   119.85475298   179.99981148
 H      7   6   5     2.094101401028   114.88969625     0.00000000
 H      9   3   2     1.830494693689   109.81836363     0.00000000

---------------------
BASIS SET INFORMATION
---------------------
There are 3 groups of distinct atoms

 Group   1 Type C   : 11s6p2d1f contracted to 5s3p2d1f pattern {62111/411/11/1}
 Group   2 Type O   : 11s6p2d1f contracted to 5s3p2d1f pattern {62111/411/11/1}
 Group   3 Type H   : 5s1p contracted to 3s1p pattern {311/1}

Atom   0C    basis set group =>   1
Atom   1C    basis set group =>   1
Atom   2C    basis set group =>   1
Atom   3C    basis set group =>   1
Atom   4C    basis set group =>   1
Atom   5C    basis set group =>   1
Atom   6C    basis set group =>   1
Atom   7O    basis set group =>   2
Atom   8O    basis set group =>   2
Atom   9H    basis set group =>   3
Atom  10H    basis set group =>   3
Atom  11H    basis set group =>   3
Atom  12H    basis set group =>   3
Atom  13H    basis set group =>   3
Atom  14H    basis set group =>   3
---------------------------------
AUXILIARY/J BASIS SET INFORMATION
---------------------------------
There are 3 groups of distinct atoms

 Group   1 Type C   : 12s5p4d2f1g contracted to 6s4p3d1f1g pattern {711111/2111/211/2/1}
 Group   2 Type O   : 12s5p4d2f1g contracted to 6s4p3d1f1g pattern {711111/2111/211/2/1}
 Group   3 Type H   : 5s2p1d contracted to 3s1p1d pattern {311/2/1}

Atom   0C    basis set group =>   1
Atom   1C    basis set group =>   1
Atom   2C    basis set group =>   1
Atom   3C    basis set group =>   1
Atom   4C    basis set group =>   1
Atom   5C    basis set group =>   1
Atom   6C    basis set group =>   1
Atom   7O    basis set group =>   2
Atom   8O    basis set group =>   2
Atom   9H    basis set group =>   3
Atom  10H    basis set group =>   3
Atom  11H    basis set group =>   3
Atom  12H    basis set group =>   3
Atom  13H    basis set group =>   3
Atom  14H    basis set group =>   3

Checking for AutoStart:
The File: sp_gas.gbw exists
Trying to determine its content:
     ... Fine, the file contains calculation information
     ... Fine, the calculation information was read
     ... Fine, the file contains a basis set
     ... Fine, the basis set was read
     ... Fine, the file contains a geometry
     ... Fine, the geometry was read
     ... Fine, the file contains a set of orbitals
     ... Fine, the orbitals can be read
     => possible old guess file was deleted
     => GBW file was renamed to GES file
     => GES file is set as startup file
     => Guess is set to MORead
     ... now leaving AutoStart

------------------------------------------------------------------------------
                             ORCA STARTUP CALCULATIONS
                           -- RI-GTO INTEGRALS CHOSEN --
------------------------------------------------------------------------------
------------------------------------------------------------------------------
                   ___                                                        
                  /   \      - P O W E R E D   B Y -                         
                 /     \                                                     
                 |  |  |   _    _      __       _____    __    __             
                 |  |  |  | |  | |    /  \     |  _  \  |  |  /  |          
                  \  \/   | |  | |   /    \    | | | |  |  | /  /          
                 / \  \   | |__| |  /  /\  \   | |_| |  |  |/  /          
                |  |  |   |  __  | /  /__\  \  |    /   |      \           
                |  |  |   | |  | | |   __   |  |    \   |  |\   \          
                \     /   | |  | | |  |  |  |  | |\  \  |  | \   \       
                 \___/    |_|  |_| |__|  |__|  |_| \__\ |__|  \__/        
                                                                              
                      - O R C A' S   B I G   F R I E N D -                    
                                      &                                       
                       - I N T E G R A L  F E E D E R -                       
                                                                              
 v1 FN, 2020, v2 2021, v3 2022-2024                                           
------------------------------------------------------------------------------


----------------------
SHARK INTEGRAL PACKAGE
----------------------

Number of atoms                             ...     15
Number of basis functions                   ...    315
Number of shells                            ...    123
Maximum angular momentum                    ...      3
Integral batch strategy                     ... SHARK/LIBINT Hybrid
RI-J (if used) integral strategy            ... SPLIT-RIJ (Revised 2003 algorithm where possible)
Printlevel                                  ...      1
Contraction scheme used                     ... SEGMENTED contraction
Prescreening option                         ... SCHWARTZ
   Thresh                                   ... 3.000e-11
   Tcut                                     ... 1.000e-12
   Tpresel                                  ... 1.000e-12 
Coulomb Range Separation                    ... NOT USED
Exchange Range Separation                   ... Long Range
   Mu parameter                             ... 3.000e-01
   Scaling (regular/separated)              ... 1.670e-01 8.330e-01
Multipole approximations                    ... NOT USED
Finite Nucleus Model                        ... NOT USED
CABS basis                                  ... NOT available
Auxiliary Coulomb fitting basis             ... AVAILABLE
   # of basis functions in Aux-J            ...    507
   # of shells in Aux-J                     ...    165
   Maximum angular momentum in Aux-J        ...      4
Auxiliary J/K fitting basis                 ... NOT available
Auxiliary Correlation fitting basis         ... NOT available
Auxiliary 'external' fitting basis          ... NOT available

Checking pre-screening integrals            ... done (  0.0 sec) Dimension = 123
Check shell pair data                       ... done (  0.0 sec)
Shell pair information
Shell pair cut-off parameter TPreSel        ...   1.0e-12
Total number of shell pairs                 ...      7626
Shell pairs after pre-screening             ...      6849
Total number of primitive shell pairs       ...     23652
Primitive shell pairs kept                  ...     15860
          la=0 lb=0:   1723 shell pairs
          la=1 lb=0:   1893 shell pairs
          la=1 lb=1:    534 shell pairs
          la=2 lb=0:   1020 shell pairs
          la=2 lb=1:    558 shell pairs
          la=2 lb=2:    156 shell pairs
          la=3 lb=0:    498 shell pairs
          la=3 lb=1:    278 shell pairs
          la=3 lb=2:    148 shell pairs
          la=3 lb=3:     41 shell pairs

Calculating one electron integrals          ... done (  0.0 sec)
Calculating RI/J V-Matrix + Cholesky decomp.... done (  0.1 sec)
Calculating Nuclear repulsion               ... done (  0.0 sec) ENN=    398.641778927451 Eh

Diagonalization of the overlap matrix:
Smallest eigenvalue                        ... 9.278e-06
Time for diagonalization                   ...    0.008 sec
Threshold for overlap eigenvalues          ... 1.000e-07
Number of eigenvalues below threshold      ... 0
Time for construction of square roots      ...    0.020 sec
Total time needed                          ...    0.043 sec

-------------------
DFT GRID GENERATION
-------------------

General Integration Accuracy     IntAcc      ... 4.388
Radial Grid Type                 RadialGrid  ... OptM3 with GC (2021)
Angular Grid (max. ang.)         AngularGrid ... 4 (Lebedev-302)
Angular grid pruning method      GridPruning ... 4 (adaptive)
Weight generation scheme         WeightScheme... mBecke (2022)
Basis function cutoff            BFCut       ... 1.0000e-11
Integration weight cutoff        WCut        ... 1.0000e-14
Partially contracted basis set               ... off
Rotationally invariant grid construction     ... off
Angular grids for H and He will be reduced by one unit

Total number of grid points                  ...    73575
Total number of batches                      ...     1157
Average number of points per batch           ...       63
Average number of grid points per atom       ...     4905

--------------------
COSX GRID GENERATION
--------------------

GRIDX 1
-------
General Integration Accuracy     IntAcc      ... 3.816
Radial Grid Type                 RadialGrid  ... OptM3 with GC (2021)
Angular Grid (max. ang.)         AngularGrid ... 1 (Lebedev-50)
Angular grid pruning method      GridPruning ... 4 (adaptive)
Weight generation scheme         WeightScheme... mBecke (2022)
Basis function cutoff            BFCut       ... 1.0000e-11
Integration weight cutoff        WCut        ... 1.0000e-14
Partially contracted basis set               ... on
Rotationally invariant grid construction     ... off
Angular grids for H and He will be reduced by one unit

Total number of grid points                  ...     9397
Total number of batches                      ...       80
Average number of points per batch           ...      117
Average number of grid points per atom       ...      626
UseSFitting                                  ... on

GRIDX 2
-------
General Integration Accuracy     IntAcc      ... 4.020
Radial Grid Type                 RadialGrid  ... OptM3 with GC (2021)
Angular Grid (max. ang.)         AngularGrid ... 2 (Lebedev-110)
Angular grid pruning method      GridPruning ... 4 (adaptive)
Weight generation scheme         WeightScheme... mBecke (2022)
Basis function cutoff            BFCut       ... 1.0000e-11
Integration weight cutoff        WCut        ... 1.0000e-14
Partially contracted basis set               ... on
Rotationally invariant grid construction     ... off
Angular grids for H and He will be reduced by one unit

Total number of grid points                  ...    20853
Total number of batches                      ...      171
Average number of points per batch           ...      121
Average number of grid points per atom       ...     1390
UseSFitting                                  ... on

GRIDX 3
-------
General Integration Accuracy     IntAcc      ... 4.338
Radial Grid Type                 RadialGrid  ... OptM3 with GC (2021)
Angular Grid (max. ang.)         AngularGrid ... 3 (Lebedev-194)
Angular grid pruning method      GridPruning ... 4 (adaptive)
Weight generation scheme         WeightScheme... mBecke (2022)
Basis function cutoff            BFCut       ... 1.0000e-11
Integration weight cutoff        WCut        ... 1.0000e-14
Partially contracted basis set               ... on
Rotationally invariant grid construction     ... off
Angular grids for H and He will be reduced by one unit

Total number of grid points                  ...    45923
Total number of batches                      ...      367
Average number of points per batch           ...      125
Average number of grid points per atom       ...     3062
UseSFitting                                  ... on
Initializing property integral containers    ... done (  0.0 sec)

SHARK setup successfully completed in   2.1 seconds

Maximum memory used throughout the entire STARTUP-calculation: 45.4 MB
-------------------------------------------------------------------------------
                                 ORCA GUESS
                   Start orbitals & Density for SCF / CASSCF
-------------------------------------------------------------------------------

------------
SCF SETTINGS
------------
Hamiltonian:
 Density Functional     Method          .... DFT(GTOs)
 Exchange Functional    Exchange        .... WB97X-V
 Correlation Functional Correlation     .... WB97X-V
 Gradients option       PostSCFGGA      .... off
 Hybrid DFT is turned on
   Fraction HF Exchange ScalHFX         ....  0.167000
   Scaling of DF-GGA-X  ScalDFX         ....  0.000000
   Scaling of DF-GGA-C  ScalDFC         ....  1.000000
   Scaling of DF-LDA-C  ScalLDAC        ....  1.000000
   Perturbative correction              ....  0.000000
 Long-range corrected/Screened/Range-Separated Hybrid DFT is turned on
   Amount of maximum screened exact exchange              ....  0.833000
   Range separation parameter mu (erf(mu*r12)/r12)        ....  0.300000
   NL short-range parameter             ....  6.000000
   NL long-range parameter              ....  0.010000
 RI-approximation to the Coulomb term is turned on
   Number of AuxJ basis functions       .... 507
   RIJ-COSX (HFX calculated with COS-X)).... on


General Settings:
 Integral files         IntName         .... sp_gas
 Hartree-Fock type      HFTyp           .... RHF
 Total Charge           Charge          ....    0
 Multiplicity           Mult            ....    1
 Number of Electrons    NEL             ....   64
 Basis Dimension        Dim             ....  315
 Nuclear Repulsion      ENuc            ....    398.6417789275 Eh

Convergence Acceleration:
 AO-DIIS                CNVDIIS         .... on
   Start iteration      DIISMaxIt       ....    12
   Startup error        DIISStart       ....  0.200000
   # of expansion vecs  DIISMaxEq       ....     5
   Bias factor          DIISBfac        ....   1.050
   Max. coefficient     DIISMaxC        ....  10.000
 MO-DIIS                CNVKDIIS        .... off
 Trust-Rad. Augm. Hess. CNVTRAH         .... auto
   Auto Start mean grad. ratio tolernc. ....  1.125000
   Auto Start start iteration           ....     1
   Auto Start num. interpolation iter.  ....    10
   Max. Number of Micro iterations      ....    24
   Max. Number of Macro iterations      .... Maxiter - #DIIS iter
   Number of Davidson start vectors     ....     2
   Converg. threshold    (grad. norm)   ....   1.000e-04
   Grad. Scal. Fac. for Micro threshold ....   0.100
   Minimum threshold for Micro iter.    ....   1.000e-02
   NR start threshold (gradient norm)   ....   1.000e-04
   Initial trust radius                 ....   0.400
   Minimum AH scaling param. (alpha)    ....   1.000
   Maximum AH scaling param. (alpha)    .... 1000.000
   Quad. conv. algorithm                .... NR
   White noise on init. David. guess    .... on
   Maximum white noise                  ....   0.010
   Pseudo random numbers                .... off
   Inactive MOs                         .... canonical
   Orbital update algorithm             .... Taylor
   Preconditioner                       .... Diag
   Full preconditioner red. dimension   ....   250
 SOSCF                  CNVSOSCF        .... on
   Start iteration      SOSCFMaxIt      ....   150
   Startup grad/error   SOSCFStart      ....  0.003300
   Hessian update       SOSCFHessUp     .... L-BFGS
 Level Shifting         CNVShift        .... on
   Level shift para.    LevelShift      ....    0.2500
   Turn off err/grad.   ShiftErr        ....    0.0010
 Zerner damping         CNVZerner       .... off
 Static damping         CNVDamp         .... on
   Fraction old density DampFac         ....    0.7000
   Max. Damping (<1)    DampMax         ....    0.9800
   Min. Damping (>=0)   DampMin         ....    0.0000
   Turn off err/grad.   DampErr         ....    0.1000

SCF Procedure:
 Maximum # iterations   MaxIter         ....   125
 SCF integral mode      SCFMode         .... Direct
   Integral package                     .... SHARK and LIBINT hybrid scheme
 Reset frequency        DirectResetFreq ....    20
 Integral Threshold     Thresh          ....  3.000e-11 Eh
 Primitive CutOff       TCut            ....  1.000e-12 Eh

Convergence Tolerance:
 Convergence Check Mode ConvCheckMode   .... Total+1el-Energy
 Convergence forced     ConvForced      .... 0
 Energy Change          TolE            ....  1.000e-07 Eh
 1-El. energy change                    ....  1.000e-04 Eh
 Orbital Gradient       TolG            ....  1.000e-04
 Orbital Rotation angle TolX            ....  1.000e-04
 DIIS Error             TolErr          ....  1.000e-07

---------------------
INITIAL GUESS: MOREAD
---------------------
Guess MOs are being read from file: sp_gas.ges
Input Geometry matches current geometry (good)
Atom 0: N(Shells)= 11 and 9 - projection required
Input basis set needs projection
NBasis(read)= 211
NBasis(calc)= 315
Basis set overlap was calculated
Using GuessMode=FMatrix for the initial guess
C*T matrix was formed
Effective Fockian was calculated
Effective Fockian was diagonalized
Initial density was built
                      ------------------
                      INITIAL GUESS DONE (   0.1 sec)
                      ------------------
             **** ENERGY FILE WAS UPDATED (sp_gas.en.tmp) ****
Finished Guess after   0.4 sec
Maximum memory used throughout the entire GUESS-calculation: 28.9 MB

-------------------------------------------------------------------------------------------
                                      ORCA LEAN-SCF
                              memory conserving SCF solver
-------------------------------------------------------------------------------------------

----------------------------------------D-I-I-S--------------------------------------------
Iteration    Energy (Eh)           Delta-E    RMSDP     MaxDP     DIISErr   Damp  Time(sec)
-------------------------------------------------------------------------------------------
               ***  Starting incremental Fock matrix formation  ***
    1    -421.0462175538232259     0.00e+00  2.04e-03  8.67e-02  6.85e-02  0.700  16.2
    2    -421.0542292418213037    -8.01e-03  1.73e-03  8.28e-02  4.96e-02  0.700   8.2
                               ***Turning on AO-DIIS***
    3    -421.0601881031622042    -5.96e-03  1.36e-03  5.61e-02  3.53e-02  0.700   7.8
    4    -421.0645132219308380    -4.33e-03  3.35e-03  1.35e-01  2.50e-02  0.000   7.7
                              *** Initializing SOSCF ***
---------------------------------------S-O-S-C-F--------------------------------------
Iteration    Energy (Eh)           Delta-E    RMSDP     MaxDP     MaxGrad    Time(sec)
--------------------------------------------------------------------------------------
    5    -421.0757503780716888    -1.12e-02  1.61e-04  6.96e-03  2.69e-03     8.2
               *** Restarting incremental Fock matrix formation ***
    6    -421.0758606619598368    -1.10e-04  1.50e-04  1.66e-02  1.63e-03    16.3
    7    -421.0759082392710297    -4.76e-05  1.25e-04  1.21e-02  8.46e-04    13.1
    8    -421.0759174982922559    -9.26e-06  2.69e-05  9.50e-04  5.55e-04    13.2
    9    -421.0759237427279231    -6.24e-06  9.58e-06  4.89e-04  1.13e-04    12.4
   10    -421.0759238615081586    -1.19e-07  4.84e-06  5.04e-04  5.21e-05    11.5
   11    -421.0759240356691180    -1.74e-07  2.07e-06  1.31e-04  1.64e-05    11.0
                  *** Gradient check signals convergence ***

               *****************************************************
               *                     SUCCESS                       *
               *           SCF CONVERGED AFTER  11 CYCLES          *
               *****************************************************


------------------
NL GRID GENERATION
------------------

General Integration Accuracy     IntAcc      ... 4.004
Radial Grid Type                 RadialGrid  ... OptM3 with GC (2021)
Angular Grid (max. ang.)         AngularGrid ... 2 (Lebedev-110)
Angular grid pruning method      GridPruning ... 4 (adaptive)
Weight generation scheme         WeightScheme... mBecke (2022)
Basis function cutoff            BFCut       ... 1.0000e-10
Integration weight cutoff        WCut        ... 1.0000e-14
Partially contracted basis set               ... off
Rotationally invariant grid construction     ... off
Angular grids for H and He will be reduced by one unit

Total number of grid points                  ...    23908
Total number of batches                      ...      381
Average number of points per batch           ...       62
Average number of grid points per atom       ...     1594
Final grid set up in    0.2 sec

-------------------------------------------------------------------------------
                    post-SCF DFT-NL dispersion correction                      
-------------------------------------------------------------------------------

SCF Energy:     -421.075924036 
NL    Energy:      0.246536874 
SC+NL Energy:   -420.829387161 
NL done in  :              2.1 sec
-------------------------------------------------------------------------------
Recomputing exchange energy using gridx3       ... done (   29.315 sec)
Old exchange energy                            :    -17.532867798 Eh
New exchange energy                            :    -17.532872577 Eh
Exchange energy change after final integration :     -0.000004778 Eh
Total energy after final integration           :   -420.829391939 Eh
             **** ENERGY FILE WAS UPDATED (sp_gas.en.tmp) ****

----------------
TOTAL SCF ENERGY
----------------

Total Energy       :       -420.82939193941485 Eh          -11451.34993 eV

Components:
Nuclear Repulsion  :        398.64177892745113 Eh           10847.59429 eV
Electronic Energy  :       -819.71770296312025 Eh          -22305.65270 eV
One Electron Energy:      -1360.77834301621670 Eh          -37028.66121 eV
Two Electron Energy:        541.06064005309645 Eh           14723.00852 eV

Virial components:
Potential Energy   :       -840.07941422176782 Eh          -22859.72303 eV
Kinetic Energy     :        419.25002228235303 Eh           11408.37310 eV
Virial Ratio       :          2.00376713076475

DFT components:
N(Alpha)           :       32.000039154456 electrons
N(Beta)            :       32.000039154456 electrons
N(Total)           :       64.000078308913 electrons
E(X)               :      -37.339489509735 Eh       
E(C)               :       -2.693521750123 Eh       
NL Energy, E(C,NL) :        0.246536874450 Eh       
E(XC)              :      -39.786474385408 Eh       

---------------
SCF CONVERGENCE
---------------

  Last Energy change         ...    1.7416e-07  Tolerance :   1.0000e-07
  Last MAX-Density change    ...    1.3095e-04  Tolerance :   1.0000e-05
  Last RMS-Density change    ...    2.0694e-06  Tolerance :   1.0000e-06
  Last DIIS Error            ...    2.6904e-03  Tolerance :   1.0000e-07
  Last Orbital Gradient      ...    1.6422e-05  Tolerance :   1.0000e-04
  Last Orbital Rotation      ...    4.5508e-05  Tolerance :   1.0000e-04


----------------
ORBITAL ENERGIES
----------------

  NO   OCC          E(Eh)            E(eV) 
   0   2.0000     -21.726864      -591.2180 
   1   2.0000     -21.662705      -589.4722 
   2   2.0000     -12.141237      -330.3799 
   3   2.0000     -12.135186      -330.2152 
   4   2.0000     -12.079936      -328.7118 
   5   2.0000     -12.077360      -328.6417 
   6   2.0000     -12.071235      -328.4750 
   7   2.0000     -12.065590      -328.3214 
   8   2.0000     -12.064350      -328.2876 
   9   2.0000      -1.745204       -47.4894 
  10   2.0000      -1.699207       -46.2378 
  11   2.0000      -1.408830       -38.3362 
  12   2.0000      -1.316391       -35.8208 
  13   2.0000      -1.302749       -35.4496 
  14   2.0000      -1.207557       -32.8593 
  15   2.0000      -1.154296       -31.4100 
  16   2.0000      -1.123477       -30.5714 
  17   2.0000      -1.079327       -29.3700 
  18   2.0000      -1.032602       -28.0985 
  19   2.0000      -1.019095       -27.7310 
  20   2.0000      -0.987457       -26.8701 
  21   2.0000      -0.972516       -26.4635 
  22   2.0000      -0.950286       -25.8586 
  23   2.0000      -0.921469       -25.0744 
  24   2.0000      -0.907803       -24.7026 
  25   2.0000      -0.899785       -24.4844 
  26   2.0000      -0.893874       -24.3235 
  27   2.0000      -0.828185       -22.5360 
  28   2.0000      -0.797429       -21.6991 
  29   2.0000      -0.789603       -21.4862 
  30   2.0000      -0.667129       -18.1535 
  31   2.0000      -0.663743       -18.0614 
  32   0.0000      -0.353044        -9.6068 
  33   0.0000      -0.255585        -6.9548 
  34   0.0000      -0.222568        -6.0564 
  35   0.0000      -0.153715        -4.1828 
  36   0.0000      -0.086177        -2.3450 
  37   0.0000      -0.078660        -2.1405 
  38   0.0000      -0.046087        -1.2541 
  39   0.0000      -0.025381        -0.6907 
  40   0.0000      -0.023254        -0.6328 
  41   0.0000      -0.006151        -0.1674 
  42   0.0000       0.017260         0.4697 
*Only the first 10 virtual orbitals were printed.

                    ********************************
                    * MULLIKEN POPULATION ANALYSIS *
                    ********************************

-----------------------
MULLIKEN ATOMIC CHARGES
-----------------------
   0 C :   -0.208462
   1 C :   -0.155048
   2 C :    0.249947
   3 C :   -0.192749
   4 C :   -0.149903
   5 C :    0.139074
   6 C :    0.086752
   7 O :   -0.320588
   8 O :   -0.373741
   9 H :    0.152572
  10 H :    0.120307
  11 H :    0.131712
  12 H :    0.129789
  13 H :    0.070789
  14 H :    0.319549
Sum of atomic charges:   -0.0000000

--------------------------------
MULLIKEN REDUCED ORBITAL CHARGES
--------------------------------
  0 C s       :     3.229992  s :     3.229992
      pz      :     0.887974  p :     2.876810
      px      :     0.993217
      py      :     0.995619
      dz2     :     0.003261  d :     0.094027
      dxz     :     0.021646
      dyz     :     0.012037
      dx2y2   :     0.021997
      dxy     :     0.035086
      f0      :     0.001587  f :     0.007634
      f+1     :     0.000636
      f-1     :     0.000625
      f+2     :     0.001157
      f-2     :     0.000332
      f+3     :     0.001193
      f-3     :     0.002103

  1 C s       :     3.161072  s :     3.161072
      pz      :     1.055256  p :     2.912286
      px      :     0.927154
      py      :     0.929875
      dz2     :     0.006810  d :     0.074467
      dxz     :     0.016139
      dyz     :     0.007029
      dx2y2   :     0.017888
      dxy     :     0.026601
      f0      :     0.001645  f :     0.007222
      f+1     :     0.000608
      f-1     :     0.000712
      f+2     :     0.000626
      f-2     :     0.000483
      f+3     :     0.001230
      f-3     :     0.001920

  2 C s       :     3.045485  s :     3.045485
      pz      :     0.866944  p :     2.510231
      px      :     0.718526
      py      :     0.924761
      dz2     :     0.005259  d :     0.178550
      dxz     :     0.048412
      dyz     :     0.026088
      dx2y2   :     0.039121
      dxy     :     0.059669
      f0      :     0.002578  f :     0.015788
      f+1     :     0.001271
      f-1     :     0.000729
      f+2     :     0.002659
      f-2     :     0.001105
      f+3     :     0.002586
      f-3     :     0.004860

  3 C s       :     3.208767  s :     3.208767
      pz      :     1.027658  p :     2.900455
      px      :     0.933250
      py      :     0.939547
      dz2     :     0.004040  d :     0.075923
      dxz     :     0.014850
      dyz     :     0.010905
      dx2y2   :     0.020195
      dxy     :     0.025933
      f0      :     0.001695  f :     0.007604
      f+1     :     0.000704
      f-1     :     0.000730
      f+2     :     0.000967
      f-2     :     0.000296
      f+3     :     0.001122
      f-3     :     0.002089

  4 C s       :     3.187807  s :     3.187807
      pz      :     0.920948  p :     2.860024
      px      :     0.957515
      py      :     0.981561
      dz2     :     0.004353  d :     0.094428
      dxz     :     0.026909
      dyz     :     0.007682
      dx2y2   :     0.024677
      dxy     :     0.030808
      f0      :     0.001586  f :     0.007644
      f+1     :     0.000599
      f-1     :     0.000636
      f+2     :     0.000734
      f-2     :     0.000708
      f+3     :     0.001251
      f-3     :     0.002130

  5 C s       :     3.097052  s :     3.097052
      pz      :     1.010894  p :     2.640020
      px      :     0.781531
      py      :     0.847595
      dz2     :     0.006589  d :     0.113847
      dxz     :     0.012942
      dyz     :     0.021826
      dx2y2   :     0.035958
      dxy     :     0.036532
      f0      :     0.001869  f :     0.010008
      f+1     :     0.000847
      f-1     :     0.000702
      f+2     :     0.000501
      f-2     :     0.000980
      f+3     :     0.001764
      f-3     :     0.003345

  6 C s       :     3.265770  s :     3.265770
      pz      :     0.731867  p :     2.468643
      px      :     0.834620
      py      :     0.902156
      dz2     :     0.005869  d :     0.164308
      dxz     :     0.037395
      dyz     :     0.015388
      dx2y2   :     0.077199
      dxy     :     0.028457
      f0      :     0.002067  f :     0.014528
      f+1     :     0.000929
      f-1     :     0.000789
      f+2     :     0.000557
      f-2     :     0.002117
      f+3     :     0.003649
      f-3     :     0.004419

  7 O s       :     3.810277  s :     3.810277
      pz      :     1.317268  p :     4.477255
      px      :     1.608894
      py      :     1.551094
      dz2     :     0.002729  d :     0.031289
      dxz     :     0.005606
      dyz     :     0.006033
      dx2y2   :     0.007705
      dxy     :     0.009217
      f0      :     0.000151  f :     0.001766
      f+1     :     0.000082
      f-1     :     0.000086
      f+2     :     0.000005
      f-2     :     0.000457
      f+3     :     0.000481
      f-3     :     0.000506

  8 O s       :     3.744238  s :     3.744238
      pz      :     1.820232  p :     4.595283
      px      :     1.362798
      py      :     1.412253
      dz2     :     0.004474  d :     0.032476
      dxz     :     0.005502
      dyz     :     0.001339
      dx2y2   :     0.015264
      dxy     :     0.005897
      f0      :     0.000241  f :     0.001744
      f+1     :     0.000338
      f-1     :     0.000338
      f+2     :     0.000111
      f-2     :     0.000026
      f+3     :     0.000339
      f-3     :     0.000352

  9 H s       :     0.825055  s :     0.825055
      pz      :     0.003926  p :     0.022372
      px      :     0.008119
      py      :     0.010327

 10 H s       :     0.857433  s :     0.857433
      pz      :     0.004977  p :     0.022260
      px      :     0.004845
      py      :     0.012438

 11 H s       :     0.845930  s :     0.845930
      pz      :     0.004799  p :     0.022358
      px      :     0.007465
      py      :     0.010093

 12 H s       :     0.848198  s :     0.848198
      pz      :     0.004165  p :     0.022012
      px      :     0.005286
      py      :     0.012561

 13 H s       :     0.909536  s :     0.909536
      pz      :     0.002446  p :     0.019674
      px      :     0.003821
      py      :     0.013408

 14 H s       :     0.634420  s :     0.634420
      pz      :     0.015681  p :     0.046031
      px      :     0.010894
      py      :     0.019456


------------------------
MULLIKEN OVERLAP CHARGES
------------------------
B(  0-C ,  1-C ) :   0.4100 B(  0-C ,  2-C ) :   0.1909 B(  0-C ,  3-C ) :  -0.0717 
B(  0-C ,  4-C ) :  -0.1201 B(  0-C ,  5-C ) :   0.1239 B(  0-C ,  6-C ) :   0.0747 
B(  0-C ,  7-O ) :   0.0897 B(  0-C ,  9-H ) :   0.8340 B(  0-C , 13-H ) :   0.0850 
B(  1-C ,  2-C ) :   0.7003 B(  1-C ,  3-C ) :  -0.0939 B(  1-C ,  4-C ) :  -0.0900 
B(  1-C ,  5-C ) :   0.0988 B(  1-C ,  8-O ) :  -0.1891 B(  1-C ,  9-H ) :  -0.0735 
B(  1-C , 10-H ) :   0.8418 B(  2-C ,  3-C ) :   1.0158 B(  2-C ,  5-C ) :  -0.1932 
B(  2-C ,  8-O ) :   0.7995 B(  2-C , 10-H ) :  -0.1159 B(  2-C , 11-H ) :  -0.0844 
B(  2-C , 14-H ) :  -0.0680 B(  3-C ,  4-C ) :   0.9174 B(  3-C ,  8-O ) :  -0.1015 
B(  3-C , 11-H ) :   0.8472 B(  3-C , 12-H ) :  -0.0831 B(  4-C ,  5-C ) :   0.9154 
B(  4-C ,  6-C ) :  -0.0725 B(  4-C , 11-H ) :  -0.0898 B(  4-C , 12-H ) :   0.8483 
B(  5-C ,  6-C ) :  -0.0865 B(  5-C ,  7-O ) :  -0.4149 B(  5-C ,  9-H ) :  -0.1077 
B(  5-C , 12-H ) :  -0.1140 B(  5-C , 13-H ) :  -0.4953 B(  6-C ,  7-O ) :   1.4100 
B(  6-C , 13-H ) :   1.0202 B(  7-O , 13-H ) :  -0.1191 B(  8-O , 14-H ) :   0.6118 



                     *******************************
                     * LOEWDIN POPULATION ANALYSIS *
                     *******************************

----------------------
LOEWDIN ATOMIC CHARGES
----------------------
   0 C :   -0.063155
   1 C :   -0.137412
   2 C :   -0.248355
   3 C :   -0.118471
   4 C :   -0.083341
   5 C :   -0.178560
   6 C :   -0.246503
   7 O :    0.074501
   8 O :    0.091965
   9 H :    0.157375
  10 H :    0.143059
  11 H :    0.150458
  12 H :    0.150231
  13 H :    0.117040
  14 H :    0.191169

-------------------------------
LOEWDIN REDUCED ORBITAL CHARGES
-------------------------------
  0 C s       :     2.757200  s :     2.757200
      pz      :     0.823178  p :     2.875310
      px      :     1.039365
      py      :     1.012766
      dz2     :     0.024450  d :     0.387172
      dxz     :     0.064773
      dyz     :     0.037740
      dx2y2   :     0.104420
      dxy     :     0.155789
      f0      :     0.003191  f :     0.043473
      f+1     :     0.003818
      f-1     :     0.003382
      f+2     :     0.007966
      f-2     :     0.002020
      f+3     :     0.008629
      f-3     :     0.014467

  1 C s       :     2.758754  s :     2.758754
      pz      :     0.941727  p :     2.973341
      px      :     1.050749
      py      :     0.980865
      dz2     :     0.026350  d :     0.363186
      dxz     :     0.058021
      dyz     :     0.020121
      dx2y2   :     0.113657
      dxy     :     0.145037
      f0      :     0.003121  f :     0.042131
      f+1     :     0.004313
      f-1     :     0.003536
      f+2     :     0.004491
      f-2     :     0.003864
      f+3     :     0.009041
      f-3     :     0.013765

  2 C s       :     2.721853  s :     2.721853
      pz      :     0.814141  p :     2.743278
      px      :     0.842593
      py      :     1.086545
      dz2     :     0.044481  d :     0.685977
      dxz     :     0.143154
      dyz     :     0.083275
      dx2y2   :     0.225790
      dxy     :     0.189278
      f0      :     0.007076  f :     0.097248
      f+1     :     0.008900
      f-1     :     0.004532
      f+2     :     0.017730
      f-2     :     0.007850
      f+3     :     0.018923
      f-3     :     0.032236

  3 C s       :     2.757712  s :     2.757712
      pz      :     0.926892  p :     2.961902
      px      :     1.037679
      py      :     0.997332
      dz2     :     0.025436  d :     0.356769
      dxz     :     0.047397
      dyz     :     0.030442
      dx2y2   :     0.100988
      dxy     :     0.152506
      f0      :     0.003205  f :     0.042088
      f+1     :     0.004023
      f-1     :     0.003751
      f+2     :     0.006497
      f-2     :     0.001775
      f+3     :     0.008787
      f-3     :     0.014050

  4 C s       :     2.756001  s :     2.756001
      pz      :     0.840541  p :     2.889492
      px      :     1.052482
      py      :     0.996468
      dz2     :     0.024981  d :     0.394276
      dxz     :     0.082702
      dyz     :     0.022831
      dx2y2   :     0.127260
      dxy     :     0.136501
      f0      :     0.003115  f :     0.043573
      f+1     :     0.003999
      f-1     :     0.003237
      f+2     :     0.005228
      f-2     :     0.004742
      f+3     :     0.008679
      f-3     :     0.014572

  5 C s       :     2.707113  s :     2.707113
      pz      :     0.894166  p :     2.925747
      px      :     0.998968
      py      :     1.032614
      dz2     :     0.035606  d :     0.489737
      dxz     :     0.044491
      dyz     :     0.072650
      dx2y2   :     0.179335
      dxy     :     0.157656
      f0      :     0.004032  f :     0.055963
      f+1     :     0.004352
      f-1     :     0.004371
      f+2     :     0.003914
      f-2     :     0.006859
      f+3     :     0.011055
      f-3     :     0.021380

  6 C s       :     2.814510  s :     2.814510
      pz      :     0.704330  p :     2.697607
      px      :     1.009542
      py      :     0.983734
      dz2     :     0.040121  d :     0.644160
      dxz     :     0.106625
      dyz     :     0.034353
      dx2y2   :     0.296039
      dxy     :     0.167023
      f0      :     0.006428  f :     0.090226
      f+1     :     0.006509
      f-1     :     0.006146
      f+2     :     0.003646
      f-2     :     0.013511
      f+3     :     0.023949
      f-3     :     0.030037

  7 O s       :     3.421509  s :     3.421509
      pz      :     1.251938  p :     4.431514
      px      :     1.586987
      py      :     1.592589
      dz2     :     0.007647  d :     0.066904
      dxz     :     0.006363
      dyz     :     0.006760
      dx2y2   :     0.022110
      dxy     :     0.024023
      f0      :     0.000336  f :     0.005573
      f+1     :     0.000452
      f-1     :     0.000507
      f+2     :     0.000008
      f-2     :     0.000671
      f+3     :     0.001812
      f-3     :     0.001786

  8 O s       :     3.320762  s :     3.320762
      pz      :     1.704130  p :     4.510800
      px      :     1.404555
      py      :     1.402116
      dz2     :     0.008412  d :     0.071637
      dxz     :     0.013060
      dyz     :     0.000671
      dx2y2   :     0.029980
      dxy     :     0.019513
      f0      :     0.000390  f :     0.004837
      f+1     :     0.000662
      f-1     :     0.000486
      f+2     :     0.000545
      f-2     :     0.000020
      f+3     :     0.000959
      f-3     :     0.001775

  9 H s       :     0.783060  s :     0.783060
      pz      :     0.011559  p :     0.059565
      px      :     0.021085
      py      :     0.026921

 10 H s       :     0.798094  s :     0.798094
      pz      :     0.014540  p :     0.058847
      px      :     0.013707
      py      :     0.030601

 11 H s       :     0.790011  s :     0.790011
      pz      :     0.014018  p :     0.059531
      px      :     0.019503
      py      :     0.026010

 12 H s       :     0.791635  s :     0.791635
      pz      :     0.012237  p :     0.058135
      px      :     0.014573
      py      :     0.031325

 13 H s       :     0.828883  s :     0.828883
      pz      :     0.007418  p :     0.054077
      px      :     0.010589
      py      :     0.036070

 14 H s       :     0.659508  s :     0.659508
      pz      :     0.041526  p :     0.149323
      px      :     0.028187
      py      :     0.079610


---------------------------------
LOEWDIN BOND ORDERS (THRESH 0.050000)
---------------------------------
B(  0-C ,  1-C ) :   1.6247 B(  0-C ,  2-C ) :   0.2477 B(  0-C ,  3-C ) :   0.0994 
B(  0-C ,  4-C ) :   0.2179 B(  0-C ,  5-C ) :   1.4195 B(  0-C ,  6-C ) :   0.1920 
B(  0-C ,  9-H ) :   0.8142 B(  0-C , 10-H ) :   0.0962 B(  1-C ,  2-C ) :   1.4624 
B(  1-C ,  3-C ) :   0.2146 B(  1-C ,  4-C ) :   0.0976 B(  1-C ,  5-C ) :   0.2336 
B(  1-C ,  8-O ) :   0.1461 B(  1-C ,  9-H ) :   0.0987 B(  1-C , 10-H ) :   0.8243 
B(  2-C ,  3-C ) :   1.4686 B(  2-C ,  4-C ) :   0.2501 B(  2-C ,  5-C ) :   0.0929 
B(  2-C ,  8-O ) :   1.6700 B(  2-C , 10-H ) :   0.0952 B(  2-C , 11-H ) :   0.0962 
B(  2-C , 14-H ) :   0.1057 B(  3-C ,  4-C ) :   1.6099 B(  3-C ,  5-C ) :   0.2299 
B(  3-C ,  8-O ) :   0.1539 B(  3-C , 11-H ) :   0.8229 B(  3-C , 12-H ) :   0.0967 
B(  4-C ,  5-C ) :   1.4389 B(  4-C ,  6-C ) :   0.2148 B(  4-C , 11-H ) :   0.0967 
B(  4-C , 12-H ) :   0.8169 B(  5-C ,  6-C ) :   1.2489 B(  5-C ,  7-O ) :   0.1877 
B(  5-C ,  9-H ) :   0.0904 B(  5-C , 12-H ) :   0.0909 B(  5-C , 13-H ) :   0.0894 
B(  6-C ,  7-O ) :   2.6615 B(  6-C , 13-H ) :   0.8549 B(  7-O , 13-H ) :   0.0785 
B(  8-O , 14-H ) :   0.9871 

------------------------------------------
LOEWDIN REDUCED ORBITAL POPULATIONS PER MO
-------------------------------------------
THRESHOLD FOR PRINTING IS 0.1%%
                      0         1         2         3         4         5   
                 -21.72686 -21.66270 -12.14124 -12.13519 -12.07994 -12.07736
                   2.00000   2.00000   2.00000   2.00000   2.00000   2.00000
                  --------  --------  --------  --------  --------  --------
 0 C  s               0.0       0.0       0.0       0.0       0.2      95.2
 1 C  s               0.0       0.0       0.0       0.0       0.0       2.9
 1 C  dx2y2           0.0       0.0       0.0       0.0       0.0       0.2
 1 C  dxy             0.0       0.0       0.2       0.0       0.0       0.0
 2 C  s               0.0       0.0      98.9       0.0       0.0       0.0
 3 C  s               0.0       0.0       0.0       0.0       0.5       0.0
 3 C  dx2y2           0.0       0.0       0.1       0.0       0.2       0.0
 3 C  dxy             0.0       0.0       0.1       0.0       0.0       0.0
 4 C  s               0.0       0.0       0.0       0.0      97.8       0.2
 5 C  s               0.0       0.0       0.0       0.0       0.4       0.6
 5 C  dx2y2           0.0       0.0       0.0       0.1       0.0       0.1
 5 C  dxy             0.0       0.0       0.0       0.0       0.2       0.1
 6 C  s               0.0       0.0       0.0      99.2       0.0       0.0
 7 O  s               0.0      99.7       0.0       0.0       0.0       0.0
 7 O  dxy             0.0       0.0       0.0       0.1       0.0       0.0
 8 O  s              99.8       0.0       0.0       0.0       0.0       0.0

                      6         7         8         9        10        11   
                 -12.07124 -12.06559 -12.06435  -1.74520  -1.69921  -1.40883
                   2.00000   2.00000   2.00000   2.00000   2.00000   2.00000
                  --------  --------  --------  --------  --------  --------
 0 C  s               2.8       0.0       0.6       0.0       0.1      10.4
 0 C  px              0.1       0.0       0.0       0.1       0.2       1.1
 0 C  py              0.0       0.0       0.1       0.0       0.1       2.2
 0 C  dz2             0.1       0.0       0.1       0.0       0.0       0.6
 0 C  dx2y2           0.2       0.0       0.1       0.0       0.0       0.0
 0 C  dxy             0.0       0.0       0.1       0.0       0.0       0.1
 1 C  s              95.8       0.1       0.1       0.4       0.0      10.0
 1 C  px              0.0       0.0       0.0       0.9       0.0       0.8
 1 C  py              0.0       0.0       0.0       0.4       0.0       2.5
 1 C  dz2             0.0       0.0       0.0       0.1       0.0       0.5
 1 C  dxy             0.0       0.0       0.0       0.3       0.0       0.0
 2 C  s               0.0       0.0       0.0       7.4       0.0       8.7
 2 C  px              0.0       0.0       0.0      11.0       0.0       5.2
 2 C  py              0.1       0.1       0.0       0.1       0.0       0.1
 2 C  dz2             0.1       0.1       0.0       1.2       0.0       0.3
 2 C  dx2y2           0.0       0.1       0.0       3.4       0.0       0.2
 2 C  dxy             0.2       0.1       0.0       0.2       0.0       0.0
 2 C  f+1             0.0       0.0       0.0       0.3       0.0       0.0
 2 C  f+3             0.0       0.0       0.0       0.5       0.0       0.1
 3 C  s               0.1      95.4       2.9       0.4       0.0      10.1
 3 C  px              0.0       0.0       0.0       0.7       0.0       1.5
 3 C  py              0.0       0.0       0.0       0.7       0.0       1.9
 3 C  dz2             0.0       0.0       0.0       0.1       0.0       0.5
 3 C  dxy             0.0       0.0       0.0       0.4       0.0       0.0
 4 C  s               0.0       0.4       0.6       0.0       0.0      10.9
 4 C  px              0.0       0.1       0.0       0.0       0.1       0.4
 4 C  py              0.0       0.0       0.1       0.0       0.0       2.8
 4 C  dz2             0.0       0.0       0.1       0.0       0.0       0.6
 4 C  dx2y2           0.0       0.2       0.0       0.0       0.0       0.0
 4 C  dxy             0.0       0.0       0.2       0.0       0.0       0.0
 5 C  s               0.2       3.1      94.5       0.0       0.6      11.8
 5 C  px              0.0       0.0       0.0       0.0       1.8       2.3
 5 C  dz2             0.0       0.0       0.0       0.0       0.1       0.7
 5 C  dx2y2           0.0       0.0       0.0       0.0       0.4       0.0
 5 C  dxy             0.0       0.0       0.0       0.0       0.1       0.0
 5 C  f+3             0.0       0.0       0.0       0.0       0.0       0.1
 6 C  s               0.0       0.0       0.0       0.0      13.9       1.1
 6 C  px              0.0       0.0       0.1       0.0       7.7       2.7
 6 C  py              0.0       0.0       0.0       0.0       9.1       0.0
 6 C  dz2             0.0       0.0       0.1       0.0       1.1       0.0
 6 C  dx2y2           0.0       0.0       0.1       0.0       0.0       0.3
 6 C  dxy             0.0       0.0       0.0       0.0       3.6       0.1
 6 C  f+1             0.0       0.0       0.0       0.0       0.1       0.0
 6 C  f-1             0.0       0.0       0.0       0.0       0.2       0.0
 6 C  f+3             0.0       0.0       0.0       0.0       0.4       0.0
 6 C  f-3             0.0       0.0       0.0       0.0       0.2       0.0
 7 O  s               0.0       0.0       0.0       0.0      53.6       0.2
 7 O  px              0.0       0.0       0.0       0.0       2.2       0.1
 7 O  py              0.0       0.0       0.0       0.0       2.6       0.0
 7 O  dxy             0.0       0.0       0.0       0.0       0.3       0.0
 8 O  s               0.0       0.0       0.0      56.1       0.0       0.7
 8 O  px              0.0       0.0       0.0       1.0       0.0       1.8
 8 O  py              0.0       0.0       0.0       0.4       0.0       0.2
 9 H  s               0.0       0.0       0.0       0.0       0.0       1.2
10 H  s               0.0       0.0       0.0       0.1       0.0       1.1
11 H  s               0.0       0.0       0.0       0.1       0.0       1.1
12 H  s               0.0       0.0       0.0       0.0       0.0       1.3
13 H  s               0.0       0.0       0.0       0.0       0.9       0.2
14 H  s               0.0       0.0       0.0      10.5       0.0       0.4
14 H  px              0.0       0.0       0.0       0.3       0.0       0.0
14 H  py              0.0       0.0       0.0       2.6       0.0       0.1

                     12        13        14        15        16        17   
                  -1.31639  -1.30275  -1.20756  -1.15430  -1.12348  -1.07933
                   2.00000   2.00000   2.00000   2.00000   2.00000   2.00000
                  --------  --------  --------  --------  --------  --------
 0 C  s               1.9      12.4       0.9       8.1       0.7       0.7
 0 C  px              4.1       2.7       2.5       2.9       0.1       4.6
 0 C  py              2.5       0.5       0.6       0.4       0.5       8.0
 0 C  dz2             0.0       0.2       0.0       0.0       0.0       0.0
 0 C  dx2y2           0.9       0.8       0.0       0.5       0.3       0.2
 0 C  dxy             0.6       0.1       0.2       0.0       0.0       0.0
 0 C  f+3             0.0       0.1       0.0       0.0       0.0       0.0
 1 C  s               3.7      13.4       1.0       4.6       0.1       1.8
 1 C  px              2.7       2.4       2.3       9.8       1.5       4.6
 1 C  py              1.3       0.3       0.3       0.5       0.0       7.1
 1 C  dz2             0.1       0.2       0.0       0.0       0.0       0.0
 1 C  dx2y2           0.4       0.9       0.0       0.5       0.1       0.5
 1 C  dxy             0.9       0.0       0.3       0.3       0.0       0.0
 2 C  s              12.0       0.0       4.0       0.5       0.1       2.0
 2 C  px              1.0       0.3       3.7       3.8       4.1       5.0
 2 C  py              0.1      11.4       0.1      12.2       7.0       0.1
 2 C  dz2             0.1       0.0       0.1       0.0       0.0       0.0
 2 C  dx2y2           0.8       0.1       0.0       0.6       0.6       0.7
 2 C  dxy             0.1       2.0       0.3       0.0       0.2       0.6
 2 C  f-3             0.0       0.1       0.0       0.0       0.1       0.1
 3 C  s               3.4      12.4       1.4       0.8       6.3       0.0
 3 C  px              2.5       1.7       5.6       1.7       2.7       2.0
 3 C  py              2.5       0.4       1.7       0.1       0.3       5.7
 3 C  dz2             0.1       0.2       0.0       0.0       0.1       0.0
 3 C  dx2y2           1.0       0.7       0.2       0.1       0.6       0.9
 3 C  dxy             0.4       0.2       0.3       0.1       0.0       0.2
 3 C  f+3             0.0       0.1       0.0       0.0       0.0       0.0
 4 C  s               2.8      11.0       3.4       1.0       4.4       2.8
 4 C  px              6.0       2.6       4.0       1.1       6.2       0.4
 4 C  py              1.2       0.3       0.4       0.2       0.4       4.6
 4 C  dz2             0.1       0.2       0.0       0.0       0.0       0.0
 4 C  dx2y2           0.2       0.9       0.0       0.2       0.9       0.0
 4 C  dxy             1.3       0.0       0.1       0.0       0.2       0.0
 5 C  s              15.8       0.0       2.5       0.1       0.6       2.5
 5 C  px              0.5       0.0       8.4       2.6       5.6       0.0
 5 C  py              0.1       8.5       0.0      10.6       4.3       1.8
 5 C  dz2             0.3       0.0       0.0       0.0       0.0       0.1
 5 C  dx2y2           0.0       0.1       0.3       0.9       0.9       0.0
 5 C  dxy             0.0       2.1       0.3       0.1       0.7       0.0
 5 C  f+3             0.1       0.0       0.0       0.0       0.0       0.0
 6 C  s               3.9       0.0       7.1       4.0       5.5       1.3
 6 C  px              6.4       0.0       3.8       0.2       0.0       2.4
 6 C  py              0.1       0.2       0.5       2.2       0.3       1.6
 6 C  dz2             0.1       0.0       0.0       0.0       0.2       0.1
 6 C  dx2y2           0.6       0.0       0.1       0.0       0.1       0.1
 6 C  dxy             0.2       0.1       0.5       0.0       1.3       0.0
 7 O  s               0.9       0.0       2.4       1.3       4.7       2.1
 7 O  px              0.7       0.0       2.6       1.2       6.7       1.8
 7 O  py              0.3       0.0       1.7       2.5       7.6       8.2
 7 O  dxy             0.0       0.0       0.1       0.1       0.2       0.1
 8 O  s               1.4       0.0       0.6       0.4       0.2       0.6
 8 O  px              7.0       0.1      18.0       1.3      11.1       1.8
 8 O  py              1.1       0.6       6.2      10.1       1.0       9.7
 8 O  dx2y2           0.3       0.0       0.6       0.1       0.2       0.1
 8 O  dxy             0.0       0.1       0.0       0.1       0.2       0.0
 9 H  s               0.3       2.0       0.2       2.8       0.5       0.8
 9 H  px              0.0       0.1       0.0       0.1       0.0       0.2
 9 H  py              0.1       0.1       0.0       0.3       0.0       0.0
10 H  s               0.6       2.2       0.2       2.0       0.1       2.0
10 H  px              0.0       0.1       0.0       0.0       0.0       0.2
10 H  py              0.1       0.2       0.0       0.3       0.0       0.1
11 H  s               0.5       2.0       0.2       0.5       2.6       0.2
11 H  px              0.0       0.1       0.1       0.0       0.0       0.1
11 H  py              0.1       0.1       0.0       0.1       0.2       0.0
12 H  s               0.5       1.8       0.7       0.7       1.8       3.1
12 H  px              0.0       0.1       0.1       0.0       0.0       0.1
12 H  py              0.1       0.2       0.0       0.1       0.2       0.2
13 H  s               0.7       0.0       1.7       2.0       1.7       1.4
13 H  py              0.0       0.0       0.2       0.2       0.2       0.2
14 H  s               1.8       0.1       6.0       2.9       2.3       3.6
14 H  px              0.0       0.0       0.0       0.0       0.1       0.0
14 H  py              0.3       0.0       0.5       0.1       0.2       0.1

                     18        19        20        21        22        23   
                  -1.03260  -1.01909  -0.98746  -0.97252  -0.95029  -0.92147
                   2.00000   2.00000   2.00000   2.00000   2.00000   2.00000
                  --------  --------  --------  --------  --------  --------
 0 C  s               0.8       0.2       0.8       0.0       0.0       1.0
 0 C  px              4.8       0.5       0.4       0.0       5.3       1.2
 0 C  py              0.4       4.6       0.5       0.0       4.4       4.8
 0 C  dx2y2           0.2       0.4       0.2       0.0       0.1       0.2
 0 C  dxy             0.0       0.4       0.2       0.0       0.0       2.1
 0 C  f-3             0.0       0.0       0.0       0.0       0.1       0.2
 1 C  s               1.0       0.6       0.8       0.0       0.0       1.1
 1 C  pz              0.0       0.0       0.0       0.6       0.0       0.0
 1 C  px              0.9       0.1       3.8       0.0       7.2       1.5
 1 C  py              0.1       4.3       0.1       0.0       2.2      12.3
 1 C  dxz             0.0       0.0       0.0       0.2       0.0       0.0
 1 C  dyz             0.0       0.0       0.0       0.2       0.0       0.0
 1 C  dx2y2           0.7       0.0       0.3       0.0       0.0       0.2
 1 C  dxy             0.0       0.1       0.1       0.0       0.1       2.4
 1 C  f-3             0.1       0.0       0.0       0.0       0.0       0.1
 2 C  s               0.1       0.1       0.1       0.0       0.0       1.3
 2 C  pz              0.0       0.0       0.0      12.2       0.0       0.0
 2 C  px              3.2       0.8       0.6       0.0       0.3       2.0
 2 C  py              3.8       0.0       1.7       0.0       8.4       0.0
 2 C  dz2             0.0       0.0       0.0       0.0       0.0       0.2
 2 C  dxz             0.0       0.0       0.0       3.9       0.0       0.0
 2 C  dx2y2           0.1       0.8       0.0       0.0       0.1       0.9
 2 C  dxy             1.9       0.1       0.9       0.0       0.6       0.0
 2 C  f0              0.0       0.0       0.0       0.3       0.0       0.0
 2 C  f+2             0.0       0.0       0.0       0.5       0.0       0.0
 2 C  f-3             0.1       0.0       0.3       0.0       0.3       0.0
 3 C  s               0.1       1.9       0.0       0.0       0.0       1.2
 3 C  pz              0.0       0.0       0.0       0.6       0.0       0.0
 3 C  px              2.6       0.6       1.3       0.0       6.9       2.0
 3 C  py              3.6       5.0       0.6       0.0       3.6       4.5
 3 C  dxz             0.0       0.0       0.0       0.1       0.0       0.0
 3 C  dyz             0.0       0.0       0.0       0.4       0.0       0.0
 3 C  dx2y2           0.1       0.0       0.0       0.0       0.1       0.2
 3 C  dxy             0.0       0.0       0.0       0.0       0.0       2.1
 3 C  f-3             0.0       0.0       0.0       0.0       0.0       0.2
 4 C  s               0.2       0.2       0.1       0.0       0.1       1.0
 4 C  px              4.2       0.7       0.9       0.0      10.1       0.8
 4 C  py              1.1       4.7       0.6       0.0       1.1      11.4
 4 C  dx2y2           0.1       1.1       0.0       0.0       0.0       0.2
 4 C  dxy             0.0       0.1       0.0       0.0       0.1       2.1
 4 C  f-3             0.1       0.0       0.0       0.0       0.0       0.1
 5 C  s               0.1       0.1       0.1       0.0       0.0       1.6
 5 C  px              0.5      14.1       1.2       0.0       0.3       2.5
 5 C  py              6.3       0.0       0.9       0.0       9.2       0.0
 5 C  dz2             0.0       0.0       0.0       0.0       0.0       0.2
 5 C  dx2y2           0.2       0.1       0.2       0.0       0.0       0.4
 5 C  dxy             0.2       0.2       1.0       0.0       0.7       0.0
 5 C  f-3             0.0       0.0       0.1       0.0       0.2       0.0
 6 C  s               0.4       0.9       1.1       0.0       0.8       0.1
 6 C  px              1.4      12.7       4.7       0.0       0.9       0.3
 6 C  py              3.0       1.2      17.3       0.0       5.0       0.0
 6 C  dx2y2           0.1       0.1       0.4       0.0       0.1       0.4
 6 C  dxy             0.5       0.2       0.0       0.0       0.9       0.0
 6 C  f+3             0.0       0.0       0.1       0.0       0.1       0.0
 6 C  f-3             0.0       0.0       0.2       0.0       0.4       0.0
 7 O  s               1.6       3.4       0.6       0.0       0.4       0.0
 7 O  px              5.7       3.7      23.0       0.0      11.8       0.4
 7 O  py              3.1      21.0       4.5       0.0       0.8       1.2
 7 O  dx2y2           0.0       0.1       0.3       0.0       0.0       0.0
 7 O  dxy             0.1       0.1       0.0       0.0       0.0       0.0
 8 O  s               3.4       0.4       1.3       0.0       0.9       0.0
 8 O  pz              0.0       0.0       0.0      78.5       0.0       0.0
 8 O  px             17.6       1.3       4.2       0.0       1.7       0.3
 8 O  py             20.2       2.6       9.9       0.0       7.3       0.0
 8 O  dz2             0.1       0.0       0.1       0.0       0.0       0.0
 8 O  dxy             0.0       0.0       0.1       0.0       0.3       0.0
 9 H  s               0.9       1.8       0.3       0.0       0.0       5.6
 9 H  py              0.1       0.0       0.0       0.0       0.0       0.1
10 H  s               0.3       2.4       1.4       0.0       0.0      11.7
10 H  py              0.0       0.1       0.1       0.0       0.0       0.3
11 H  s               0.2       4.0       0.0       0.0       0.0       6.5
11 H  px              0.1       0.1       0.0       0.0       0.1       0.1
11 H  py              0.0       0.1       0.0       0.0       0.1       0.1
12 H  s               0.1       0.6       0.1       0.0       0.2       9.8
12 H  px              0.1       0.0       0.0       0.0       0.1       0.1
12 H  py              0.0       0.0       0.0       0.0       0.1       0.2
13 H  s               1.1       0.2       9.7       0.0       3.8       0.2
13 H  px              0.1       0.2       0.0       0.0       0.0       0.0
13 H  py              0.0       0.0       0.6       0.0       0.2       0.0
14 H  s               1.2       0.3       1.4       0.0       1.6       0.0
14 H  pz              0.0       0.0       0.0       1.8       0.0       0.0
14 H  px              0.6       0.1       0.2       0.0       0.1       0.0

                     24        25        26        27        28        29   
                  -0.90780  -0.89979  -0.89387  -0.82818  -0.79743  -0.78960
                   2.00000   2.00000   2.00000   2.00000   2.00000   2.00000
                  --------  --------  --------  --------  --------  --------
 0 C  s               0.4       0.3       0.0       0.2       0.0       0.0
 0 C  pz              0.0       0.0       0.3       0.0       0.0      16.4
 0 C  px             12.9       6.7       0.0       1.0       0.8       0.0
 0 C  py              1.0       9.3       0.0       9.0       1.7       0.0
 0 C  dxz             0.0       0.0       0.0       0.0       0.0       0.2
 0 C  dyz             0.0       0.0       0.1       0.0       0.0       0.3
 0 C  dx2y2           0.4       0.4       0.0       0.1       0.2       0.0
 0 C  dxy             0.2       0.2       0.0       3.5       0.1       0.0
 0 C  f0              0.0       0.0       0.0       0.0       0.0       0.1
 1 C  s               0.2       0.2       0.0       0.1       0.0       0.0
 1 C  pz              0.0       0.0       0.1       0.0       0.0      15.1
 1 C  px              9.6       2.7       0.0       0.6       0.9       0.0
 1 C  py              1.8       8.4       0.0       6.8       0.5       0.0
 1 C  dz2             0.0       0.1       0.0       0.0       0.0       0.0
 1 C  dxz             0.0       0.0       0.0       0.0       0.0       0.2
 1 C  dyz             0.0       0.0       0.0       0.0       0.0       0.3
 1 C  dx2y2           0.3       0.4       0.0       0.8       0.1       0.0
 1 C  dxy             0.0       0.1       0.0       2.2       0.4       0.0
 1 C  f-3             0.0       0.2       0.0       0.0       0.0       0.0
 2 C  s               0.6       0.0       0.0       0.0       0.0       0.0
 2 C  pz              0.0       0.0       0.2       0.0       0.0       8.4
 2 C  px              0.9       0.0       0.0       0.1       0.0       0.0
 2 C  py              0.1       1.4       0.0       7.5       0.1       0.0
 2 C  dxz             0.0       0.0       0.0       0.0       0.0       1.9
 2 C  dx2y2           2.7       0.0       0.0       0.0       0.1       0.0
 2 C  dxy             0.2       1.5       0.0       0.6       0.0       0.0
 2 C  f+2             0.0       0.0       0.0       0.0       0.0       0.1
 2 C  f-3             0.0       0.5       0.0       0.0       0.0       0.0
 3 C  s               0.2       0.4       0.0       0.2       0.0       0.0
 3 C  pz              0.0       0.0       0.1       0.0       0.0      14.3
 3 C  px             10.4       8.3       0.0       0.9       0.6       0.0
 3 C  py              0.2      11.0       0.0       8.1       0.0       0.0
 3 C  dz2             0.0       0.1       0.0       0.0       0.0       0.0
 3 C  dxz             0.0       0.0       0.0       0.0       0.0       0.4
 3 C  dyz             0.0       0.0       0.0       0.0       0.0       0.2
 3 C  dx2y2           0.3       0.4       0.0       0.0       0.0       0.0
 3 C  dxy             0.0       0.3       0.0       3.4       0.0       0.0
 4 C  s               0.4       0.3       0.0       0.1       0.0       0.0
 4 C  pz              0.0       0.0       0.2       0.0       0.0      16.9
 4 C  px             10.8       3.3       0.0       0.4       0.5       0.0
 4 C  py              3.5       7.6       0.0       9.7       0.1       0.0
 4 C  dz2             0.0       0.1       0.0       0.1       0.0       0.0
 4 C  dyz             0.0       0.0       0.0       0.0       0.0       0.4
 4 C  dx2y2           0.7       0.4       0.0       0.8       0.6       0.0
 4 C  dxy             0.1       0.1       0.0       2.1       0.3       0.0
 4 C  f0              0.0       0.0       0.0       0.0       0.0       0.1
 4 C  f-3             0.0       0.2       0.0       0.0       0.1       0.0
 5 C  s               0.2       0.0       0.0       0.0       0.6       0.0
 5 C  pz              0.0       0.0       2.9       0.0       0.0      14.8
 5 C  px              0.8       0.0       0.0       0.7       8.4       0.0
 5 C  py              0.1       0.9       0.0       7.8       0.9       0.0
 5 C  dxz             0.0       0.0       1.2       0.0       0.0       0.9
 5 C  dx2y2           4.4       0.0       0.0       0.0       0.5       0.0
 5 C  dxy             0.4       1.1       0.0       0.6       0.2       0.0
 5 C  f0              0.0       0.0       0.1       0.0       0.0       0.1
 5 C  f+2             0.0       0.0       0.1       0.0       0.0       0.1
 5 C  f-3             0.0       0.5       0.0       0.1       0.0       0.0
 6 C  s               0.9       0.0       0.0       0.0       0.5       0.0
 6 C  pz              0.0       0.0      32.8       0.0       0.0       0.1
 6 C  px              2.0       0.0       0.0       0.1       5.0       0.0
[...]
 3 C  px              0.1       0.0       0.1       0.0       0.0       0.1
 3 C  py              0.0       0.0       0.2       0.0       0.0       0.0
 3 C  dx2y2           0.1       0.0       0.0       0.0       0.0       0.1
 3 C  f+3             0.0       0.0       0.1       0.0       0.0       0.1
 4 C  s               0.0       0.0       0.1       0.0       0.0       0.1
 5 C  px              0.0       0.0       0.0       0.0       0.1       0.0
 5 C  dxy             0.0       0.0       0.0       0.6       0.3       0.0
 5 C  f+3             0.0       0.0       0.0       0.1       0.4       0.0
 6 C  s               0.0       0.0       0.0       1.3       2.1       0.0
 6 C  pz              0.0       1.8       0.0       0.0       0.0       0.0
 6 C  px              0.0       0.0       0.0       0.9       1.3       0.0
 6 C  py              0.0       0.0       0.0       1.2       1.2       0.0
 6 C  dz2             0.0       0.0       0.0       0.1       0.1       0.0
 6 C  dxz             0.0       1.5       0.0       0.0       0.0       0.0
 6 C  dyz             0.0       1.7       0.0       0.0       0.0       0.0
 6 C  dx2y2           0.0       0.0       0.0       2.9       1.1       0.0
 6 C  dxy             0.0       0.0       0.0       0.1       0.7       0.0
 6 C  f0              0.0       0.3       0.0       0.0       0.0       0.0
 6 C  f+1             0.0       0.0       0.0       0.0       0.4       0.0
 6 C  f-1             0.0       0.0       0.0       0.2       0.1       0.0
 6 C  f-2             0.0       0.4       0.0       0.0       0.0       0.0
 6 C  f+3             0.0       0.0       0.0       1.0       0.3       0.0
 6 C  f-3             0.0       0.0       0.0       0.0       1.6       0.0
 7 O  s               0.0       0.0       0.0       0.4       1.4       0.0
 7 O  pz              0.0       2.1       0.0       0.0       0.0       0.0
 7 O  px              0.0       0.0       0.0       0.5       2.7       0.0
 7 O  py              0.0       0.0       0.0       2.2       0.3       0.0
 7 O  dz2             0.0       0.0       0.1       4.0      17.0       0.0
 7 O  dxz             0.0      32.3       0.0       0.0       0.0       0.0
 7 O  dyz             0.0      34.6       0.0       0.0       0.0       0.0
 7 O  dx2y2           0.0       0.0       0.5      46.1      14.0       0.0
 7 O  dxy             0.1       0.0       0.9      15.4      35.5       0.0
 7 O  f0              0.0       9.3       0.0       0.0       0.0       0.0
 7 O  f+1             0.0       0.0       0.0       0.0       4.1       0.0
 7 O  f-1             0.0       0.0       0.0       2.0       1.5       0.0
 7 O  f-2             0.0      15.7       0.0       0.0       0.0       0.0
 7 O  f+3             0.1       0.0       0.1      13.6       0.0       0.0
 7 O  f-3             0.0       0.0       0.0       5.1      12.4       0.0
 8 O  s               2.2       0.0       1.0       0.0       0.0       2.9
 8 O  px              0.4       0.0       1.8       0.0       0.0       0.2
 8 O  py              3.9       0.0       0.8       0.0       0.0       0.5
 8 O  dz2            41.5       0.0       7.5       0.4       0.0       5.8
 8 O  dx2y2           0.1       0.0      57.1       0.8       0.2      15.0
 8 O  dxy            28.4       0.0      15.5       0.0       0.1      32.7
 8 O  f+1             2.2       0.0       2.6       0.1       0.0       0.1
 8 O  f-1             5.3       0.0       1.3       0.0       0.0       2.8
 8 O  f+3             6.4       0.0       2.5       0.0       0.0       3.1
 8 O  f-3             0.0       0.0       0.1       0.0       0.0      21.4
13 H  s               0.0       0.0       0.0       0.1       0.0       0.0
14 H  s               2.2       0.0       0.3       0.0       0.0       6.4
14 H  py              0.2       0.0       0.0       0.0       0.0       0.4

                    306       307       308       309       310       311   
                  20.50190  21.04619  21.09002  21.12176  21.27533  21.37592
                   0.00000   0.00000   0.00000   0.00000   0.00000   0.00000
                  --------  --------  --------  --------  --------  --------
 0 C  s              18.9      12.1       6.6      48.1       1.6       0.8
 0 C  px              0.1       0.1       0.1       0.1       0.2       0.0
 0 C  py              0.0       0.1       0.1       0.0       0.1       0.0
 1 C  s              20.4      37.7       8.5      18.1       6.0       0.6
 1 C  px              0.1       0.1       0.2       0.2       0.0       0.1
 2 C  s               8.7       0.4      18.0       0.8      12.0      32.4
 2 C  px              0.2       0.0       0.0       0.0       0.0       0.0
 2 C  py              0.0       0.7       0.0       0.0       0.0       0.0
 2 C  dx2y2           0.1       0.0       0.0       0.0       0.0       0.0
 2 C  dxy             0.0       0.3       0.0       0.0       0.0       0.0
 3 C  s              19.4      37.0      15.9       5.9      10.0       1.2
 3 C  px              0.1       0.0       0.2       0.0       0.0       0.1
 3 C  py              0.0       0.0       0.1       0.0       0.0       0.1
 3 C  dx2y2           0.0       0.0       0.1       0.0       0.0       0.0
 4 C  s              18.8      10.0      30.8      24.7       1.0       2.1
 4 C  px              0.0       0.2       0.1       0.0       0.3       0.1
 5 C  s              11.1       0.0       9.3       0.7      39.3       4.3
 5 C  px              0.2       0.0       0.1       0.0       0.2       0.2
 5 C  py              0.0       0.4       0.0       0.4       0.0       0.0
 5 C  dx2y2           0.0       0.0       0.1       0.0       0.2       0.1
 5 C  dxy             0.0       0.2       0.0       0.2       0.0       0.0
 6 C  s               0.5       0.0       8.6       0.0      27.6      55.7
 6 C  px              0.2       0.0       0.0       0.0       0.1       0.0
 7 O  s               0.1       0.0       0.0       0.0       0.3       0.5
 7 O  px              0.0       0.0       0.0       0.0       0.1       0.2
 7 O  py              0.0       0.0       0.0       0.0       0.1       0.2
 8 O  s               0.2       0.0       0.1       0.0       0.0       0.1
 8 O  px              0.1       0.0       0.1       0.0       0.1       0.1
 9 H  s               0.1       0.0       0.0       0.1       0.0       0.0
13 H  s               0.0       0.0       0.0       0.0       0.1       0.1

                    312       313       314   
                  21.71040  41.46223  41.54666
                   0.00000   0.00000   0.00000
                  --------  --------  --------
 0 C  s               9.8       0.0       0.0
 1 C  s               6.8       0.0       0.0
 2 C  s              25.1       0.0       0.0
 3 C  s               8.7       0.0       0.0
 4 C  s              10.2       0.0       0.0
 5 C  s              33.8       0.0       0.0
 6 C  s               3.9       0.0       0.0
 7 O  s               0.0      93.7       6.1
 8 O  s               0.1       6.1      93.7
 8 O  px              0.1       0.0       0.0


                      *****************************
                      * MAYER POPULATION ANALYSIS *
                      *****************************

  NA   - Mulliken gross atomic population
  ZA   - Total nuclear charge
  QA   - Mulliken gross atomic charge
  VA   - Mayer's total valence
  BVA  - Mayer's bonded valence
  FA   - Mayer's free valence

  ATOM       NA         ZA         QA         VA         BVA        FA
  0 C      6.2085     6.0000    -0.2085     4.0305     4.0305    -0.0000
  1 C      6.1550     6.0000    -0.1550     3.8133     3.8133    -0.0000
  2 C      5.7501     6.0000     0.2499     4.0634     4.0634     0.0000
  3 C      6.1927     6.0000    -0.1927     3.9460     3.9460    -0.0000
  4 C      6.1499     6.0000    -0.1499     3.9578     3.9578    -0.0000
  5 C      5.8609     6.0000     0.1391     3.4684     3.4684    -0.0000
  6 C      5.9132     6.0000     0.0868     4.1137     4.1137     0.0000
  7 O      8.3206     8.0000    -0.3206     2.1548     2.1548     0.0000
  8 O      8.3737     8.0000    -0.3737     2.1214     2.1214     0.0000
  9 H      0.8474     1.0000     0.1526     0.9898     0.9898    -0.0000
 10 H      0.8797     1.0000     0.1203     0.9769     0.9769    -0.0000
 11 H      0.8683     1.0000     0.1317     0.9828     0.9828    -0.0000
 12 H      0.8702     1.0000     0.1298     0.9724     0.9724    -0.0000
 13 H      0.9292     1.0000     0.0708     0.9647     0.9647     0.0000
 14 H      0.6805     1.0000     0.3195     0.9124     0.9124     0.0000

  Mayer bond orders larger than 0.100000
B(  0-C ,  1-C ) :   1.4580 B(  0-C ,  5-C ) :   1.3596 B(  0-C ,  9-H ) :   0.9403 
B(  1-C ,  2-C ) :   1.3263 B(  1-C , 10-H ) :   0.9567 B(  2-C ,  3-C ) :   1.3975 
B(  2-C ,  8-O ) :   1.1808 B(  3-C ,  4-C ) :   1.4651 B(  3-C , 11-H ) :   0.9728 
B(  4-C ,  5-C ) :   1.3446 B(  4-C , 12-H ) :   0.9606 B(  5-C ,  6-C ) :   0.9242 
B(  5-C ,  7-O ) :  -0.1367 B(  5-C , 13-H ) :  -0.1023 B(  6-C ,  7-O ) :   2.1096 
B(  6-C , 13-H ) :   1.0205 B(  8-O , 14-H ) :   0.8839 

-------
TIMINGS
-------

Total SCF time: 0 days 0 hours 2 min 37 sec 

Total time                  ....     157.855 sec
Sum of individual times     ....     154.894 sec  ( 98.1%)

SCF preparation             ....       0.206 sec  (  0.1%)
Fock matrix formation       ....     152.668 sec  ( 96.7%)
  Startup                   ....       0.064 sec  (  0.0% of F)
  Split-RI-J                ....       6.494 sec  (  4.3% of F)
  Chain of spheres X        ....     131.340 sec  ( 86.0% of F)
  XC integration            ....      16.051 sec  ( 10.5% of F)
    XC Preparation          ....       0.000 sec  (  0.0% of XC)
    Basis function eval.    ....       3.555 sec  ( 22.1% of XC)
    Density eval.           ....       2.849 sec  ( 17.8% of XC)
    XC-Functional eval.     ....       3.118 sec  ( 19.4% of XC)
    XC-Potential eval.      ....       5.365 sec  ( 33.4% of XC)
Diagonalization             ....       0.000 sec  (  0.0%)
Density matrix formation    ....       0.245 sec  (  0.2%)
Total Energy calculation    ....       0.047 sec  (  0.0%)
Population analysis         ....       0.175 sec  (  0.1%)
Orbital Transformation      ....       0.073 sec  (  0.0%)
Orbital Orthonormalization  ....       0.000 sec  (  0.0%)
DIIS solution               ....       0.784 sec  (  0.5%)
  MO trafo                  ....       0.000 sec  (  0.0 % of DIIS)
  Orb grad                  ....       0.000 sec  (  0.0 % of DIIS)
  Energy W gradient         ....       0.000 sec  (  0.0 % of DIIS)
  DIIS error                ....       0.014 sec  (  1.8 % of DIIS)
  DIIS work                 ....       0.723 sec  ( 92.2 % of DIIS)
  Form Q                    ....       0.000 sec  (  0.0 % of DIIS)
  Form QpQm                 ....       0.000 sec  (  0.0 % of DIIS)
  Exp/Cayley                ....       0.000 sec  (  0.0 % of DIIS)
  Orb update                ....       0.000 sec  (  0.0 % of DIIS)
  Wake-sleep                ....       0.012 sec  (  1.5 % of DIIS)
SOSCF solution              ....       0.473 sec  (  0.3%)
  MO trafo                  ....       0.105 sec  ( 22.2 % of SOSCF)
  Orb grad                  ....       0.004 sec  (  0.8 % of SOSCF)
  Rot update                ....       0.264 sec  ( 55.8 % of SOSCF)
  Step                      ....       0.100 sec  ( 21.2 % of SOSCF)
Grid generation             ....       0.223 sec  (  0.1%)
Finished LeanSCF after 158.0 sec

Maximum memory used throughout the entire LEANSCF-calculation: 41.0 MB
------------------   -----------------
gCP correction             0.007539345
------------------   -----------------

-------------------------   --------------------
FINAL SINGLE POINT ENERGY      -420.821852594615
-------------------------   --------------------


------------------------------------------------------------------------------
                              ORCA PROPERTY CALCULATIONS
------------------------------------------------------------------------------

GBWName                                 ... sp_gas.gbw
Number of atoms                         ...     15
Number of basis functions               ...    315
Max core memory                         ...   1024 MB

Electric properties:
Dipole moment                           ... YES
Quadrupole moment                       ...  NO
Static polarizability (Dipole/Dipole)   ...  NO
Static polarizability (Dipole/Quad.)    ...  NO
Static polarizability (Quad./Quad.)     ...  NO
Static polarizability (Velocity)        ...  NO

Atomic electric properties:
Dipole moment                           ...  NO
Quadrupole moment                       ...  NO
Static polarizability                   ...  NO

Choice of electric origin               ... Center of mass
Position of electric origin             ...    -0.004284     0.002204     0.000036

General magnetic properties:
Magnetizability                         ...  NO

EPR properties:
g-Tensor (aka g-matrix)                 ...  NO
Zero-Field splitting spin-orbit         ...  NO
Zero-field splitting spin-spin          ...  NO
Hyperfine couplings                     ...  NO (   0 nuclei)
Quadrupole couplings                    ...  NO (   0 nuclei)
Contact density                         ...  NO (   0 nuclei)

NMR properties:
Chemical shifts                         ...  NO (   0 nuclei)
Spin-rotation constants                 ...  NO (   0 nuclei)
Spin-spin couplings                     ...  NO (   0 nuclei,    0 pairs)

Choice of magnetic origin               ... GIAO
Position of magnetic origin             ...     0.000000     0.000000     0.000000

Properties with geometric perturbations:
SCF Hessian                             ...  NO
IR spectrum                             ...  NO
VCD spectrum                            ...  NO
X-ray spectroscopy properties:
SCF XES/XAS/RIXS spectra                ...  NO


-------------
DIPOLE MOMENT
-------------

Method             : SCF
Type of density    : Electron Density
Multiplicity       :   1
Irrep              :   0
Energy             :  -420.8293919394148475 Eh
Relativity type    : 
Basis              : AO
                                X                 Y                 Z
Electronic contribution:     -0.760170950      -0.541013326      -0.000203324
Nuclear contribution   :      2.144978727       0.576773349       0.000329790
                        -----------------------------------------
Total Dipole Moment    :      1.384807777       0.035760022       0.000126466
                        -----------------------------------------
Magnitude (a.u.)       :      1.385269423
Magnitude (Debye)      :      3.521075050



--------------------
Rotational spectrum 
--------------------
 
Rotational constants in cm-1:             0.169393             0.033316             0.027840 
Rotational constants in MHz :          5078.265914           998.790874           834.635225 

Dipole components along the rotational axes: 
x,y,z [a.u.] :     1.384697    -0.039830     0.000097 
x,y,z [Debye]:     3.519619    -0.101241     0.000248 

 

Dipole moment calculation done in   0.0 sec 

Maximum memory used throughout the entire PROP-calculation: 26.2 MB

--------------------------------
SUGGESTED CITATIONS FOR THIS RUN
--------------------------------

Below you find a list of papers that are relevant to this ORCA run
We neither can nor want to force you to cite these papers, but we appreciate if you do
You receive ORCA, which is the product of decades of hard work by many enthusiastic individuals, for free
The only thing we kindly ask in return is that you cite our papers,
We deeply appreciate it, if you show your appreciation for ORCA by not just citing the generic ORCA reference.

Please note that relegating all ORCA citations to the supporting information does *not* help us.
SI sections are not indexed - citations you put there will not count into any citation statistics
But we need these citations in order to attract the funding resources that allow us to do what we are doing

Therefore, if you are a happy ORCA user, please consider citing a few of the papers listed below in the main body of your paper

In addition to the list printed below, the program has created the file sp_gas.bibtex that contains the list in bibtex format
You can import this file easily into all common literature databanks and citation aid programs


List of essential papers. We consider these as the minimum necessary citations

  1. Neese,F.
     Software update: the ORCA program system, version 5.0
     WIRES Comput. Molec. Sci., 2022 12(1)e1606
     doi.org/10.1002/wcms.1606

List of papers to cite with high priority. The work reported in these papers was absolutely
necessary for this run to complete.
Our perspective: the developers of density functionals and basis sets usually get cited in chemistry papers
Good! But without the algorithms to do something with them, the functionals or basis sets would not do anything.
Hence, in our opinion, the algorithm design and method developments papers are equally worthy of getting cited

  1. Neese,F.
     An improvement of the resolution of the identity approximation for the formation of the Coulomb matrix
     J. Comp. Chem., 2003 24(14)1740-1747
     doi.org/10.1002/jcc.10318
  2. Neese,F.; Wennmohs,F.; Hansen,A.; Becker,U.
     Efficient, approximate and parallel Hartree-Fock and hybrid DFT calculations. A 'chain-of-spheres' algorithm for the Hartree-Fock exchange
     Chem. Phys., 2009 356(1-3)98-109
     doi.org/10.1016/j.chemphys.2008.10.036
  3. Helmich-Paris,B.; de Souza,B.; Neese,F.; Izsák,R.
     An improved chain of spheres for exchange algorithm
     J. Chem. Phys., 2021 155 104109
     doi.org/doi: 10.1063/5.0058766.
  4. Neese,F.
     The SHARK Integral Generation and Digestion System
     J. Comp. Chem., 2022  1-16
     doi.org/10.1002/jcc.26942

List of suggested additional citations. These are papers that are important in the 'surrounding' of 
of this run, or papers that preceded the highly important papers. If you like your results we are grateful for a citation.

  1. Izsak,R.; Neese,F.
     An overlap fitted chain of spheres exchange method
     J. Chem. Phys., 2011 135 144105
     doi.org/10.1063/1.3646921
  2. Izsak,R.; Hansen,A.; Neese,F.
     The resolution of identity and chain of spheres approximations for the LPNO-CCSD singles Fock term
     Molec. Phys., 2012 110 2413-2417
     doi.org/10.1080/00268976.2012.687466
  3. Neese,F.
     The ORCA program system
     WIRES Comput. Molec. Sci., 2012 2(1)73-78
     doi.org/10.1002/wcms.81
  4. Izsak,R.; Neese,F.; Klopper,W.
     Robust fitting techniques in the chain of spheres approximation to the Fock exchange: The role of the complementary space
     J. Chem. Phys., 2013 139 
     doi.org/10.1063/1.4819264
  5. Neese,F.
     Software update: the ORCA program system, version 4.0
     WIRES Comput. Molec. Sci., 2018 8(1)1-6
     doi.org/10.1002/wcms.1327
  6. Neese,F.; Wennmohs,F.; Becker,U.; Riplinger,C.
     The ORCA quantum chemistry program package
     J. Chem. Phys., 2020 152 Art. No. L224108
     doi.org/10.1063/5.0004608

List of optional additional citations

  1. Neese,F.
     Approximate second-order SCF convergence for spin unrestricted wavefunctions
     Chem. Phys. Lett., 2000 325(1-3)93-98
     doi.org/10.1016/s0009-2614(00)00662-x

Timings for individual modules:

Sum of individual times          ...      160.698 sec (=   2.678 min)
Startup calculation              ...        2.166 sec (=   0.036 min)   1.3 %
SCF iterations                   ...      158.420 sec (=   2.640 min)  98.6 %
Property calculations            ...        0.112 sec (=   0.002 min)   0.1 %
                             ****ORCA TERMINATED NORMALLY****
TOTAL RUN TIME: 0 days 0 hours 2 minutes 41 seconds 480 msec
