      -----------------------------------------------------------      
     |                   =====================                   |     
     |                           x T B                           |     
     |                   =====================                   |     
     |                         S. Grimme                         |     
     |          Mulliken Center for Theoretical Chemistry        |     
     |                    University of Bonn                     |     
      -----------------------------------------------------------      

   * xtb version 6.7.1 (edcfbbe) compiled by 'albert@albert-system' on 2024-07-22

   xtb is free software: you can redistribute it and/or modify it under
   the terms of the GNU Lesser General Public License as published by
   the Free Software Foundation, either version 3 of the License, or
   (at your option) any later version.
   
   xtb is distributed in the hope that it will be useful,
   but WITHOUT ANY WARRANTY; without even the implied warranty of
   MERCHANTABILITY or FITNESS FOR A PARTICULAR PURPOSE.  See the
   GNU Lesser General Public License for more details.
   
   Cite this work as:
   * C. Bannwarth, E. Caldeweyher, S. Ehlert, A. Hansen, P. Pracht,
     J. Seibert, S. Spicher, S. Grimme, WIREs Comput. Mol. Sci., 2020, 11,
     e01493. DOI: 10.1002/wcms.1493
   
   for GFN2-xTB:
   * C. Bannwarth, S. Ehlert and S. Grimme., J. Chem. Theory Comput., 2019,
     15, 1652-1671. DOI: 10.1021/acs.jctc.8b01176
   for GFN1-xTB:
   * S. Grimme, C. Bannwarth, P. Shushkov, J. Chem. Theory Comput., 2017,
     13, 1989-2009. DOI: 10.1021/acs.jctc.7b00118
   for GFN0-xTB:
   * P. Pracht, E. Caldeweyher, S. Ehlert, S. Grimme, ChemRxiv, 2019, preprint.
     DOI: 10.26434/chemrxiv.8326202.v1
   for GFN-FF:
   * S. Spicher and S. Grimme, Angew. Chem. Int. Ed., 2020, 59, 15665-15673.
     DOI: 10.1002/anie.202004239
   
   for ALPB and GBSA implicit solvation:
   * S. Ehlert, M. Stahn, S. Spicher, S. Grimme, J. Chem. Theory Comput.,
     2021, 17, 4250-4261. DOI: 10.1021/acs.jctc.1c00471
   
   for ddCOSMO and CPCM-X implicit solvation:
   * M. Stahn, S. Ehlert, S. Grimme, J. Phys. Chem. A,
     2023, XX, XXXX-XXXX. DOI: 10.1021/acs.jpca.3c04382
   
   for DFT-D4:
   * E. Caldeweyher, C. Bannwarth and S. Grimme, J. Chem. Phys., 2017,
     147, 034112. DOI: 10.1063/1.4993215
   * E. Caldeweyher, S. Ehlert, A. Hansen, H. Neugebauer, S. Spicher,
     C. Bannwarth and S. Grimme, J. Chem. Phys., 2019, 150, 154122.
     DOI: 10.1063/1.5090222
   * E. Caldeweyher, J.-M. Mewes, S. Ehlert and S. Grimme, Phys. Chem. Chem. Phys.
     2020, 22, 8499-8512. DOI: 10.1039/D0CP00502A
   
   for sTDA-xTB:
   * S. Grimme and C. Bannwarth, J. Chem. Phys., 2016, 145, 054103.
     DOI: 10.1063/1.4959605
   
   in the mass-spec context:
   * V. Asgeirsson, C. Bauer and S. Grimme, Chem. Sci., 2017, 8, 4879.
     DOI: 10.1039/c7sc00601b
   * J. Koopman and S. Grimme, ACS Omega 2019, 4, 12, 15120-15133.
     DOI: 10.1021/acsomega.9b02011
   
   for metadynamics refer to:
   * S. Grimme, J. Chem. Theory Comput., 2019, 155, 2847-2862
     DOI: 10.1021/acs.jctc.9b00143
   
   for SPH calculations refer to:
   * S. Spicher and S. Grimme, J. Chem. Theory Comput., 2021, 17, 1701-1714
     DOI: 10.1021/acs.jctc.0c01306
   
   for ONIOM refer to:
   * C. Plett, A. Katbashev, S. Ehlert, S. Grimme, M. Bursch,
     Phys. Chem. Chem. Phys., 2023, 25, 17860-17868. DOI: 10.1039/D3CP02178E
   
   for DIPRO refer to:
   * J. Kohn, N. Gildemeister, S. Grimme, D. Fazzi, A. Hansen,
     J. Chem. Phys., 2023, just accepted.
   
   for PTB refer to:
   * S. Grimme, M. Mueller, A. Hansen, J. Chem. Phys., 2023, 158, 124111.
     DOI: 10.1063/5.0137838
   
   with help from (in alphabetical order)
   P. Atkinson, C. Bannwarth, F. Bohle, G. Brandenburg, E. Caldeweyher
   M. Checinski, S. Dohm, S. Ehlert, S. Ehrlich, I. Gerasimov, C. Hölzer
   A. Katbashev, J. Kohn, J. Koopman, C. Lavigne, S. Lehtola, F. März, M. Müller,
   F. Musil, H. Neugebauer, J. Pisarek, C. Plett, P. Pracht, F. Pultar,
   J. Seibert, P. Shushkov, S. Spicher, M. Stahn, M. Steiner, T. Strunk,
   J. Stückrath, T. Rose, and J. Unsleber
   
 * started run on 2025/04/03 at 21:53:28.648     
   ID    Z sym.   atoms
    1    6 C      1-6, 12-17
    2   17 Cl     7-10, 18-21
    3    8 O      11, 22

           -------------------------------------------------
          |                Calculation Setup                |
           -------------------------------------------------

          program call               : /srv/scratch/z5358697/.xtb/bin/xtb gas.coord --gfn2 --sp --chrg 0 --norestart --parallel 1
          hostname                   : k158
          coordinate file            : gas.coord
          omp threads                :                     1


           -------------------------------------------------
          |                 G F N 2 - x T B                 |
           -------------------------------------------------

        Reference                      10.1021/acs.jctc.8b01176
      * Hamiltonian:
        H0-scaling (s, p, d)           1.850000    2.230000    2.230000
        zeta-weighting                 0.500000
      * Dispersion:
        s8                             2.700000
        a1                             0.520000
        a2                             5.000000
        s9                             5.000000
      * Repulsion:
        kExp                           1.500000    1.000000
        rExp                           1.000000
      * Coulomb:
        alpha                          2.000000
        third order                    shell-resolved
        anisotropic                    true
        a3                             3.000000
        a5                             4.000000
        cn-shift                       1.200000
        cn-exp                         4.000000
        max-rad                        5.000000


          ...................................................
          :                      SETUP                      :
          :.................................................:
          :  # basis functions                 136          :
          :  # atomic orbitals                 128          :
          :  # shells                           52          :
          :  # electrons                       116          :
          :  max. iterations                   250          :
          :  Hamiltonian                  GFN2-xTB          :
          :  restarted?                      false          :
          :  GBSA solvation                  false          :
          :  PC potential                    false          :
          :  electronic temp.          300.0000000     K    :
          :  accuracy                    1.0000000          :
          :  -> integral cutoff          0.2500000E+02      :
          :  -> integral neglect         0.1000000E-07      :
          :  -> SCF convergence          0.1000000E-05 Eh   :
          :  -> wf. convergence          0.1000000E-03 e    :
          :  Broyden damping             0.4000000          :
          :  net charge                          0          :
          :  unpaired electrons                  0          :
          ...................................................

 iter      E             dE          RMSdq      gap      omega  full diag
   1    -70.7007402 -0.707007E+02  0.560E+00    2.99       0.0  T
   2    -70.7459064 -0.451661E-01  0.305E+00    2.67       1.0  T
   3    -70.7447813  0.112506E-02  0.119E+00    2.89       1.0  T
   4    -70.7494342 -0.465291E-02  0.132E-01    2.78       1.0  T
   5    -70.7496744 -0.240191E-03  0.731E-02    2.79       1.0  T
   6    -70.7496840 -0.956834E-05  0.399E-02    2.79       1.0  T
   7    -70.7496963 -0.122763E-04  0.185E-02    2.79       1.2  T
   8    -70.7496993 -0.306731E-05  0.128E-02    2.79       1.7  T
   9    -70.7497010 -0.164766E-05  0.509E-03    2.80       4.2  T
  10    -70.7497012 -0.229675E-06  0.234E-03    2.79       9.1  T
  11    -70.7497012 -0.464744E-07  0.120E-03    2.79      17.7  T
  12    -70.7497013 -0.119254E-07  0.527E-04    2.79      40.5  T
  13    -70.7497013 -0.271865E-08  0.282E-04    2.79      75.7  T

   *** convergence criteria satisfied after 13 iterations ***

         #    Occupation            Energy/Eh            Energy/eV
      -------------------------------------------------------------
         1        2.0000           -1.0843398             -29.5064
       ...           ...                  ...                  ...
        52        2.0000           -0.4449888             -12.1088
        53        2.0000           -0.4447594             -12.1025
        54        2.0000           -0.4409295             -11.9983
        55        2.0000           -0.4306453             -11.7185
        56        2.0000           -0.4279868             -11.6461
        57        2.0000           -0.4175598             -11.3624
        58        2.0000           -0.4082681             -11.1095 (HOMO)
        59                         -0.3055632              -8.3148 (LUMO)
        60                         -0.2956329              -8.0446
        61                         -0.2840365              -7.7290
        62                         -0.2677094              -7.2847
        63                         -0.2001521              -5.4464
       ...                                ...                  ...
       128                          0.5913941              16.0927
      -------------------------------------------------------------
                  HL-Gap            0.1027050 Eh            2.7947 eV
             Fermi-level           -0.3569157 Eh           -9.7122 eV

 SCC (total)                   0 d,  0 h,  0 min,  0.060 sec
 SCC setup                      ...        0 min,  0.000 sec (  0.460%)
 Dispersion                     ...        0 min,  0.000 sec (  0.306%)
 classical contributions        ...        0 min,  0.000 sec (  0.060%)
 integral evaluation            ...        0 min,  0.010 sec ( 16.587%)
 iterations                     ...        0 min,  0.030 sec ( 49.897%)
 molecular gradient             ...        0 min,  0.019 sec ( 32.218%)
 printout                       ...        0 min,  0.000 sec (  0.433%)

         :::::::::::::::::::::::::::::::::::::::::::::::::::::
         ::                     SUMMARY                     ::
         :::::::::::::::::::::::::::::::::::::::::::::::::::::
         :: total energy             -70.262961060573 Eh    ::
         :: gradient norm              0.005642736908 Eh/a0 ::
         :: HOMO-LUMO gap              2.794744267916 eV    ::
         ::.................................................::
         :: SCC energy               -70.749849424109 Eh    ::
         :: -> isotropic ES            0.035914073810 Eh    ::
         :: -> anisotropic ES          0.010408721211 Eh    ::
         :: -> anisotropic XC          0.000910286994 Eh    ::
         :: -> dispersion             -0.042967627229 Eh    ::
         :: repulsion energy           0.486888363536 Eh    ::
         :: add. restraining           0.000000000000 Eh    ::
         :: total charge              -0.000000000000 e     ::
         :::::::::::::::::::::::::::::::::::::::::::::::::::::

           -------------------------------------------------
          |                Property Printout                |
           -------------------------------------------------

    * Orbital Energies and Occupations

         #    Occupation            Energy/Eh            Energy/eV
      -------------------------------------------------------------
         1        2.0000           -1.0843398             -29.5064
       ...           ...                  ...                  ...
        46        2.0000           -0.4538560             -12.3501
        47        2.0000           -0.4528737             -12.3233
        48        2.0000           -0.4526873             -12.3182
        49        2.0000           -0.4522321             -12.3059
        50        2.0000           -0.4497440             -12.2382
        51        2.0000           -0.4488152             -12.2129
        52        2.0000           -0.4449888             -12.1088
        53        2.0000           -0.4447594             -12.1025
        54        2.0000           -0.4409295             -11.9983
        55        2.0000           -0.4306453             -11.7185
        56        2.0000           -0.4279868             -11.6461
        57        2.0000           -0.4175598             -11.3624
        58        2.0000           -0.4082681             -11.1095 (HOMO)
        59                         -0.3055632              -8.3148 (LUMO)
        60                         -0.2956329              -8.0446
        61                         -0.2840365              -7.7290
        62                         -0.2677094              -7.2847
        63                         -0.2001521              -5.4464
        64                         -0.1986634              -5.4059
        65                         -0.1832893              -4.9876
        66                         -0.1813717              -4.9354
        67                         -0.1802472              -4.9048
        68                         -0.1672842              -4.5520
        69                         -0.1630338              -4.4364
       ...                                ...                  ...
       128                          0.5913941              16.0927
      -------------------------------------------------------------
                  HL-Gap            0.1027050 Eh            2.7947 eV
             Fermi-level           -0.3569157 Eh           -9.7122 eV

     #   Z          covCN         q      C6AA      α(0)
     1   6 C        2.932     0.108    25.620     8.301
     2   6 C        2.932     0.108    25.621     8.301
     3   6 C        2.920     0.059    26.688     8.472
     4   6 C        2.950     0.067    26.505     8.444
     5   6 C        2.950     0.067    26.506     8.444
     6   6 C        2.920     0.059    26.687     8.471
     7  17 Cl       0.994    -0.072   101.418    15.407
     8  17 Cl       1.019    -0.071   101.376    15.404
     9  17 Cl       1.019    -0.071   101.374    15.404
    10  17 Cl       0.994    -0.072   101.419    15.407
    11   8 O        1.709    -0.180    17.016     5.569
    12   6 C        2.932     0.108    25.620     8.301
    13   6 C        2.932     0.108    25.621     8.301
    14   6 C        2.920     0.059    26.687     8.471
    15   6 C        2.950     0.067    26.505     8.444
    16   6 C        2.950     0.067    26.505     8.444
    17   6 C        2.920     0.059    26.687     8.472
    18  17 Cl       0.994    -0.072   101.418    15.407
    19  17 Cl       1.019    -0.071   101.375    15.404
    20  17 Cl       1.019    -0.071   101.375    15.404
    21  17 Cl       0.994    -0.072   101.418    15.407
    22   8 O        1.709    -0.180    17.016     5.569

 Mol. C6AA /au·bohr⁶  :      22553.288555
 Mol. C8AA /au·bohr⁸  :     787696.741571
 Mol. α(0) /au        :        235.249216


Wiberg/Mayer (AO) data.
largest (>0.10) Wiberg bond orders for each atom

 ---------------------------------------------------------------------------
     #   Z sym  total        # sym  WBO       # sym  WBO       # sym  WBO
 ---------------------------------------------------------------------------
     1   6 C    3.939 --     6 C    1.347     2 C    1.308    22 O    1.039
     2   6 C    3.939 --     3 C    1.347     1 C    1.308    11 O    1.039
     3   6 C    3.932 --     2 C    1.347     4 C    1.329    10 Cl   1.027
     4   6 C    3.933 --     5 C    1.359     3 C    1.329     9 Cl   1.030
     5   6 C    3.933 --     4 C    1.359     6 C    1.329     8 Cl   1.030
     6   6 C    3.932 --     1 C    1.347     5 C    1.329     7 Cl   1.027
     7  17 Cl   1.185 --     6 C    1.027
     8  17 Cl   1.188 --     5 C    1.030
     9  17 Cl   1.188 --     4 C    1.030
    10  17 Cl   1.185 --     3 C    1.027
    11   8 O    2.344 --    12 C    1.039     2 C    1.039
    12   6 C    3.939 --    17 C    1.347    13 C    1.308    11 O    1.039
    13   6 C    3.939 --    14 C    1.347    12 C    1.308    22 O    1.039
    14   6 C    3.932 --    13 C    1.347    15 C    1.329    21 Cl   1.027
    15   6 C    3.933 --    16 C    1.359    14 C    1.329    20 Cl   1.030
    16   6 C    3.933 --    15 C    1.359    17 C    1.329    19 Cl   1.030
    17   6 C    3.932 --    12 C    1.347    16 C    1.329    18 Cl   1.027
    18  17 Cl   1.185 --    17 C    1.027
    19  17 Cl   1.188 --    16 C    1.030
    20  17 Cl   1.188 --    15 C    1.030
    21  17 Cl   1.185 --    14 C    1.027
    22   8 O    2.344 --     1 C    1.039    13 C    1.039
 ---------------------------------------------------------------------------

Topologies differ in total number of bonds
Writing topology from bond orders to xtbtopo.mol

molecular dipole:
                 x           y           z       tot (Debye)
 q only:        0.000       0.000       0.000
   full:       -0.000      -0.000       0.000       0.000
molecular quadrupole (traceless):
                xx          xy          yy          xz          yz          zz
 q only:       -6.431       0.003      -5.929       0.000       0.000      12.360
  q+dip:       -6.784       0.001      -4.032       0.000       0.000      10.816
   full:       -7.720       0.000      -3.762      -0.000       0.000      11.481


           -------------------------------------------------
          | TOTAL ENERGY              -70.262961060573 Eh   |
          | GRADIENT NORM               0.005642736908 Eh/α |
          | HOMO-LUMO GAP               2.794744267916 eV   |
           -------------------------------------------------

------------------------------------------------------------------------
 * finished run on 2025/04/03 at 21:53:28.742     
------------------------------------------------------------------------
 total:
 * wall-time:     0 d,  0 h,  0 min,  0.093 sec
 *  cpu-time:     0 d,  0 h,  0 min,  0.075 sec
 * ratio c/w:     0.800 speedup
 SCF:
 * wall-time:     0 d,  0 h,  0 min,  0.061 sec
 *  cpu-time:     0 d,  0 h,  0 min,  0.060 sec
 * ratio c/w:     0.995 speedup

