
                                 *****************
                                 * O   R   C   A *
                                 *****************

                                            #,                                       
                                            ###                                      
                                            ####                                     
                                            #####                                    
                                            ######                                   
                                           ########,                                 
                                     ,,################,,,,,                         
                               ,,#################################,,                 
                          ,,##########################################,,             
                       ,#########################################, ''#####,          
                    ,#############################################,,   '####,        
                  ,##################################################,,,,####,       
                ,###########''''           ''''###############################       
              ,#####''   ,,,,##########,,,,          '''####'''          '####       
            ,##' ,,,,###########################,,,                        '##       
           ' ,,###''''                  '''############,,,                           
         ,,##''                                '''############,,,,        ,,,,,,###''
      ,#''                                            '''#######################'''  
     '                                                          ''''####''''         
             ,#######,   #######,   ,#######,      ##                                
            ,#'     '#,  ##    ##  ,#'     '#,    #''#        ,####,   ,####,        
            ##       ##  ##   ,#'  ##            #'  '#       #'       #'  '#        
            ##       ##  #######   ##           ,######,      #####,   #    #        
            '#,     ,#'  ##    ##  '#,     ,#' ,#      #,     #,   #   #,  ,#        
             '#######'   ##     ##  '#######'  #'      '#     '####' # '####'        



                #########################################################
                #                        -***-                          #
                #          Department of theory and spectroscopy        #
                #                                                       #
                #                      Frank Neese                      #
                #                                                       #
                #     Directorship, Architecture, Infrastructure        #
                #                    SHARK, DRIVERS                     #
                #        Core code/Algorithms in most modules           #
                #                                                       #
                #        Max Planck Institute fuer Kohlenforschung      #
                #                Kaiser Wilhelm Platz 1                 #
                #                 D-45470 Muelheim/Ruhr                 #
                #                      Germany                          #
                #                                                       #
                #                  All rights reserved                  #
                #                        -***-                          #
                #########################################################


                         Program Version 6.0.0  -   RELEASE  -


 With contributions from (in alphabetic order):
   Daniel Aravena         : Magnetic Suceptibility
   Michael Atanasov       : Ab Initio Ligand Field Theory (pilot matlab implementation)
   Alexander A. Auer      : GIAO ZORA, VPT2 properties, NMR spectrum
   Ute Becker             : All parallelization in ORCA, NUMFREQ, NUMCALC
   Giovanni Bistoni       : ED, misc. LED, open-shell LED, HFLD
   Martin Brehm           : Molecular dynamics
   Dmytro Bykov           : pre 5.0 version of the SCF Hessian
   Marcos Casanova-Páez   : Triplet and SCS-CIS(D). UHF-(DLPNO)-IP/EA/STEOM-CCSD. UHF-CVS-IP/STEOM-CCSD
   Vijay G. Chilkuri      : MRCI spin determinant printing, contributions to CSF-ICE
   Pauline Colinet        : FMM embedding
   Dipayan Datta          : RHF DLPNO-CCSD density
   Achintya Kumar Dutta   : EOM-CC, STEOM-CC
   Nicolas Foglia         : Exact transition moments, OPA infrastructure, MCD improvements
   Dmitry Ganyushin       : Spin-Orbit,Spin-Spin,Magnetic field MRCI
   Miquel Garcia          : C-PCM and meta-GGA Hessian, CCSD/C-PCM, Gaussian charge scheme
   Tiago L. C. Gouveia    : GS-ROHF, GS-ROCIS
   Yang Guo               : DLPNO-NEVPT2, F12-NEVPT2, CIM, IAO-localization
   Andreas Hansen         : Spin unrestricted coupled pair/coupled cluster methods
   Ingolf Harden          : AUTO-CI MPn and infrastructure 
   Benjamin Helmich-Paris : MC-RPA, TRAH-(SCF,CASSCF), AVAS, COSX integrals, SCF dyn. polar.
   Lee Huntington         : MR-EOM, pCC
   Robert Izsak           : Overlap fitted RIJCOSX, COSX-SCS-MP3, EOM
   Riya Kayal             : Wick's Theorem for AUTO-CI, AUTO-CI UHF-CCSDT
   Emily Kempfer          : AUTO-CI, RHF CISDT and CCSDT
   Christian Kollmar      : KDIIS, OOCD, Brueckner-CCSD(T), CCSD density, CASPT2, CASPT2-K, improved NEVPT2
   Axel Koslowski         : Symmetry handling
   Simone Kossmann        : Meta GGA functionals, TD-DFT gradient, OOMP2, (MP2 Hessian; deprecated post 5.0)
   Lucas Lang             : DCDCAS
   Marvin Lechner         : AUTO-CI (C++ implementation), FIC-MRCC
   Spencer Leger          : CASSCF response
   Dagmar Lenk            : GEPOL surface, SMD, ORCA-2-JSON
   Dimitrios Liakos       : Extrapolation schemes; Compound Job, initial MDCI parallelization
   Dimitrios Manganas     : Further ROCIS development; embedding schemes. LFT, Crystal Embedding
   Dimitrios Pantazis     : SARC Basis sets
   Anastasios Papadopoulos: AUTO-CI, single reference methods and gradients
   Taras Petrenko         : pre 6.0 DFT Hessian and TD-DFT gradient, (ASA, deprecated), ECA, 1-Electron XAS/XES, NRVS
   Peter Pinski           : DLPNO-MP2, DLPNO-MP2 Gradient
   Christoph Reimann      : Effective Core Potentials
   Marius Retegan         : Local ZFS, SOC
   Christoph Riplinger    : Optimizer, TS searches, QM/MM, DLPNO-CCSD(T), (RO)-DLPNO pert. Triples
   Michael Roemelt        : Original ROCIS implementation
   Masaaki Saitow         : Open-shell DLPNO-CCSD energy and density
   Barbara Sandhoefer     : DKH picture change effects
   Kantharuban Sivalingam : CASSCF convergence/infrastructure, NEVPT2 and variants, FIC-MRCI
   Bernardo de Souza      : ESD, SOC TD-DFT
   Georgi Stoychev        : AutoAux, RI-MP2 NMR, DLPNO-MP2 response, X2C
   Van Anh Tran           : RI-MP2 g-tensors
   Willem Van den Heuvel  : Paramagnetic NMR
   Zikuan Wang            : NOTCH, Electric field optimization 
   Frank Wennmohs         : Technical directorship and infrastructure
   Hang Xu                : AUTO-CI-Response properties 


 We gratefully acknowledge several colleagues who have allowed us to
 interface, adapt or use parts of their codes:
   Stefan Grimme, W. Hujo, H. Kruse, P. Pracht,  : VdW corrections, initial TS optimization,
                  C. Bannwarth, S. Ehlert,         DFT functionals, gCP, sTDA/sTD-DF
                  L. Wittmann, M. Mueller
   Ed Valeev, F. Pavosevic, A. Kumar             : LibInt (2-el integral package), F12 methods
   Garnet Chan, S. Sharma, J. Yang, R. Olivares  : DMRG
   Ulf Ekstrom                                   : XCFun DFT Library
   Mihaly Kallay                                 : mrcc  (arbitrary order and MRCC methods)
   Frank Weinhold                                : gennbo (NPA and NBO analysis)
   Simon Mueller                                 : openCOSMO-RS
   Christopher J. Cramer and Donald G. Truhlar   : smd solvation model
   Lars Goerigk                                  : TD-DFT with DH, B97 family of functionals
   V. Asgeirsson, H. Jonsson                     : NEB implementation
   FAccTs GmbH                                   : IRC, NEB, NEB-TS, DLPNO-Multilevel, CI-OPT
                                                   MM, QMMM, 2- and 3-layer-ONIOM, Crystal-QMMM,
                                                   LR-CPCM, SF, NACMEs, symmetry and pop. for TD-DFT,
                                                   nearIR, NL-DFT gradient (VV10), updates on ESD,
                                                   ML-optimized integration grids, MBIS, APM,
                                                   GOAT, DOCKER, SOLVATOR, interface openCOSMO-RS
   S Lehtola, MJT Oliveira, MAL Marques          : LibXC Library
   Liviu Ungur et al                             : ANISO software


 Your calculation uses the libint2 library for the computation of 2-el integrals
 For citations please refer to: http://libint.valeyev.net

 Your ORCA version has been built with support for libXC version: 6.2.2
 For citations please refer to: https://libxc.gitlab.io

 This ORCA versions uses:
   CBLAS   interface :  Fast vector & matrix operations
   LAPACKE interface :  Fast linear algebra routines
   SCALAPACK package :  Parallel linear algebra routines
   Shared memory     :  Shared parallel matrices
   BLAS/LAPACK       :  OpenBLAS 0.3.27  USE64BITINT DYNAMIC_ARCH NO_AFFINITY SapphireRapids SINGLE_THREADED
        Core in use  :  SapphireRapids
   Copyright (c) 2011-2014, The OpenBLAS Project


Your calculation utilizes the geometrical counterpoise correction gCP
Please cite in your paper:
H.Kruse, S. Grimme J.Chem.Phys., 136, (2012), 154101 
   

Your calculation utilizes the atom-pairwise dispersion correction
based on EEQ partial charges (D4)


================================================================================

----- Orbital basis set information -----
Your calculation utilizes the basis: def2-mTZVPP
   Stefan Grimme, Andreas Hansen, Sebastian Ehlert, and Jan-Michael Mewes 
   J. Chem. Phys. 154, 064103 (2021). DOI: 10.1063/5.0040021

----- AuxJ basis set information -----
Your calculation utilizes the auxiliary basis: def2/J
   F. Weigend, Phys. Chem. Chem. Phys. 8, 1057 (2006).

================================================================================
                                        WARNINGS
                       Please study these warnings very carefully!
================================================================================

Using LibXC functional ID 497 : Re-regularized SCAN exchange by Furness et al
[ 1]  J. W. Furness, A. D. Kaplan, J. Ning, J. P. Perdew, and J. Sun.,  J. Phys. Chem. Lett. 11, 8208-8215 (2020)
[ 2]  J. W. Furness, A. D. Kaplan, J. Ning, J. P. Perdew, and J. Sun.,  J. Phys. Chem. Lett. 11, 9248-9248 (2020)
Using LibXC functional ID 498 : Re-regularized SCAN correlation by Furness et al
[ 1]  J. W. Furness, A. D. Kaplan, J. Ning, J. P. Perdew, and J. Sun.,  J. Phys. Chem. Lett. 11, 8208-8215 (2020)
[ 2]  J. W. Furness, A. D. Kaplan, J. Ning, J. P. Perdew, and J. Sun.,  J. Phys. Chem. Lett. 11, 9248-9248 (2020)
Using LibXC functional ID 497 : Re-regularized SCAN exchange by Furness et al
[ 1]  J. W. Furness, A. D. Kaplan, J. Ning, J. P. Perdew, and J. Sun.,  J. Phys. Chem. Lett. 11, 8208-8215 (2020)
[ 2]  J. W. Furness, A. D. Kaplan, J. Ning, J. P. Perdew, and J. Sun.,  J. Phys. Chem. Lett. 11, 9248-9248 (2020)
Using LibXC functional ID 498 : Re-regularized SCAN correlation by Furness et al
[ 1]  J. W. Furness, A. D. Kaplan, J. Ning, J. P. Perdew, and J. Sun.,  J. Phys. Chem. Lett. 11, 8208-8215 (2020)
[ 2]  J. W. Furness, A. D. Kaplan, J. Ning, J. P. Perdew, and J. Sun.,  J. Phys. Chem. Lett. 11, 9248-9248 (2020)

================================================================================
                                       INPUT FILE
================================================================================
NAME = sp_gas.inp
|  1> ! r2scan-3c def2/J RI DEFGRID2 scfconv6 printgap
|  2> %output
|  3>     printlevel normal
|  4> end
|  5> * xyz 0 1
|  6> C 2.502683086 0.0637414563 -0.0622833285
|  7> C 0.9982787115 0.0668809352 -0.0059804896
|  8> C 0.3076785451 1.1944614633 0.0966669076
|  9> C -1.1886958395 1.2725370028 0.1263061749
| 10> C -1.8224714711 -0.0262766214 -0.3631044418
| 11> C -1.1438559467 -1.2092688262 0.3171534635
| 12> C 0.323621393 -1.2740922743 -0.0974651664
| 13> H 2.9208370043 0.5403266607 0.8226159608
| 14> H 2.8536591909 0.616005655 -0.9325988128
| 15> H 2.8859781179 -0.951211217 -0.1222499622
| 16> H 0.8301254835 2.1397118627 0.1728187986
| 17> H -1.5143223496 1.4797302819 1.1518078284
| 18> H -1.5212735668 2.1116771905 -0.4901382199
| 19> H -2.8929629739 -0.0247002799 -0.1499352686
| 20> H -1.6921296593 -0.1102814064 -1.4440677454
| 21> H -1.2101177065 -1.0843123778 1.4000046008
| 22> H -1.6459591868 -2.1418634779 0.0530619962
| 23> H 0.8560476241 -1.9904514665 0.5334376482
| 24> H 0.4013638165 -1.633113858 -1.1293353128
| 25> *
| 26> 
| 27>                          ****END OF INPUT****
================================================================================

                       ****************************
                       * Single Point Calculation *
                       ****************************

---------------------------------
CARTESIAN COORDINATES (ANGSTROEM)
---------------------------------
  C      2.502683    0.063741   -0.062283
  C      0.998279    0.066881   -0.005980
  C      0.307679    1.194461    0.096667
  C     -1.188696    1.272537    0.126306
  C     -1.822471   -0.026277   -0.363104
  C     -1.143856   -1.209269    0.317153
  C      0.323621   -1.274092   -0.097465
  H      2.920837    0.540327    0.822616
  H      2.853659    0.616006   -0.932599
  H      2.885978   -0.951211   -0.122250
  H      0.830125    2.139712    0.172819
  H     -1.514322    1.479730    1.151808
  H     -1.521274    2.111677   -0.490138
  H     -2.892963   -0.024700   -0.149935
  H     -1.692130   -0.110281   -1.444068
  H     -1.210118   -1.084312    1.400005
  H     -1.645959   -2.141863    0.053062
  H      0.856048   -1.990451    0.533438
  H      0.401364   -1.633114   -1.129335

----------------------------
CARTESIAN COORDINATES (A.U.)
----------------------------
  NO LB      ZA    FRAG     MASS         X           Y           Z
   0 C     6.0000    0    12.011    4.729386    0.120454   -0.117698
   1 C     6.0000    0    12.011    1.886473    0.126387   -0.011301
   2 C     6.0000    0    12.011    0.581428    2.257205    0.182674
   3 C     6.0000    0    12.011   -2.246310    2.404746    0.238684
   4 C     6.0000    0    12.011   -3.443972   -0.049656   -0.686168
   5 C     6.0000    0    12.011   -2.161574   -2.285187    0.599333
   6 C     6.0000    0    12.011    0.611556   -2.407685   -0.184182
   7 H     1.0000    0     1.008    5.519582    1.021069    1.554519
   8 H     1.0000    0     1.008    5.392634    1.164082   -1.762356
   9 H     1.0000    0     1.008    5.453708   -1.797529   -0.231019
  10 H     1.0000    0     1.008    1.568710    4.043469    0.326580
  11 H     1.0000    0     1.008   -2.861655    2.796285    2.176601
  12 H     1.0000    0     1.008   -2.874790    3.990492   -0.926227
  13 H     1.0000    0     1.008   -5.466908   -0.046677   -0.283337
  14 H     1.0000    0     1.008   -3.197662   -0.208402   -2.728893
  15 H     1.0000    0     1.008   -2.286791   -2.049053    2.645625
  16 H     1.0000    0     1.008   -3.110412   -4.047535    0.100273
  17 H     1.0000    0     1.008    1.617696   -3.761408    1.008051
  18 H     1.0000    0     1.008    0.758468   -3.086138   -2.134134

--------------------------------
INTERNAL COORDINATES (ANGSTROEM)
--------------------------------
 C      0   0   0     0.000000000000     0.00000000     0.00000000
 C      1   0   0     1.505460855689     0.00000000     0.00000000
 C      2   1   0     1.326236376116   121.66985724     0.00000000
 C      3   2   1     1.498702964206   124.45337842   178.54497072
 C      4   3   2     1.525814907961   111.34819808   343.98552198
 C      5   4   3     1.524053937463   109.42757224    47.15721569
 C      2   1   3     1.503908604966   116.36917977   178.93223148
 H      1   2   3     1.088592168191   110.64274667    58.15628639
 H      1   2   3     1.088865930034   110.54484833   298.95005954
 H      1   2   3     1.086572596597   110.88665636   178.67515512
 H      3   2   1     1.082704129258   119.76529635   358.10546795
 H      4   3   2     1.095725933030   108.97024239   105.16877012
 H      4   3   2     1.093054386199   109.42862148   221.84326039
 H      5   4   3     1.091510714021   110.09014781   168.81909970
 H      5   4   3     1.092029054346   109.47569251   287.50543097
 H      6   5   4     1.092049138254   109.07183608    55.95926892
 H      6   5   4     1.091597339315   110.50894238   174.59458879
 H      7   2   1     1.093017175200   109.31464076    43.48632845
 H      7   2   1     1.095306523767   108.52611427   286.97125120

---------------------------
INTERNAL COORDINATES (A.U.)
---------------------------
 C      0   0   0     0.000000000000     0.00000000     0.00000000
 C      1   0   0     2.844908722590     0.00000000     0.00000000
 C      2   1   0     2.506223539704   121.66985724     0.00000000
 C      3   2   1     2.832138158446   124.45337842   178.54497072
 C      4   3   2     2.883372307101   111.34819808   343.98552198
 C      5   4   3     2.880044555130   109.42757224    47.15721569
 C      2   1   3     2.841975393834   116.36917977   178.93223148
 H      1   2   3     2.057141069412   110.64274667    58.15628639
 H      1   2   3     2.057658404322   110.54484833   298.95005954
 H      1   2   3     2.053324632192   110.88665636   178.67515512
 H      3   2   1     2.046014288363   119.76529635   358.10546795
 H      4   3   2     2.070621931263   108.97024239   105.16877012
 H      4   3   2     2.065573439398   109.42862148   221.84326039
 H      5   4   3     2.062656321740   110.09014781   168.81909970
 H      5   4   3     2.063635842999   109.47569251   287.50543097
 H      6   5   4     2.063673796084   109.07183608    55.95926892
 H      6   5   4     2.062820019822   110.50894238   174.59458879
 H      7   2   1     2.065503120801   109.31464076    43.48632845
 H      7   2   1     2.069829362616   108.52611427   286.97125120

---------------------
BASIS SET INFORMATION
---------------------
There are 2 groups of distinct atoms

 Group   1 Type C   : 11s6p1d contracted to 5s3p1d pattern {62111/411/1}
 Group   2 Type H   : 4s1p contracted to 2s1p pattern {31/1}

Atom   0C    basis set group =>   1
Atom   1C    basis set group =>   1
Atom   2C    basis set group =>   1
Atom   3C    basis set group =>   1
Atom   4C    basis set group =>   1
Atom   5C    basis set group =>   1
Atom   6C    basis set group =>   1
Atom   7H    basis set group =>   2
Atom   8H    basis set group =>   2
Atom   9H    basis set group =>   2
Atom  10H    basis set group =>   2
Atom  11H    basis set group =>   2
Atom  12H    basis set group =>   2
Atom  13H    basis set group =>   2
Atom  14H    basis set group =>   2
Atom  15H    basis set group =>   2
Atom  16H    basis set group =>   2
Atom  17H    basis set group =>   2
Atom  18H    basis set group =>   2
---------------------------------
AUXILIARY/J BASIS SET INFORMATION
---------------------------------
There are 2 groups of distinct atoms

 Group   1 Type C   : 12s5p4d2f1g contracted to 6s4p3d1f1g pattern {711111/2111/211/2/1}
 Group   2 Type H   : 5s2p1d contracted to 3s1p1d pattern {311/2/1}

Atom   0C    basis set group =>   1
Atom   1C    basis set group =>   1
Atom   2C    basis set group =>   1
Atom   3C    basis set group =>   1
Atom   4C    basis set group =>   1
Atom   5C    basis set group =>   1
Atom   6C    basis set group =>   1
Atom   7H    basis set group =>   2
Atom   8H    basis set group =>   2
Atom   9H    basis set group =>   2
Atom  10H    basis set group =>   2
Atom  11H    basis set group =>   2
Atom  12H    basis set group =>   2
Atom  13H    basis set group =>   2
Atom  14H    basis set group =>   2
Atom  15H    basis set group =>   2
Atom  16H    basis set group =>   2
Atom  17H    basis set group =>   2
Atom  18H    basis set group =>   2

Checking for AutoStart:
The File: sp_gas.gbw exists
Trying to determine its content:
     ... Fine, the file contains calculation information
     ... Fine, the calculation information was read
     ... Fine, the file contains a basis set
     ... Fine, the basis set was read
     ... Fine, the file contains a geometry
     ... Fine, the geometry was read
     ... Fine, the file contains a set of orbitals
     ... Fine, the orbitals can be read
     => possible old guess file was deleted
     => GBW file was renamed to GES file
     => GES file is set as startup file
     => Guess is set to MORead
     ... now leaving AutoStart

------------------------------------------------------------------------------
                             ORCA STARTUP CALCULATIONS
                           -- RI-GTO INTEGRALS CHOSEN --
------------------------------------------------------------------------------
------------------------------------------------------------------------------
                   ___                                                        
                  /   \      - P O W E R E D   B Y -                         
                 /     \                                                     
                 |  |  |   _    _      __       _____    __    __             
                 |  |  |  | |  | |    /  \     |  _  \  |  |  /  |          
                  \  \/   | |  | |   /    \    | | | |  |  | /  /          
                 / \  \   | |__| |  /  /\  \   | |_| |  |  |/  /          
                |  |  |   |  __  | /  /__\  \  |    /   |      \           
                |  |  |   | |  | | |   __   |  |    \   |  |\   \          
                \     /   | |  | | |  |  |  |  | |\  \  |  | \   \       
                 \___/    |_|  |_| |__|  |__|  |_| \__\ |__|  \__/        
                                                                              
                      - O R C A' S   B I G   F R I E N D -                    
                                      &                                       
                       - I N T E G R A L  F E E D E R -                       
                                                                              
 v1 FN, 2020, v2 2021, v3 2022-2024                                           
------------------------------------------------------------------------------


----------------------
SHARK INTEGRAL PACKAGE
----------------------

Number of atoms                             ...     19
Number of basis functions                   ...    193
Number of shells                            ...     99
Maximum angular momentum                    ...      2
Integral batch strategy                     ... SHARK/LIBINT Hybrid
RI-J (if used) integral strategy            ... SPLIT-RIJ (Revised 2003 algorithm where possible)
Printlevel                                  ...      1
Contraction scheme used                     ... SEGMENTED contraction
Prescreening option                         ... SCHWARTZ
   Thresh                                   ... 1.000e-10
   Tcut                                     ... 1.000e-11
   Tpresel                                  ... 1.000e-11 
Coulomb Range Separation                    ... NOT USED
Exchange Range Separation                   ... NOT USED
Multipole approximations                    ... NOT USED
Finite Nucleus Model                        ... NOT USED
CABS basis                                  ... NOT available
Auxiliary Coulomb fitting basis             ... AVAILABLE
   # of basis functions in Aux-J            ...    475
   # of shells in Aux-J                     ...    165
   Maximum angular momentum in Aux-J        ...      4
Auxiliary J/K fitting basis                 ... NOT available
Auxiliary Correlation fitting basis         ... NOT available
Auxiliary 'external' fitting basis          ... NOT available

Checking pre-screening integrals            ... done (  0.0 sec) Dimension = 99
Check shell pair data                       ... done (  0.0 sec)
Shell pair information
Shell pair cut-off parameter TPreSel        ...   1.0e-11
Total number of shell pairs                 ...      4950
Shell pairs after pre-screening             ...      4599
Total number of primitive shell pairs       ...     17581
Primitive shell pairs kept                  ...     11950
          la=0 lb=0:   1627 shell pairs
          la=1 lb=0:   1804 shell pairs
          la=1 lb=1:    523 shell pairs
          la=2 lb=0:    397 shell pairs
          la=2 lb=1:    220 shell pairs
          la=2 lb=2:     28 shell pairs

Calculating one electron integrals          ... done (  0.0 sec)
Calculating RI/J V-Matrix + Cholesky decomp.... done (  0.1 sec)
Calculating Nuclear repulsion               ... done (  0.0 sec) ENN=    308.222318138244 Eh

Diagonalization of the overlap matrix:
Smallest eigenvalue                        ... 9.646e-05
Time for diagonalization                   ...    0.003 sec
Threshold for overlap eigenvalues          ... 1.000e-07
Number of eigenvalues below threshold      ... 0
Time for construction of square roots      ...    0.016 sec
Total time needed                          ...    0.030 sec

-------------------
DFT GRID GENERATION
-------------------

General Integration Accuracy     IntAcc      ... 4.388
Radial Grid Type                 RadialGrid  ... OptM3 with GC (2021)
Angular Grid (max. ang.)         AngularGrid ... 4 (Lebedev-302)
Angular grid pruning method      GridPruning ... 4 (adaptive)
Weight generation scheme         WeightScheme... mBecke (2022)
Basis function cutoff            BFCut       ... 1.0000e-10
Integration weight cutoff        WCut        ... 1.0000e-14
Partially contracted basis set               ... off
Rotationally invariant grid construction     ... off
Angular grids for H and He will be reduced by one unit

Total number of grid points                  ...    80286
Total number of batches                      ...     1264
Average number of points per batch           ...       63
Average number of grid points per atom       ...     4226
Initializing property integral containers    ... done (  0.0 sec)

SHARK setup successfully completed in   0.9 seconds

Maximum memory used throughout the entire STARTUP-calculation: 34.5 MB
-------------------------------------------------------------------------------
                                 ORCA GUESS
                   Start orbitals & Density for SCF / CASSCF
-------------------------------------------------------------------------------

------------
SCF SETTINGS
------------
Hamiltonian:
 Density Functional     Method          .... DFT(GTOs)
  Functional kind                       .... Exchange
  Functional name                       .... Re-regularized SCAN exchange by Furness et al
  Functional family                     .... MGGA
  Functional refs                              
    [ 0] J. W. Furness, A. D. Kaplan, J. Ning, J. P. Perdew, and J. Sun.,  J. Phys. Chem. Lett. 11, 8208-8215 (2020), doi: 10.1021/acs.jpclett.0c02405
    [ 1] J. W. Furness, A. D. Kaplan, J. Ning, J. P. Perdew, and J. Sun.,  J. Phys. Chem. Lett. 11, 9248-9248 (2020), doi: 10.1021/acs.jpclett.0c03077
  Functional external parameters        .... 6
    Parameter  0 _c1        =  6.670000e-01 : c1 parameter        
    Parameter  1 _c2        =  8.000000e-01 : c2 parameter        
    Parameter  2 _d         =  1.240000e+00 : d parameter         
    Parameter  3 _k1        =  6.500000e-02 : k1 parameter        
    Parameter  4 _eta       =  1.000000e-03 : eta parameter       
    Parameter  5 _dp2       =  3.610000e-01 : dp2 parameter       
  Functional kind                       .... Correlation
  Functional name                       .... Re-regularized SCAN correlation by Furness et al
  Functional family                     .... MGGA
  Functional refs                              
    [ 0] J. W. Furness, A. D. Kaplan, J. Ning, J. P. Perdew, and J. Sun.,  J. Phys. Chem. Lett. 11, 8208-8215 (2020), doi: 10.1021/acs.jpclett.0c02405
    [ 1] J. W. Furness, A. D. Kaplan, J. Ning, J. P. Perdew, and J. Sun.,  J. Phys. Chem. Lett. 11, 9248-9248 (2020), doi: 10.1021/acs.jpclett.0c03077
  Functional external parameters        .... 1
    Parameter  0 _eta       =  1.000000e-03 : Regularization parameter
 Gradients option       PostSCFGGA      .... off
 RI-approximation to the Coulomb term is turned on
   Number of AuxJ basis functions       .... 475


General Settings:
 Integral files         IntName         .... sp_gas
 Hartree-Fock type      HFTyp           .... RHF
 Total Charge           Charge          ....    0
 Multiplicity           Mult            ....    1
 Number of Electrons    NEL             ....   54
 Basis Dimension        Dim             ....  193
 Nuclear Repulsion      ENuc            ....    308.2223181382 Eh

Convergence Acceleration:
 AO-DIIS                CNVDIIS         .... on
   Start iteration      DIISMaxIt       ....    12
   Startup error        DIISStart       ....  0.200000
   # of expansion vecs  DIISMaxEq       ....     5
   Bias factor          DIISBfac        ....   1.050
   Max. coefficient     DIISMaxC        ....  10.000
 MO-DIIS                CNVKDIIS        .... off
 Trust-Rad. Augm. Hess. CNVTRAH         .... auto
   Auto Start mean grad. ratio tolernc. ....  1.125000
   Auto Start start iteration           ....     1
   Auto Start num. interpolation iter.  ....    10
   Max. Number of Micro iterations      ....    24
   Max. Number of Macro iterations      .... Maxiter - #DIIS iter
   Number of Davidson start vectors     ....     2
   Converg. threshold    (grad. norm)   ....   3.330e-04
   Grad. Scal. Fac. for Micro threshold ....   0.100
   Minimum threshold for Micro iter.    ....   1.000e-02
   NR start threshold (gradient norm)   ....   1.000e-04
   Initial trust radius                 ....   0.400
   Minimum AH scaling param. (alpha)    ....   1.000
   Maximum AH scaling param. (alpha)    .... 1000.000
   Quad. conv. algorithm                .... NR
   White noise on init. David. guess    .... on
   Maximum white noise                  ....   0.010
   Pseudo random numbers                .... off
   Inactive MOs                         .... canonical
   Orbital update algorithm             .... Taylor
   Preconditioner                       .... Diag
   Full preconditioner red. dimension   ....   250
   COSX micro iterations for RIJONX calc.... off
 SOSCF                  CNVSOSCF        .... on
   Start iteration      SOSCFMaxIt      ....   150
   Startup grad/error   SOSCFStart      ....  0.003300
   Hessian update       SOSCFHessUp     .... L-BFGS
 Level Shifting         CNVShift        .... on
   Level shift para.    LevelShift      ....    0.2500
   Turn off err/grad.   ShiftErr        ....    0.0010
 Zerner damping         CNVZerner       .... off
 Static damping         CNVDamp         .... on
   Fraction old density DampFac         ....    0.7000
   Max. Damping (<1)    DampMax         ....    0.9800
   Min. Damping (>=0)   DampMin         ....    0.0000
   Turn off err/grad.   DampErr         ....    0.1000

SCF Procedure:
 Maximum # iterations   MaxIter         ....   125
 SCF integral mode      SCFMode         .... Direct
   Integral package                     .... SHARK and LIBINT hybrid scheme
 Reset frequency        DirectResetFreq ....    20
 Integral Threshold     Thresh          ....  1.000e-10 Eh
 Primitive CutOff       TCut            ....  1.000e-11 Eh

Convergence Tolerance:
 Convergence Check Mode ConvCheckMode   .... Total+1el-Energy
 Convergence forced     ConvForced      .... 0
 Energy Change          TolE            ....  1.000e-06 Eh
 1-El. energy change                    ....  1.000e-03 Eh
 Orbital Gradient       TolG            ....  3.330e-04
 Orbital Rotation angle TolX            ....  3.330e-04
 DIIS Error             TolErr          ....  1.000e-06

---------------------
INITIAL GUESS: MOREAD
---------------------
Guess MOs are being read from file: sp_gas.ges
Input Geometry matches current geometry (good)
Atom 0: N(Shells)= 9 and 6 - projection required
Input basis set needs projection
NBasis(read)= 122
NBasis(calc)= 193
Basis set overlap was calculated
Using GuessMode=FMatrix for the initial guess
C*T matrix was formed
Effective Fockian was calculated
Effective Fockian was diagonalized
Initial density was built
                      ------------------
                      INITIAL GUESS DONE (   0.0 sec)
                      ------------------
             **** ENERGY FILE WAS UPDATED (sp_gas.en.tmp) ****
Finished Guess after   0.2 sec
Maximum memory used throughout the entire GUESS-calculation: 13.4 MB

-------------------------------------------------------------------------------------------
                                      ORCA LEAN-SCF
                              memory conserving SCF solver
-------------------------------------------------------------------------------------------

----------------------------------------D-I-I-S--------------------------------------------
Iteration    Energy (Eh)           Delta-E    RMSDP     MaxDP     DIISErr   Damp  Time(sec)
-------------------------------------------------------------------------------------------
               ***  Starting incremental Fock matrix formation  ***
    1    -273.7332894666108132     0.00e+00  5.42e-03  2.19e-01  2.82e-01  0.700   1.9
    2    -273.7736119220435285    -4.03e-02  4.22e-03  1.42e-01  1.98e-01  0.700   1.7
                               ***Turning on AO-DIIS***
    3    -273.8021290503060072    -2.85e-02  3.07e-03  9.44e-02  1.39e-01  0.700   1.7
    4    -273.8221466570184930    -2.00e-02  2.19e-03  6.48e-02  9.69e-02  0.700   1.7
    5    -273.8361868542078810    -1.40e-02  5.15e-03  1.50e-01  6.78e-02  0.000   1.6
                              *** Initializing SOSCF ***
---------------------------------------S-O-S-C-F--------------------------------------
Iteration    Energy (Eh)           Delta-E    RMSDP     MaxDP     MaxGrad    Time(sec)
--------------------------------------------------------------------------------------
    6    -273.8690474138929858    -3.29e-02  6.71e-05  1.73e-03  2.19e-04     1.7
               *** Restarting incremental Fock matrix formation ***
    7    -273.8690480738330280    -6.60e-07  3.38e-05  8.37e-04  1.29e-04     1.9
    8    -273.8690476324403562     4.41e-07  1.10e-05  2.25e-04  2.93e-04     1.4
                 **** Energy Check signals convergence ****

               *****************************************************
               *                     SUCCESS                       *
               *           SCF CONVERGED AFTER   8 CYCLES          *
               *****************************************************

             **** ENERGY FILE WAS UPDATED (sp_gas.en.tmp) ****

----------------
TOTAL SCF ENERGY
----------------

Total Energy       :       -273.86904763244036 Eh           -7452.35566 eV

Components:
Nuclear Repulsion  :        308.22231813824442 Eh            8387.15567 eV
Electronic Energy  :       -582.09136577068477 Eh          -15839.51133 eV
One Electron Energy:       -978.31590094560977 Eh          -26621.32907 eV
Two Electron Energy:        396.22453517492499 Eh           10781.81774 eV

Virial components:
Potential Energy   :       -546.50940532872039 Eh          -14871.27696 eV
Kinetic Energy     :        272.64035769628003 Eh            7418.92130 eV
Virial Ratio       :          2.00450663264435

DFT components:
N(Alpha)           :       27.000003865901 electrons
N(Beta)            :       27.000003865901 electrons
N(Total)           :       54.000007731802 electrons
E(X)               :      -40.732809563223 Eh       
E(C)               :       -1.690536567541 Eh       
E(XC)              :      -42.423346130763 Eh       

---------------
SCF CONVERGENCE
---------------

  Last Energy change         ...   -4.4139e-07  Tolerance :   1.0000e-06
  Last MAX-Density change    ...    2.2459e-04  Tolerance :   1.0000e-05
  Last RMS-Density change    ...    1.0977e-05  Tolerance :   1.0000e-06
  Last DIIS Error            ...    2.1905e-04  Tolerance :   1.0000e-06
  Last Orbital Gradient      ...    2.9325e-04  Tolerance :   3.3300e-04
  Last Orbital Rotation      ...    4.4148e-04  Tolerance :   3.3300e-04


----------------
ORBITAL ENERGIES
----------------

  NO   OCC          E(Eh)            E(eV) 
   0   2.0000     -10.026821      -272.8437 
   1   2.0000     -10.025365      -272.8040 
   2   2.0000     -10.022621      -272.7294 
   3   2.0000     -10.021235      -272.6917 
   4   2.0000     -10.020471      -272.6709 
   5   2.0000     -10.017868      -272.6000 
   6   2.0000     -10.009829      -272.3813 
   7   2.0000      -0.802107       -21.8264 
   8   2.0000      -0.729809       -19.8591 
   9   2.0000      -0.703972       -19.1561 
  10   2.0000      -0.642668       -17.4879 
  11   2.0000      -0.581157       -15.8141 
  12   2.0000      -0.551210       -14.9992 
  13   2.0000      -0.472026       -12.8445 
  14   2.0000      -0.442192       -12.0326 
  15   2.0000      -0.410054       -11.1581 
  16   2.0000      -0.396113       -10.7788 
  17   2.0000      -0.394282       -10.7290 
  18   2.0000      -0.376434       -10.2433 
  19   2.0000      -0.356939        -9.7128 
  20   2.0000      -0.339567        -9.2401 
  21   2.0000      -0.338856        -9.2207 
  22   2.0000      -0.327337        -8.9073 
  23   2.0000      -0.295869        -8.0510 
  24   2.0000      -0.280624        -7.6362 
  25   2.0000      -0.266543        -7.2530 
  26   2.0000      -0.202777        -5.5178 
  27   0.0000       0.001986         0.0541 
  28   0.0000       0.086577         2.3559 
  29   0.0000       0.111464         3.0331 
  30   0.0000       0.121873         3.3163 
  31   0.0000       0.124697         3.3932 
  32   0.0000       0.133892         3.6434 
  33   0.0000       0.137746         3.7482 
  34   0.0000       0.143101         3.8940 
  35   0.0000       0.155976         4.2443 
  36   0.0000       0.163953         4.4614 
  37   0.0000       0.171899         4.6776 
*Only the first 10 virtual orbitals were printed.

                    ********************************
                    * MULLIKEN POPULATION ANALYSIS *
                    ********************************

-----------------------
MULLIKEN ATOMIC CHARGES
-----------------------
   0 C :   -0.532698
   1 C :    0.111762
   2 C :   -0.202848
   3 C :   -0.292151
   4 C :   -0.296430
   5 C :   -0.289789
   6 C :   -0.337253
   7 H :    0.162301
   8 H :    0.164209
   9 H :    0.147348
  10 H :    0.149486
  11 H :    0.150624
  12 H :    0.145582
  13 H :    0.151151
  14 H :    0.152230
  15 H :    0.153653
  16 H :    0.151293
  17 H :    0.150522
  18 H :    0.161008
Sum of atomic charges:   -0.0000000

--------------------------------
MULLIKEN REDUCED ORBITAL CHARGES
--------------------------------
  0 C s       :     3.365009  s :     3.365009
      pz      :     1.100580  p :     3.140529
      px      :     0.929506
      py      :     1.110443
      dz2     :     0.004718  d :     0.027160
      dxz     :     0.006185
      dyz     :     0.003772
      dx2y2   :     0.007055
      dxy     :     0.005430

  1 C s       :     3.151122  s :     3.151122
      pz      :     0.975998  p :     2.690164
      px      :     0.831446
      py      :     0.882720
      dz2     :     0.003507  d :     0.046951
      dxz     :     0.005818
      dyz     :     0.007638
      dx2y2   :     0.015735
      dxy     :     0.014252

  2 C s       :     3.181532  s :     3.181532
      pz      :     1.035652  p :     2.984567
      px      :     0.939264
      py      :     1.009650
      dz2     :     0.003145  d :     0.036749
      dxz     :     0.005066
      dyz     :     0.004205
      dx2y2   :     0.011942
      dxy     :     0.012392

  3 C s       :     3.265638  s :     3.265638
      pz      :     1.061794  p :     2.988149
      px      :     0.922575
      py      :     1.003779
      dz2     :     0.007430  d :     0.038364
      dxz     :     0.006599
      dyz     :     0.006720
      dx2y2   :     0.010349
      dxy     :     0.007266

  4 C s       :     3.233465  s :     3.233465
      pz      :     1.029909  p :     3.025919
      px      :     1.088796
      py      :     0.907214
      dz2     :     0.010437  d :     0.037046
      dxz     :     0.002650
      dyz     :     0.006567
      dx2y2   :     0.010331
      dxy     :     0.007061

  5 C s       :     3.229159  s :     3.229159
      pz      :     1.037085  p :     3.023626
      px      :     0.940458
      py      :     1.046083
      dz2     :     0.010400  d :     0.037005
      dxz     :     0.004992
      dyz     :     0.004167
      dx2y2   :     0.008770
      dxy     :     0.008677

  6 C s       :     3.285582  s :     3.285582
      pz      :     1.074919  p :     3.013565
      px      :     0.978892
      py      :     0.959754
      dz2     :     0.007514  d :     0.038105
      dxz     :     0.005449
      dyz     :     0.007228
      dx2y2   :     0.008182
      dxy     :     0.009733

  7 H s       :     0.819284  s :     0.819284
      pz      :     0.008502  p :     0.018415
      px      :     0.004778
      py      :     0.005134

  8 H s       :     0.817404  s :     0.817404
      pz      :     0.008331  p :     0.018387
      px      :     0.004448
      py      :     0.005608

  9 H s       :     0.834338  s :     0.834338
      pz      :     0.003844  p :     0.018314
      px      :     0.004455
      py      :     0.010015

 10 H s       :     0.831067  s :     0.831067
      pz      :     0.004489  p :     0.019447
      px      :     0.005419
      py      :     0.009540

 11 H s       :     0.831514  s :     0.831514
      pz      :     0.009990  p :     0.017863
      px      :     0.004189
      py      :     0.003684

 12 H s       :     0.836483  s :     0.836483
      pz      :     0.005898  p :     0.017935
      px      :     0.004154
      py      :     0.007883

 13 H s       :     0.831005  s :     0.831005
      pz      :     0.003725  p :     0.017844
      px      :     0.010596
      py      :     0.003523

 14 H s       :     0.830036  s :     0.830036
      pz      :     0.010756  p :     0.017734
      px      :     0.003478
      py      :     0.003500

 15 H s       :     0.828648  s :     0.828648
      pz      :     0.010765  p :     0.017700
      px      :     0.003452
      py      :     0.003483

 16 H s       :     0.830867  s :     0.830867
      pz      :     0.003876  p :     0.017840
      px      :     0.005075
      py      :     0.008889

 17 H s       :     0.831500  s :     0.831500
      pz      :     0.006008  p :     0.017978
      px      :     0.005178
      py      :     0.006792

 18 H s       :     0.821103  s :     0.821103
      pz      :     0.010039  p :     0.017890
      px      :     0.003421
      py      :     0.004429


------------------------
MULLIKEN OVERLAP CHARGES
------------------------
B(  0-C ,  1-C ) :   0.2414 B(  0-C ,  2-C ) :  -0.0905 B(  0-C ,  7-H ) :   0.8543 
B(  0-C ,  8-H ) :   0.8685 B(  0-C ,  9-H ) :   0.8422 B(  1-C ,  2-C ) :   1.1056 
B(  1-C ,  5-C ) :  -0.0531 B(  1-C ,  6-C ) :   0.2148 B(  1-C ,  7-H ) :  -0.1032 
B(  1-C ,  8-H ) :  -0.0974 B(  1-C ,  9-H ) :  -0.1244 B(  1-C , 10-H ) :  -0.0878 
B(  1-C , 17-H ) :  -0.0958 B(  1-C , 18-H ) :  -0.0899 B(  2-C ,  3-C ) :   0.3024 
B(  2-C ,  4-C ) :  -0.0771 B(  2-C ,  5-C ) :  -0.0525 B(  2-C , 10-H ) :   0.7974 
B(  2-C , 11-H ) :  -0.0675 B(  2-C , 12-H ) :  -0.0759 B(  3-C ,  4-C ) :   0.3878 
B(  3-C ,  5-C ) :  -0.1313 B(  3-C ,  6-C ) :  -0.0989 B(  3-C , 11-H ) :   0.8209 
B(  3-C , 12-H ) :   0.8320 B(  3-C , 13-H ) :  -0.0761 B(  3-C , 14-H ) :  -0.0823 
B(  4-C ,  5-C ) :   0.1184 B(  4-C ,  6-C ) :  -0.1140 B(  4-C , 12-H ) :  -0.1040 
B(  4-C , 13-H ) :   0.8135 B(  4-C , 14-H ) :   0.8835 B(  4-C , 15-H ) :  -0.1137 
B(  4-C , 16-H ) :  -0.0729 B(  5-C ,  6-C ) :   0.3237 B(  5-C , 13-H ) :  -0.0801 
B(  5-C , 14-H ) :  -0.1245 B(  5-C , 15-H ) :   0.8676 B(  5-C , 16-H ) :   0.8173 
B(  5-C , 17-H ) :  -0.0928 B(  6-C , 15-H ) :  -0.0691 B(  6-C , 16-H ) :  -0.0906 
B(  6-C , 17-H ) :   0.8478 B(  6-C , 18-H ) :   0.8615 


                     *******************************
                     * LOEWDIN POPULATION ANALYSIS *
                     *******************************

----------------------
LOEWDIN ATOMIC CHARGES
----------------------
   0 C :   -0.401361
   1 C :   -0.134995
   2 C :   -0.207784
   3 C :   -0.292546
   4 C :   -0.298085
   5 C :   -0.296389
   6 C :   -0.285790
   7 H :    0.165157
   8 H :    0.164354
   9 H :    0.156003
  10 H :    0.162482
  11 H :    0.160634
  12 H :    0.158356
  13 H :    0.154027
  14 H :    0.157223
  15 H :    0.158063
  16 H :    0.153951
  17 H :    0.161326
  18 H :    0.165376

-------------------------------
LOEWDIN REDUCED ORBITAL CHARGES
-------------------------------
  0 C s       :     2.959168  s :     2.959168
      pz      :     1.159775  p :     3.379055
      px      :     1.066048
      py      :     1.153232
      dz2     :     0.011580  d :     0.063138
      dxz     :     0.013071
      dyz     :     0.009902
      dx2y2   :     0.016557
      dxy     :     0.012028

  1 C s       :     2.884064  s :     2.884064
      pz      :     0.975740  p :     3.153935
      px      :     1.064154
      py      :     1.114041
      dz2     :     0.006477  d :     0.096996
      dxz     :     0.009950
      dyz     :     0.013404
      dx2y2   :     0.035437
      dxy     :     0.031728

  2 C s       :     2.910494  s :     2.910494
      pz      :     1.031769  p :     3.216739
      px      :     1.070605
      py      :     1.114365
      dz2     :     0.005557  d :     0.080551
      dxz     :     0.008888
      dyz     :     0.007540
      dx2y2   :     0.028695
      dxy     :     0.029871

  3 C s       :     2.921933  s :     2.921933
      pz      :     1.130610  p :     3.287979
      px      :     1.068998
      py      :     1.088371
      dz2     :     0.016781  d :     0.082634
      dxz     :     0.013335
      dyz     :     0.015154
      dx2y2   :     0.022270
      dxy     :     0.015095

  4 C s       :     2.929822  s :     2.929822
      pz      :     1.123319  p :     3.288048
      px      :     1.107287
      py      :     1.057442
      dz2     :     0.023879  d :     0.080216
      dxz     :     0.005365
      dyz     :     0.013572
      dx2y2   :     0.022616
      dxy     :     0.014784

  5 C s       :     2.929333  s :     2.929333
      pz      :     1.126017  p :     3.286952
      px      :     1.063096
      py      :     1.097839
      dz2     :     0.023805  d :     0.080104
      dxz     :     0.009866
      dyz     :     0.008898
      dx2y2   :     0.018857
      dxy     :     0.018679

  6 C s       :     2.920220  s :     2.920220
      pz      :     1.132457  p :     3.283549
      px      :     1.073422
      py      :     1.077670
      dz2     :     0.017123  d :     0.082021
      dxz     :     0.010890
      dyz     :     0.016025
      dx2y2   :     0.017656
      dxy     :     0.020327

  7 H s       :     0.791016  s :     0.791016
      pz      :     0.021009  p :     0.043828
      px      :     0.010895
      py      :     0.011924

  8 H s       :     0.791828  s :     0.791828
      pz      :     0.020549  p :     0.043818
      px      :     0.010091
      py      :     0.013178

  9 H s       :     0.800568  s :     0.800568
      pz      :     0.008469  p :     0.043429
      px      :     0.009893
      py      :     0.025067

 10 H s       :     0.792502  s :     0.792502
      pz      :     0.009958  p :     0.045017
      px      :     0.012726
      py      :     0.022333

 11 H s       :     0.796212  s :     0.796212
      pz      :     0.024725  p :     0.043155
      px      :     0.009779
      py      :     0.008650

 12 H s       :     0.798534  s :     0.798534
      pz      :     0.014244  p :     0.043110
      px      :     0.009698
      py      :     0.019167

 13 H s       :     0.802598  s :     0.802598
      pz      :     0.008728  p :     0.043375
      px      :     0.026208
      py      :     0.008440

 14 H s       :     0.799601  s :     0.799601
      pz      :     0.026712  p :     0.043176
      px      :     0.008144
      py      :     0.008319

 15 H s       :     0.798817  s :     0.798817
      pz      :     0.026814  p :     0.043120
      px      :     0.008093
      py      :     0.008213

 16 H s       :     0.802660  s :     0.802660
      pz      :     0.009141  p :     0.043389
      px      :     0.012295
      py      :     0.021953

 17 H s       :     0.795357  s :     0.795357
      pz      :     0.014543  p :     0.043318
      px      :     0.012629
      py      :     0.016145

 18 H s       :     0.791145  s :     0.791145
      pz      :     0.024986  p :     0.043479
      px      :     0.008178
      py      :     0.010315


---------------------------------
LOEWDIN BOND ORDERS (THRESH 0.050000)
---------------------------------
B(  0-C ,  1-C ) :   1.1026 B(  0-C ,  2-C ) :   0.1014 B(  0-C ,  6-C ) :   0.0793 
B(  0-C ,  7-H ) :   0.9167 B(  0-C ,  8-H ) :   0.9169 B(  0-C ,  9-H ) :   0.9206 
B(  1-C ,  2-C ) :   1.8999 B(  1-C ,  3-C ) :   0.0897 B(  1-C ,  5-C ) :   0.0621 
B(  1-C ,  6-C ) :   1.0753 B(  1-C , 10-H ) :   0.0626 B(  2-C ,  3-C ) :   1.1131 
B(  2-C ,  4-C ) :   0.0605 B(  2-C ,  6-C ) :   0.0850 B(  2-C , 10-H ) :   0.8686 
B(  3-C ,  4-C ) :   1.1014 B(  3-C ,  5-C ) :   0.0622 B(  3-C , 11-H ) :   0.8771 
B(  3-C , 12-H ) :   0.8838 B(  4-C ,  5-C ) :   1.1028 B(  4-C ,  6-C ) :   0.0617 
B(  4-C , 13-H ) :   0.8948 B(  4-C , 14-H ) :   0.8893 B(  5-C ,  6-C ) :   1.0991 
B(  5-C , 15-H ) :   0.8884 B(  5-C , 16-H ) :   0.8935 B(  6-C , 17-H ) :   0.8787 
B(  6-C , 18-H ) :   0.8736 

------------------------------------------
LOEWDIN REDUCED ORBITAL POPULATIONS PER MO
-------------------------------------------
THRESHOLD FOR PRINTING IS 0.1%%
                      0         1         2         3         4         5   
                 -10.02682 -10.02536 -10.02262 -10.02124 -10.02047 -10.01787
                   2.00000   2.00000   2.00000   2.00000   2.00000   2.00000
                  --------  --------  --------  --------  --------  --------
 0 C  s               0.0       0.0       0.0       0.0       0.0      99.7
 1 C  s              99.2       0.3       0.0       0.0       0.0       0.0
 2 C  py              0.1       0.0       0.0       0.0       0.0       0.0
 3 C  s               0.0       0.0      99.6       0.0       0.1       0.0
 4 C  s               0.0       0.0       0.1       0.8      98.8       0.0
 5 C  s               0.0       0.0       0.0      98.8       0.9       0.0
 6 C  s               0.3      99.3       0.0       0.0       0.0       0.0

                      6         7         8         9        10        11   
                 -10.00983  -0.80211  -0.72981  -0.70397  -0.64267  -0.58116
                   2.00000   2.00000   2.00000   2.00000   2.00000   2.00000
                  --------  --------  --------  --------  --------  --------
 0 C  s               0.0       3.9      15.5       0.0      23.8       0.4
 0 C  px              0.0       1.8       1.4       0.0       1.4       0.3
 0 C  py              0.0       0.0       0.0       0.3       0.0       1.3
 1 C  s               0.1      15.7      13.9       0.1       0.8       1.0
 1 C  pz              0.0       0.0       0.0       0.0       0.0       0.2
 1 C  px              0.0       1.0       3.2       0.0      13.2       0.4
 1 C  py              0.1       0.0       0.0       9.8       0.1      13.4
 1 C  dz2             0.0       0.2       0.1       0.0       0.0       0.0
 1 C  dx2y2           0.0       0.0       0.0       0.0       0.3       0.0
 1 C  dxy             0.0       0.0       0.0       0.2       0.0       0.1
 2 C  s              99.5      12.1       1.6      12.1       6.2       5.2
 2 C  px              0.0       0.2       6.1       1.5       0.0       7.0
 2 C  py              0.0       2.2       1.4       0.6       0.2       0.7
 2 C  dz2             0.0       0.1       0.0       0.1       0.0       0.0
 2 C  dx2y2           0.0       0.0       0.1       0.1       0.0       0.1
 3 C  s               0.0       9.5       5.9      15.0       0.0       9.6
 3 C  pz              0.0       0.1       0.1       0.0       0.2       0.0
 3 C  px              0.1       0.6       1.7       1.0       4.0       2.1
 3 C  py              0.0       1.3       1.2       0.4       0.9       1.4
 4 C  s               0.0       9.5      14.4       0.1       9.1       0.3
 4 C  pz              0.0       0.5       0.3       0.0       0.0       0.0
 4 C  px              0.0       1.6       0.1       0.0       0.7       0.0
 4 C  py              0.0       0.0       0.0       7.1       0.1       7.2
 4 C  dyz             0.0       0.0       0.0       0.1       0.0       0.1
 4 C  dxy             0.0       0.0       0.0       0.1       0.0       0.1
 5 C  s               0.0      10.3       6.2      12.4       0.5       6.0
 5 C  pz              0.0       0.5       0.2       0.1       0.1       0.2
 5 C  px              0.0       0.7       1.5       1.6       4.0       3.8
 5 C  py              0.0       1.1       1.0       0.9       0.7       0.0
 6 C  s               0.0      12.2       0.8      14.9       4.9       8.6
 6 C  pz              0.0       0.1       0.0       0.1       0.0       0.4
 6 C  px              0.0       0.2       4.5       1.1       0.0       3.9
 6 C  py              0.0       1.8       0.9       0.6       0.1       1.1
 7 H  s               0.0       0.4       2.4       0.0       6.0       0.0
 7 H  pz              0.0       0.0       0.1       0.0       0.3       0.0
 7 H  py              0.0       0.0       0.0       0.0       0.1       0.0
 8 H  s               0.0       0.4       2.4       0.0       6.0       0.1
 8 H  pz              0.0       0.0       0.1       0.0       0.3       0.0
 8 H  py              0.0       0.0       0.1       0.0       0.1       0.0
 9 H  s               0.0       0.5       2.4       0.0       6.0       0.8
 9 H  py              0.0       0.0       0.2       0.0       0.5       0.0
10 H  s               0.0       1.2       0.3       2.2       1.1       1.9
10 H  py              0.0       0.1       0.0       0.1       0.1       0.2
11 H  s               0.0       1.0       0.9       2.6       0.0       3.5
11 H  pz              0.0       0.1       0.1       0.2       0.0       0.3
12 H  s               0.0       1.0       0.9       2.8       0.0       4.2
12 H  pz              0.0       0.0       0.0       0.1       0.0       0.1
12 H  py              0.0       0.0       0.1       0.1       0.0       0.2
13 H  s               0.0       1.0       2.3       0.0       2.6       0.1
13 H  px              0.0       0.1       0.2       0.0       0.2       0.0
14 H  s               0.0       1.0       2.1       0.0       2.0       0.1
14 H  pz              0.0       0.1       0.2       0.0       0.2       0.0
15 H  s               0.0       1.1       1.0       2.0       0.1       2.0
15 H  pz              0.0       0.1       0.1       0.2       0.0       0.2
16 H  s               0.0       1.1       1.0       2.4       0.2       2.4
16 H  py              0.0       0.1       0.1       0.2       0.0       0.2
17 H  s               0.0       1.3       0.2       2.9       1.0       4.1
17 H  pz              0.0       0.0       0.0       0.1       0.0       0.1
17 H  py              0.0       0.1       0.0       0.1       0.0       0.1
18 H  s               0.0       1.3       0.1       2.7       1.1       3.6
18 H  pz              0.0       0.1       0.0       0.2       0.1       0.3

                     12        13        14        15        16        17   
                  -0.55121  -0.47203  -0.44219  -0.41005  -0.39611  -0.39428
                   2.00000   2.00000   2.00000   2.00000   2.00000   2.00000
                  --------  --------  --------  --------  --------  --------
 0 C  s               2.5       0.1       0.8       0.1       0.0       0.0
 0 C  pz              0.0       0.1       0.3       4.2       4.5       0.4
 0 C  px              2.9       2.0       9.4       5.8       0.0       1.1
 0 C  py              0.1       0.4       0.0       0.5       8.0      18.5
 0 C  dz2             0.0       0.0       0.1       0.0       0.0       0.1
 0 C  dx2y2           0.1       0.0       0.1       0.1       0.0       0.0
 1 C  s               4.5       4.0       1.3       2.6       0.0       0.2
 1 C  pz              0.2       0.6       0.4       5.1       2.4       0.2
 1 C  px              0.7       0.1       6.2       1.3       0.0       0.4
 1 C  py              0.6       1.7       0.0       0.1       3.2       6.8
 2 C  s               0.8       3.9       0.1       1.7       0.5       0.2
 2 C  pz              0.3       0.3       0.4       2.3       0.6       0.5
 2 C  px              2.2       0.6       6.3       0.1       1.5       3.4
 2 C  py              5.0      12.0       3.6       2.0       2.8       2.2
 2 C  dx2y2           0.1       0.0       0.0       0.0       0.0       0.0
 2 C  dxy             0.0       0.1       0.0       0.2       0.1       0.0
 3 C  s               2.9       0.7       0.2       1.0       0.1       0.0
 3 C  pz              1.8       3.4       1.0       1.8      12.3      10.2
 3 C  px              1.9       2.3       5.6       2.1       3.4       4.9
 3 C  py              4.5       1.1       4.1       6.2       0.2       1.9
 4 C  s               9.9       0.9       0.3       1.2       0.0       0.0
 4 C  pz              3.5       9.2       1.0       1.3       5.9       5.5
 4 C  px              1.7       0.5      15.9       0.9       0.3       0.6
 4 C  py              0.3       0.8       0.0       0.1       6.4       0.7
 4 C  dx2y2           0.1       0.0       0.0       0.2       0.0       0.0
 5 C  s               8.5       0.3       0.2       0.9       0.0       0.3
 5 C  pz              3.2       8.6       2.6       3.8       1.3       0.8
 5 C  px              0.2       0.1       3.5       1.5       6.8       1.2
 5 C  py              4.2       2.4       3.7       6.1       2.1       0.3
 5 C  dxy             0.0       0.0       0.0       0.1       0.0       0.0
 6 C  s               0.1       1.6       0.1       0.7       0.0       0.8
 6 C  pz              1.2       4.4       1.4      10.2      10.6       4.8
 6 C  px              4.0       0.3       5.2       1.6       2.4       2.4
 6 C  py              2.7       8.8       3.3       1.9       1.2       2.8
 6 C  dx2y2           0.2       0.0       0.0       0.0       0.0       0.0
 6 C  dxy             0.0       0.0       0.0       0.2       0.0       0.1
 7 H  s               1.4       0.3       0.9       2.3       3.6       1.5
 8 H  s               1.3       0.6       1.8       0.3       0.0       3.8
 8 H  pz              0.1       0.0       0.1       0.0       0.0       0.1
 9 H  s               1.0       0.1       1.1       1.2       3.0       5.2
 9 H  px              0.0       0.0       0.0       0.0       0.0       0.1
10 H  s               1.0       8.6       2.6       2.8       1.2       0.2
10 H  px              0.1       0.1       0.0       0.0       0.1       0.1
10 H  py              0.0       0.3       0.1       0.1       0.0       0.0
11 H  s               2.0       2.2       1.6       0.2       2.1       5.0
11 H  pz              0.1       0.1       0.1       0.0       0.0       0.1
12 H  s               1.4       0.0       1.2       6.6       4.4       1.7
12 H  py              0.0       0.0       0.0       0.1       0.2       0.0
13 H  s               4.3       0.4       6.2       2.0       0.6       0.7
13 H  px              0.3       0.0       0.2       0.1       0.0       0.0
14 H  s               5.5       4.4       0.3       0.0       1.7       2.2
14 H  pz              0.4       0.2       0.0       0.0       0.0       0.1
15 H  s               4.7       3.6       0.9       0.5       0.2       0.8
15 H  pz              0.3       0.2       0.0       0.0       0.0       0.0
16 H  s               4.2       0.3       1.6       6.4       0.0       0.6
16 H  py              0.2       0.0       0.0       0.2       0.0       0.0
17 H  s               0.0       1.1       3.1       7.1       1.7       0.0
17 H  px              0.0       0.0       0.0       0.1       0.1       0.0
17 H  py              0.0       0.0       0.1       0.1       0.0       0.0
18 H  s               0.2       5.1       0.0       1.0       2.8       4.9
18 H  pz              0.0       0.2       0.0       0.0       0.0       0.1

                     18        19        20        21        22        23   
                  -0.37643  -0.35694  -0.33957  -0.33886  -0.32734  -0.29587
                   2.00000   2.00000   2.00000   2.00000   2.00000   2.00000
                  --------  --------  --------  --------  --------  --------
 0 C  pz             36.3       0.2       0.0       9.1       0.1       0.2
 0 C  px              0.2       7.8       9.3       0.3       0.0       0.0
 0 C  py              0.3       4.1       0.2       0.2      22.8       0.0
 0 C  dz2             0.0       0.0       0.0       0.0       0.2       0.0
 0 C  dyz             0.3       0.0       0.0       0.1       0.0       0.0
 0 C  dx2y2           0.0       0.1       0.1       0.0       0.1       0.0
 0 C  dxy             0.0       0.1       0.0       0.0       0.4       0.0
 1 C  s               0.2       0.0       0.1       0.1       0.1       0.0
 1 C  pz              5.4       0.0       0.0       1.1       0.0       0.3
 1 C  px              0.1       9.1      10.2       0.1       0.0       0.0
 1 C  py              0.1       2.9       2.6       0.2       4.4       0.0
 1 C  dxz             0.1       0.0       0.0       0.1       0.0       0.0
 1 C  dx2y2           0.0       0.0       0.1       0.0       0.0       0.0
 1 C  dxy             0.0       0.5       0.2       0.0       0.1       0.0
 2 C  s               0.1       1.0       0.0       0.1       0.0       0.0
 2 C  pz              3.0       0.1       0.0       3.2       0.0       0.9
 2 C  px              0.1       1.7       0.6       0.1      12.6       0.0
 2 C  py              0.3      15.7       0.7       0.0       0.1       0.1
 2 C  dx2y2           0.0       0.0       0.4       0.0       0.1       0.0
 2 C  dxy             0.0       0.1       0.0       0.0       0.0       0.0
 3 C  s               0.1       0.0       0.8       0.0       0.1       0.2
 3 C  pz              4.4       0.0       0.1      12.9       0.2       5.2
 3 C  px              0.0       0.6       1.2       0.1      11.4       0.1
 3 C  py              0.6       0.4      15.4       1.1       0.3       0.2
 3 C  dz2             0.0       0.0       0.0       0.2       0.0       0.2
 3 C  dyz             0.0       0.0       0.1       0.1       0.0       0.1
 3 C  dx2y2           0.0       0.2       0.0       0.0       0.1       0.0
 4 C  s               0.0       0.2       0.3       0.0       0.0       0.4
 4 C  pz              0.5       0.1       0.0       8.6       0.0      19.4
 4 C  px              0.2       8.1      12.9       0.0       0.7       0.1
 4 C  py              2.4       0.8       1.9       2.8       3.1       0.9
 4 C  dz2             0.0       0.0       0.0       0.1       0.0       0.8
 4 C  dx2y2           0.0       0.0       0.1       0.0       0.0       0.0
 4 C  dxy             0.0       0.1       0.1       0.0       0.0       0.0
 5 C  s               0.0       0.4       0.0       0.0       0.2       0.4
 5 C  pz              9.1       0.0       0.1       5.5       0.5      19.7
 5 C  px              0.4       2.6       1.7       2.0       7.3       0.2
 5 C  py              0.6      14.9       1.0       0.6       0.0       0.7
 5 C  dz2             0.0       0.0       0.0       0.1       0.0       0.8
 5 C  dx2y2           0.0       0.0       0.3       0.0       0.0       0.0
 6 C  s               0.0       0.2       0.8       0.0       0.0       0.2
 6 C  pz              1.0       0.0       0.0      14.3       0.1       6.0
 6 C  px              0.4       0.8       2.0       0.7       8.9       0.2
 6 C  py              0.3       2.7      15.7       0.2       0.3       0.1
 6 C  dz2             0.0       0.0       0.0       0.2       0.0       0.2
 6 C  dxz             0.0       0.0       0.0       0.0       0.0       0.1
 6 C  dx2y2           0.0       0.1       0.0       0.0       0.1       0.0
 7 H  s               9.5       0.0       1.2       3.6       3.4       0.1
 7 H  pz              0.0       0.0       0.0       0.0       0.1       0.0
 7 H  px              0.1       0.1       0.0       0.0       0.0       0.0
 7 H  py              0.2       0.0       0.0       0.1       0.1       0.0
 8 H  s              12.4       0.1       0.6       3.8       2.8       0.1
 8 H  pz              0.1       0.0       0.0       0.0       0.1       0.0
 8 H  py              0.2       0.0       0.0       0.0       0.1       0.0
 9 H  s               0.0       4.5       0.1       0.1      13.2       0.0
 9 H  pz              0.2       0.0       0.0       0.1       0.0       0.0
 9 H  py              0.0       0.1       0.0       0.0       0.1       0.0
10 H  s               0.4       6.3       0.7       0.1       1.8       0.0
11 H  s               2.5       0.0       0.0       6.8       0.7       3.4
11 H  py              0.0       0.0       0.1       0.0       0.0       0.0
12 H  s               0.1       0.2       4.7       1.1       0.1       1.6
12 H  px              0.0       0.0       0.0       0.0       0.1       0.0
13 H  s               0.3       3.2       6.1       0.1       0.4       0.7
13 H  pz              0.0       0.0       0.0       0.1       0.0       0.2
14 H  s               0.2       0.1       0.1       5.2       0.0      14.1
15 H  s               3.8       0.3       0.1       3.5       0.2      14.3
16 H  s               1.4       7.0       1.1       0.1       0.5       0.6
16 H  pz              0.0       0.0       0.0       0.0       0.0       0.2
17 H  s               0.9       1.0       4.2       1.3       0.8       1.9
18 H  s               0.1       0.0       0.2       8.2       0.0       4.0
18 H  py              0.0       0.0       0.1       0.0       0.0       0.0

                     24        25        26        27        28        29   
                  -0.28062  -0.26654  -0.20278   0.00199   0.08658   0.11146
                   2.00000   2.00000   2.00000   0.00000   0.00000   0.00000
                  --------  --------  --------  --------  --------  --------
 0 C  s               0.2       0.6       0.0       0.0       6.5      21.8
 0 C  pz              0.0       0.0       2.5       0.3       0.1       0.4
 0 C  px              2.6       6.8       0.0       0.0       3.9       3.5
 0 C  py              0.2       0.7       0.0       0.0       0.0       1.7
 0 C  dz2             0.0       0.0       0.0       0.0       0.2       0.0
 0 C  dxz             0.0       0.0       0.5       1.2       0.0       0.0
 0 C  dyz             0.0       0.0       0.1       0.3       0.0       0.0
 0 C  dx2y2           0.0       0.0       0.0       0.0       0.3       0.1
 1 C  s               0.0       0.0       0.0       0.1       4.9       0.3
 1 C  pz              0.1       0.0      32.7      37.2       0.2       0.2
 1 C  px              1.7       5.3       0.0       0.1       1.7       1.8
 1 C  py              4.5       5.0       0.2       0.3       0.1       0.4
 1 C  dz2             0.0       0.0       0.0       0.0       0.2       0.1
 1 C  dxz             0.0       0.0       0.2       0.3       0.0       0.0
 1 C  dyz             0.0       0.0       0.5       0.8       0.0       0.0
 1 C  dx2y2           0.2       0.7       0.0       0.0       0.8       0.3
 1 C  dxy             0.1       0.1       0.0       0.0       0.0       0.1
 2 C  s               0.0       0.2       0.0       0.1       7.9       0.6
 2 C  pz              0.1       0.0      39.6      36.8       0.1       0.3
 2 C  px              3.6       5.8       0.0       0.0       2.1       2.3
 2 C  py              3.3       2.5       0.3       0.4       3.6       0.1
 2 C  dxz             0.0       0.0       0.2       0.2       0.0       0.0
 2 C  dyz             0.0       0.0       0.3       0.9       0.0       0.0
 2 C  dx2y2           0.0       0.4       0.0       0.0       0.1       0.3
 2 C  dxy             0.2       0.5       0.0       0.0       0.5       0.1
 3 C  s               0.2       0.0       0.0       0.1       6.1       6.3
 3 C  pz              0.0       0.0       2.7       0.0       0.2       0.3
 3 C  px              1.6       8.6       0.0       0.0       0.1       1.5
 3 C  py              8.9       4.1       0.0       0.3       1.6       1.4
 3 C  dz2             0.1       0.0       0.1       0.1       0.0       0.0
 3 C  dxz             0.0       0.0       0.6       1.0       0.0       0.0
 3 C  dyz             0.1       0.1       0.1       0.0       0.2       0.1
 3 C  dx2y2           0.2       0.1       0.0       0.0       0.2       0.0
 3 C  dxy             0.3       0.1       0.0       0.0       0.3       0.1
 4 C  s               0.0       0.0       0.0       0.6       4.2       4.2
 4 C  pz              0.1       0.0       0.0       0.1       1.0       0.5
 4 C  px              4.9       6.0       0.1       0.0       0.8       2.1
 4 C  py             13.7       4.1       0.4       0.3       0.1       0.2
 4 C  dz2             0.1       0.0       0.0       0.0       0.0       0.1
 4 C  dyz             0.1       0.0       0.0       0.0       0.0       0.0
 4 C  dx2y2           0.2       0.4       0.0       0.0       0.6       0.0
 4 C  dxy             0.1       0.0       0.0       0.0       0.0       0.0
 5 C  s               0.0       0.1       0.0       0.6       5.4       3.4
 5 C  pz              0.0       0.1       0.0       0.1       0.6       1.0
 5 C  px              7.6       6.0       0.4       0.2       0.6       3.7
 5 C  py             11.0       3.6       0.0       0.1       1.4       0.1
 5 C  dxz             0.1       0.0       0.0       0.0       0.0       0.3
 5 C  dx2y2           0.0       0.2       0.0       0.0       0.2       0.0
 5 C  dxy             0.2       0.3       0.0       0.0       0.4       0.0
 6 C  s               0.2       0.0       0.0       0.1       9.2       1.8
 6 C  pz              0.0       0.2       1.9       0.1       0.1       0.0
 6 C  px              6.6       8.1       0.0       0.2       1.5      10.0
 6 C  py              3.9       5.3       0.0       0.0       2.5       2.2
 6 C  dz2             0.0       0.0       0.1       0.2       0.0       0.0
 6 C  dxz             0.1       0.0       0.0       0.2       0.1       0.3
 6 C  dyz             0.0       0.0       0.5       1.0       0.0       0.1
 6 C  dx2y2           0.1       0.1       0.0       0.0       0.1       0.3
 6 C  dxy             0.4       0.1       0.0       0.0       0.3       0.0
 7 H  s               0.0       0.6       2.1       2.7       1.1       1.9
 7 H  pz              0.0       0.0       0.0       0.0       0.5       0.7
 7 H  py              0.0       0.0       0.0       0.1       0.1       0.4
 8 H  s               0.0       0.7       2.3       2.7       1.0       1.6
 8 H  pz              0.0       0.0       0.0       0.1       0.3       0.7
 8 H  py              0.0       0.0       0.0       0.0       0.1       0.5
 9 H  s               0.6       0.0       0.0       0.0       0.6       4.6
 9 H  px              0.0       0.1       0.0       0.0       0.0       0.2
 9 H  py              0.0       0.0       0.0       0.0       0.5       2.4
10 H  s               0.8       6.4       0.0       0.0       2.8       0.2
10 H  pz              0.0       0.0       0.4       1.2       0.0       0.0
10 H  px              0.1       0.0       0.0       0.0       0.3       0.1
10 H  py              0.0       0.0       0.0       0.0       0.9       0.0
11 H  s               0.7       0.4       4.0       2.5       0.8       1.2
11 H  pz              0.0       0.0       0.0       0.1       0.4       0.6
11 H  px              0.0       0.1       0.0       0.1       0.0       0.1
12 H  s               5.5       0.5       1.9       0.9       2.7       1.2
12 H  pz              0.1       0.0       0.0       0.0       0.4       0.4
12 H  px              0.0       0.1       0.0       0.1       0.1       0.2
12 H  py              0.0       0.0       0.0       0.0       0.4       0.3
13 H  s               4.0       5.0       0.1       0.0       2.1       0.6
13 H  pz              0.0       0.0       0.0       0.0       0.0       0.3
13 H  px              0.0       0.0       0.0       0.0       0.7       0.4
13 H  py              0.2       0.1       0.0       0.0       0.0       0.0
14 H  s               0.7       0.1       0.1       0.2       0.8       1.5
14 H  pz              0.0       0.0       0.0       0.0       0.3       0.5
14 H  px              0.0       0.1       0.0       0.0       0.1       0.1
14 H  py              0.1       0.0       0.0       0.0       0.0       0.0
15 H  s               0.5       0.3       0.0       0.2       1.0       0.6
15 H  pz              0.0       0.0       0.0       0.0       0.4       0.4
15 H  px              0.1       0.1       0.0       0.0       0.0       0.3
15 H  py              0.1       0.0       0.0       0.0       0.1       0.1
16 H  s               2.1       7.1       0.1       0.0       2.6       0.0
16 H  pz              0.0       0.0       0.0       0.0       0.1       0.0
16 H  px              0.2       0.0       0.0       0.0       0.1       0.1
16 H  py              0.0       0.0       0.0       0.0       0.7       0.1
17 H  s               5.5       0.0       1.5       1.2       2.8       0.7
17 H  pz              0.1       0.0       0.0       0.0       0.5       0.0
17 H  px              0.0       0.1       0.0       0.0       0.3       0.4
17 H  py              0.0       0.1       0.0       0.1       0.7       0.0
18 H  s               0.3       0.7       3.1       2.8       1.4       0.8
18 H  pz              0.0       0.0       0.0       0.1       0.8       0.3
18 H  px              0.1       0.1       0.0       0.1       0.0       0.4
18 H  py              0.0       0.0       0.0       0.1       0.0       0.0

                     30        31        32        33        34        35   
                   0.12187   0.12470   0.13389   0.13775   0.14310   0.15598
                   0.00000   0.00000   0.00000   0.00000   0.00000   0.00000
                  --------  --------  --------  --------  --------  --------
 0 C  s               0.3       0.6       2.7       2.2       5.8       1.3
 0 C  pz              0.2       1.1       3.0       0.2       0.6       3.2
 0 C  px              0.1       0.3       0.6       4.9       9.4      15.6
 0 C  py              7.1       0.7       0.6       7.9       8.9       1.7
 0 C  dz2             0.0       0.0       0.0       0.5       0.0       0.8
 0 C  dyz             0.0       0.1       0.2       0.0       0.0       0.2
 0 C  dx2y2           0.0       0.2       0.1       1.3       0.3       0.6
 0 C  dxy             0.3       0.0       0.0       0.4       0.0       0.2
 1 C  s               0.6       3.2       1.1       6.0       1.4       3.3
 1 C  pz              0.3       0.0       0.1       0.2       0.9       1.2
 1 C  px              0.2       0.5       0.3       1.5       2.1       2.6
 1 C  py              2.1       0.3       0.2       0.5       0.7       0.3
 1 C  dz2             0.1       0.3       0.0       1.0       0.3       0.0
 1 C  dxz             0.0       0.1       0.2       0.0       0.0       0.0
 1 C  dx2y2           0.1       0.3       0.1       0.1       0.3       0.3
 1 C  dxy             0.7       0.0       0.0       0.4       0.0       0.4
 2 C  s               3.9       0.6       0.9       4.2       2.7       0.6
 2 C  pz              0.3       0.3       0.6       0.3       0.2       0.1
 2 C  px              1.4       0.5       0.2       2.9       2.8       2.1
 2 C  py             12.3       0.9       0.4       9.9       0.2       0.2
 2 C  dz2             0.0       0.1       0.2       1.1       0.0       0.1
 2 C  dxz             0.0       0.0       0.2       0.0       0.0       0.0
 2 C  dyz             0.0       0.1       0.0       0.0       0.0       0.0
 2 C  dx2y2           0.3       0.4       0.1       0.1       0.5       0.2
 2 C  dxy             0.0       0.2       0.0       0.2       0.0       0.4
 3 C  s               5.8       0.4       2.0       3.1       2.9       2.5
 3 C  pz              0.3       2.1       4.7       0.1       0.7       0.1
 3 C  px              0.5       2.3       2.7       1.5       3.9       4.9
 3 C  py              7.6       4.4       0.7       0.1       6.2       5.2
 3 C  dz2             0.0       0.1       0.3       0.1       0.3       0.0
 3 C  dyz             0.0       0.5       0.7       0.0       0.3       0.2
 3 C  dx2y2           0.1       0.2       0.2       0.3       0.1       0.8
 3 C  dxy             0.0       0.4       0.0       0.1       0.0       0.1
 4 C  s               2.6      11.5       0.2       0.4       0.5       0.7
 4 C  pz              0.1       4.2       5.9       2.9       0.1       3.0
 4 C  px              2.1      11.5       1.6       0.3       0.4       5.7
 4 C  py              5.7       0.9       4.5       2.1       6.8       0.6
 4 C  dz2             0.1       0.0       0.8       0.1       0.0       0.1
 4 C  dxz             0.0       0.4       0.3       0.0       0.0       0.1
 4 C  dyz             0.2       0.1       0.4       0.0       0.3       0.1
 4 C  dx2y2           0.0       0.1       0.0       0.0       0.1       1.1
 4 C  dxy             0.0       0.0       0.2       0.3       0.7       0.0
 5 C  s               5.3       5.1       1.3       0.4       4.3       0.4
 5 C  pz              0.3       3.2       7.0       0.5       1.7       2.5
 5 C  px              4.2       1.3       2.0       3.1       1.8       4.5
 5 C  py              4.5      10.4       2.5       0.3       0.7       2.8
 5 C  dz2             0.1       0.1       0.6       0.0       0.1       0.8
 5 C  dxz             0.0       0.0       0.6       0.1       0.0       0.0
 5 C  dyz             0.0       0.6       0.1       0.0       0.0       0.1
 5 C  dx2y2           0.1       0.1       0.1       0.1       0.3       0.1
 5 C  dxy             0.4       0.5       0.0       0.1       0.3       0.0
 6 C  s               2.6       2.6       1.0       5.5       2.7       1.7
 6 C  pz              0.2       2.7       7.8       1.6       0.9       4.4
 6 C  px              0.4       4.0       1.5       0.3       4.1       0.3
 6 C  py              5.4       2.1       4.2       0.8       6.5       0.3
 6 C  dz2             0.3       0.0       0.1       0.0       0.0       0.0
 6 C  dxz             0.2       0.2       0.3       0.0       0.1       0.2
 6 C  dyz             0.1       0.1       0.5       0.0       0.0       0.0
 6 C  dx2y2           0.0       0.7       0.4       0.1       0.0       0.0
[...]
 4 C  dyz             0.0       0.7       0.9       0.5       0.1       0.0
 4 C  dx2y2           0.0       1.2       5.5       2.1       2.1       0.3
 4 C  dxy             0.1       0.6       0.7       1.4       0.1       0.0
 5 C  s               0.5       0.2       0.5       0.4       0.8       0.0
 5 C  pz              2.8       0.2       1.3       1.4       3.2       0.2
 5 C  px              0.4       0.4       0.1       3.5       1.0       0.1
 5 C  py              0.7       1.5       1.8       3.6       0.1       0.4
 5 C  dz2             5.9       0.4       1.2       3.3       9.6       0.2
 5 C  dxz             0.0       0.0       0.5       1.3       0.1       0.0
 5 C  dyz             0.0       1.7       2.0       0.4       0.2       0.2
 5 C  dx2y2           0.1       0.0       0.3       4.8       1.0       0.0
 5 C  dxy             0.2       1.2       2.2       4.3       0.1       0.1
 6 C  s               0.4       0.2       0.2       0.8       0.7       0.3
 6 C  pz              3.4       2.1       2.1       0.9       0.1       0.9
 6 C  px              0.4       1.8       0.4       1.6       3.2       0.1
 6 C  py              0.0       0.6       0.3       0.7       0.7       1.4
 6 C  dz2             5.2       0.3       2.4       1.2       2.1       0.0
 6 C  dxz             0.1       2.4       0.4       0.2       1.2       0.2
 6 C  dyz             2.3       4.5       1.6       0.2       0.0       1.1
 6 C  dx2y2           0.4       0.2       0.1       1.5       1.0       0.0
 6 C  dxy             0.1       2.2       0.2       0.1       0.0       3.6
 7 H  s               0.0       0.9       0.0       0.6       0.2       0.0
 7 H  pz              0.0       1.7       0.1       1.3       0.5       0.1
 7 H  px              0.0       0.3       0.0       0.2       0.0       0.0
 7 H  py              0.0       0.2       0.0       0.1       0.0       0.1
 8 H  s               0.0       0.5       0.0       0.2       0.6       0.0
 8 H  pz              0.0       1.2       0.0       0.6       1.2       0.0
 8 H  px              0.0       0.1       0.0       0.0       0.1       0.0
 8 H  py              0.0       0.1       0.0       0.0       0.3       0.0
 9 H  s               0.1       2.0       0.6       1.4       0.4       1.0
 9 H  px              0.1       0.7       0.1       0.5       0.2       0.1
 9 H  py              0.3       3.4       1.4       2.5       0.4       2.5
10 H  s               0.0       0.4       0.5       0.1       0.7       4.6
10 H  pz              0.0       0.1       0.0       0.0       0.0       0.1
10 H  px              0.0       0.3       0.2       0.1       0.3       3.5
10 H  py              0.1       0.7       0.8       0.2       1.5       8.0
11 H  s               3.1       0.5       3.2       0.2       0.0       0.6
11 H  pz              7.4       0.7       7.5       0.7       0.1       0.6
11 H  px              1.4       0.2       0.4       0.0       0.1       0.5
11 H  py              0.5       0.0       0.4       0.3       0.1       0.4
12 H  s               0.4       0.8       0.8       0.6       0.1       1.8
12 H  pz              0.1       0.3       0.0       1.0       0.0       1.6
12 H  px              0.0       0.4       0.9       0.1       0.3       0.1
12 H  py              0.7       1.1       1.8       0.6       0.2       2.3
13 H  s               0.7       1.8       2.6       0.7       2.7       0.5
13 H  pz              0.0       0.1       0.5       0.0       0.1       0.0
13 H  px              1.7       4.7       6.3       2.1       6.0       1.3
13 H  py              0.2       0.0       0.0       0.0       0.0       0.0
14 H  s               2.8       2.5       0.1       0.3       3.7       0.1
14 H  pz              7.4       5.5       0.8       0.8       9.5       0.1
14 H  px              0.0       0.1       0.3       0.2       0.0       0.0
15 H  s               2.6       0.1       0.8       1.6       3.4       0.1
15 H  pz              6.8       0.1       2.5       3.2       9.1       0.2
15 H  px              0.1       0.1       0.0       0.3       0.0       0.1
15 H  py              0.0       0.0       0.2       0.3       0.0       0.0
16 H  s               0.6       1.0       0.2       6.0       0.3       0.4
16 H  pz              0.0       0.0       0.4       0.7       0.0       0.0
16 H  px              1.0       1.4       0.1       2.4       0.1       0.2
16 H  py              0.7       1.7       0.4      12.3       0.3       0.9
17 H  s               0.6       3.8       0.6       0.1       0.7       1.3
17 H  pz              0.2       2.8       0.1       0.5       0.8       1.3
17 H  px              0.8       1.6       0.4       0.0       0.1       0.9
17 H  py              0.4       5.5       1.2       0.0       1.2       0.8
18 H  s               3.1       0.9       1.9       0.6       0.4       0.3
18 H  pz              7.3       1.4       4.3       1.7       1.2       0.3
18 H  px              0.0       0.2       0.2       0.1       0.0       0.0
18 H  py              1.9       0.3       0.7       0.0       0.0       0.6

                    186       187       188       189       190       191   
                  21.57439  21.92894  21.98608  22.01999  22.07235  22.14990
                   0.00000   0.00000   0.00000   0.00000   0.00000   0.00000
                  --------  --------  --------  --------  --------  --------
 0 C  s               6.1      42.1       0.4      40.4       8.1       1.7
 1 C  s              45.4       0.3       8.0       2.8       0.8       0.1
 2 C  s              32.7       0.8       4.9       6.6       0.8       0.0
 3 C  s               2.8      35.7       0.0      22.0      16.3      22.1
 4 C  s               2.6       2.9      39.8       6.2      24.0      23.1
 5 C  s               2.0      16.1       0.2      21.6      28.4      30.7
 6 C  s               8.0       1.7      46.4       0.0      21.2      22.0

                    192   
                  22.27389
                   0.00000
                  --------
 0 C  s               0.8
 1 C  s              42.4
 1 C  py              0.1
 2 C  s              53.8
 3 C  s               0.7
 4 C  s               1.0
 5 C  s               0.6
 6 C  s               0.3


                      *****************************
                      * MAYER POPULATION ANALYSIS *
                      *****************************

  NA   - Mulliken gross atomic population
  ZA   - Total nuclear charge
  QA   - Mulliken gross atomic charge
  VA   - Mayer's total valence
  BVA  - Mayer's bonded valence
  FA   - Mayer's free valence

  ATOM       NA         ZA         QA         VA         BVA        FA
  0 C      6.5327     6.0000    -0.5327     3.7951     3.7951    -0.0000
  1 C      5.8882     6.0000     0.1118     3.3699     3.3699    -0.0000
  2 C      6.2028     6.0000    -0.2028     3.8094     3.8094    -0.0000
  3 C      6.2922     6.0000    -0.2922     3.7260     3.7260    -0.0000
  4 C      6.2964     6.0000    -0.2964     3.6579     3.6579    -0.0000
  5 C      6.2898     6.0000    -0.2898     3.6299     3.6299     0.0000
  6 C      6.3373     6.0000    -0.3373     3.7617     3.7617     0.0000
  7 H      0.8377     1.0000     0.1623     0.9594     0.9594    -0.0000
  8 H      0.8358     1.0000     0.1642     0.9584     0.9584     0.0000
  9 H      0.8527     1.0000     0.1473     0.9656     0.9656    -0.0000
 10 H      0.8505     1.0000     0.1495     0.9688     0.9688    -0.0000
 11 H      0.8494     1.0000     0.1506     0.9585     0.9585    -0.0000
 12 H      0.8544     1.0000     0.1456     0.9607     0.9607    -0.0000
 13 H      0.8488     1.0000     0.1512     0.9609     0.9609    -0.0000
 14 H      0.8478     1.0000     0.1522     0.9643     0.9643     0.0000
 15 H      0.8463     1.0000     0.1537     0.9633     0.9633     0.0000
 16 H      0.8487     1.0000     0.1513     0.9611     0.9611     0.0000
 17 H      0.8495     1.0000     0.1505     0.9604     0.9604     0.0000
 18 H      0.8390     1.0000     0.1610     0.9569     0.9569     0.0000

  Mayer bond orders larger than 0.100000
B(  0-C ,  1-C ) :   0.7985 B(  0-C ,  7-H ) :   0.9843 B(  0-C ,  8-H ) :   0.9863 
B(  0-C ,  9-H ) :   0.9881 B(  1-C ,  2-C ) :   1.8869 B(  1-C ,  6-C ) :   0.8973 
B(  2-C ,  3-C ) :   0.9435 B(  2-C , 10-H ) :   0.9459 B(  3-C ,  4-C ) :   0.9241 
B(  3-C , 11-H ) :   0.9675 B(  3-C , 12-H ) :   0.9701 B(  4-C ,  5-C ) :   0.8611 
B(  4-C , 13-H ) :   0.9691 B(  4-C , 14-H ) :   0.9958 B(  5-C ,  6-C ) :   0.9193 
B(  5-C , 15-H ) :   0.9934 B(  5-C , 16-H ) :   0.9707 B(  6-C , 17-H ) :   0.9733 
B(  6-C , 18-H ) :   0.9793 

-------
TIMINGS
-------

Total SCF time: 0 days 0 hours 0 min 14 sec 

Total time                  ....      14.153 sec
Sum of individual times     ....      13.759 sec  ( 97.2%)

SCF preparation             ....       0.175 sec  (  1.2%)
Fock matrix formation       ....      12.855 sec  ( 90.8%)
  Startup                   ....       0.048 sec  (  0.4% of F)
  Split-RI-J                ....       2.221 sec  ( 17.3% of F)
  XC integration            ....      10.160 sec  ( 79.0% of F)
    XC Preparation          ....       0.000 sec  (  0.0% of XC)
    Basis function eval.    ....       1.754 sec  ( 17.3% of XC)
    Density eval.           ....       3.051 sec  ( 30.0% of XC)
    XC-Functional eval.     ....       1.218 sec  ( 12.0% of XC)
    XC-Potential eval.      ....       3.356 sec  ( 33.0% of XC)
Diagonalization             ....       0.000 sec  (  0.0%)
Density matrix formation    ....       0.172 sec  (  1.2%)
Total Energy calculation    ....       0.031 sec  (  0.2%)
Population analysis         ....       0.105 sec  (  0.7%)
Orbital Transformation      ....       0.052 sec  (  0.4%)
Orbital Orthonormalization  ....       0.000 sec  (  0.0%)
DIIS solution               ....       0.287 sec  (  2.0%)
  MO trafo                  ....       0.000 sec  (  0.0 % of DIIS)
  Orb grad                  ....       0.000 sec  (  0.0 % of DIIS)
  Energy W gradient         ....       0.000 sec  (  0.0 % of DIIS)
  DIIS error                ....       0.005 sec  (  1.8 % of DIIS)
  DIIS work                 ....       0.239 sec  ( 83.4 % of DIIS)
  Form Q                    ....       0.000 sec  (  0.0 % of DIIS)
  Form QpQm                 ....       0.000 sec  (  0.0 % of DIIS)
  Exp/Cayley                ....       0.000 sec  (  0.0 % of DIIS)
  Orb update                ....       0.000 sec  (  0.0 % of DIIS)
  Wake-sleep                ....       0.015 sec  (  5.2 % of DIIS)
SOSCF solution              ....       0.082 sec  (  0.6%)
  MO trafo                  ....       0.049 sec  ( 59.2 % of SOSCF)
  Orb grad                  ....       0.002 sec  (  2.6 % of SOSCF)
  Rot update                ....       0.013 sec  ( 15.5 % of SOSCF)
  Step                      ....       0.018 sec  ( 22.5 % of SOSCF)
Finished LeanSCF after  14.2 sec

Maximum memory used throughout the entire LEANSCF-calculation: 21.6 MB


-------------------------------------------------------------------------------
                          DFT DISPERSION CORRECTION                            
                                                                               
                                DFTD4 V3.4.0                                   
-------------------------------------------------------------------------------
The R2SCAN3C composite method is recognized
Using three-body term ABC
Active option DFTDOPT                   ...         5   

-------------------------   ----------------
Dispersion correction           -0.005433952
-------------------------   ----------------

------------------   -----------------
gCP correction             0.007415744
------------------   -----------------

-------------------------   --------------------
FINAL SINGLE POINT ENERGY      -273.867065840742
-------------------------   --------------------


------------------------------------------------------------------------------
                              ORCA PROPERTY CALCULATIONS
------------------------------------------------------------------------------

GBWName                                 ... sp_gas.gbw
Number of atoms                         ...     19
Number of basis functions               ...    193
Max core memory                         ...   1024 MB

Electric properties:
Dipole moment                           ... YES
Quadrupole moment                       ...  NO
Static polarizability (Dipole/Dipole)   ...  NO
Static polarizability (Dipole/Quad.)    ...  NO
Static polarizability (Quad./Quad.)     ...  NO
Static polarizability (Velocity)        ...  NO

Atomic electric properties:
Dipole moment                           ...  NO
Quadrupole moment                       ...  NO
Static polarizability                   ...  NO

Choice of electric origin               ... Center of mass
Position of electric origin             ...     0.000001    -0.000002    -0.000000

General magnetic properties:
Magnetizability                         ...  NO

EPR properties:
g-Tensor (aka g-matrix)                 ...  NO
Zero-Field splitting spin-orbit         ...  NO
Zero-field splitting spin-spin          ...  NO
Hyperfine couplings                     ...  NO (   0 nuclei)
Quadrupole couplings                    ...  NO (   0 nuclei)
Contact density                         ...  NO (   0 nuclei)

NMR properties:
Chemical shifts                         ...  NO (   0 nuclei)
Spin-rotation constants                 ...  NO (   0 nuclei)
Spin-spin couplings                     ...  NO (   0 nuclei,    0 pairs)

Choice of magnetic origin               ... GIAO
Position of magnetic origin             ...     0.000000     0.000000     0.000000

Properties with geometric perturbations:
SCF Hessian                             ...  NO
IR spectrum                             ...  NO
VCD spectrum                            ...  NO
X-ray spectroscopy properties:
SCF XES/XAS/RIXS spectra                ...  NO


-------------
DIPOLE MOMENT
-------------

Method             : SCF
Type of density    : Electron Density
Multiplicity       :   1
Irrep              :   0
Energy             :  -273.8690476324403562 Eh
Relativity type    : 
Basis              : AO
                                X                 Y                 Z
Electronic contribution:     -0.255215529       0.894200140       0.113665804
Nuclear contribution   :      0.254473232      -0.983649218      -0.126256789
                        -----------------------------------------
Total Dipole Moment    :     -0.000742297      -0.089449078      -0.012590985
                        -----------------------------------------
Magnitude (a.u.)       :      0.090333944
Magnitude (Debye)      :      0.229610637



--------------------
Rotational spectrum 
--------------------
 
Rotational constants in cm-1:             0.151493             0.076187             0.054675 
Rotational constants in MHz :          4541.641335          2284.039357          1639.125866 

Dipole components along the rotational axes: 
x,y,z [a.u.] :    -0.001396    -0.089527    -0.011967 
x,y,z [Debye]:    -0.003547    -0.227559    -0.030418 

 

Dipole moment calculation done in   0.0 sec 

Maximum memory used throughout the entire PROP-calculation: 12.0 MB

--------------------------------
SUGGESTED CITATIONS FOR THIS RUN
--------------------------------

Below you find a list of papers that are relevant to this ORCA run
We neither can nor want to force you to cite these papers, but we appreciate if you do
You receive ORCA, which is the product of decades of hard work by many enthusiastic individuals, for free
The only thing we kindly ask in return is that you cite our papers,
We deeply appreciate it, if you show your appreciation for ORCA by not just citing the generic ORCA reference.

Please note that relegating all ORCA citations to the supporting information does *not* help us.
SI sections are not indexed - citations you put there will not count into any citation statistics
But we need these citations in order to attract the funding resources that allow us to do what we are doing

Therefore, if you are a happy ORCA user, please consider citing a few of the papers listed below in the main body of your paper

In addition to the list printed below, the program has created the file sp_gas.bibtex that contains the list in bibtex format
You can import this file easily into all common literature databanks and citation aid programs


List of essential papers. We consider these as the minimum necessary citations

  1. Neese,F.
     Software update: the ORCA program system, version 5.0
     WIRES Comput. Molec. Sci., 2022 12(1)e1606
     doi.org/10.1002/wcms.1606
  2. Grimme,S.; Hansen,A.; Ehlert,S.; Mewes,J.
     r2SCAN-3c: A 'Swiss army knife' composite electronic-structure method
     J. Chem. Phys., 2021 154 064103
     doi.org/10.1063/5.0040021

List of papers to cite with high priority. The work reported in these papers was absolutely
necessary for this run to complete.
Our perspective: the developers of density functionals and basis sets usually get cited in chemistry papers
Good! But without the algorithms to do something with them, the functionals or basis sets would not do anything.
Hence, in our opinion, the algorithm design and method developments papers are equally worthy of getting cited

  1. Neese,F.
     An improvement of the resolution of the identity approximation for the formation of the Coulomb matrix
     J. Comp. Chem., 2003 24(14)1740-1747
     doi.org/10.1002/jcc.10318
  2. Neese,F.
     The SHARK Integral Generation and Digestion System
     J. Comp. Chem., 2022  1-16
     doi.org/10.1002/jcc.26942
  3. Lehtola,S.; Steigemann,C.; Oliveira,M.; Marques,M.
     Recent developments in Libxc - A comprehensive library of functionals for density functional theory
     Software X, 2018 7 
     doi.org/10.1016/j.softx.2017.11.002
  4. Caldeweyher,E.; Bannwarth,C.; Grimme,S.
     Extension of the D3 dispersion coefficient model
     J. Chem. Phys., 2017 147 034112-XXXX
     doi.org/10.1063/1.4993215
  5. Caldeweyher,E.; Ehlert,S.; Hansen,A.; Neugebauer,H.; Spicher,S.; Bannwarth,C.; Grimme,S.
     A generally applicable atomic-charge dependent London dispersion correction
     J. Chem. Phys., 2019 150 154122-XXXX
     doi.org/10.1063/1.5090222
  6. Caldeweyher,E.; Mewes,J.; Ehlert,S.; Grimme,S.
     Extension and evaluation of the D4 London-dispersion model for periodic systems
     Phys. Chem. Chem. Phys., 2020 22(16)8499-8512
     doi.org/10.1039/D0CP00502A

List of suggested additional citations. These are papers that are important in the 'surrounding' of 
of this run, or papers that preceded the highly important papers. If you like your results we are grateful for a citation.

  1. Neese,F.
     The ORCA program system
     WIRES Comput. Molec. Sci., 2012 2(1)73-78
     doi.org/10.1002/wcms.81
  2. Neese,F.
     Software update: the ORCA program system, version 4.0
     WIRES Comput. Molec. Sci., 2018 8(1)1-6
     doi.org/10.1002/wcms.1327
  3. Neese,F.; Wennmohs,F.; Becker,U.; Riplinger,C.
     The ORCA quantum chemistry program package
     J. Chem. Phys., 2020 152 Art. No. L224108
     doi.org/10.1063/5.0004608

List of optional additional citations

  1. Neese,F.
     Approximate second-order SCF convergence for spin unrestricted wavefunctions
     Chem. Phys. Lett., 2000 325(1-3)93-98
     doi.org/10.1016/s0009-2614(00)00662-x

Timings for individual modules:

Sum of individual times          ...       15.631 sec (=   0.261 min)
Startup calculation              ...        0.981 sec (=   0.016 min)   6.3 %
SCF iterations                   ...       14.540 sec (=   0.242 min)  93.0 %
Property calculations            ...        0.111 sec (=   0.002 min)   0.7 %
                             ****ORCA TERMINATED NORMALLY****
TOTAL RUN TIME: 0 days 0 hours 0 minutes 16 seconds 267 msec
