      -----------------------------------------------------------      
     |                   =====================                   |     
     |                           x T B                           |     
     |                   =====================                   |     
     |                         S. Grimme                         |     
     |          Mulliken Center for Theoretical Chemistry        |     
     |                    University of Bonn                     |     
      -----------------------------------------------------------      

   * xtb version 6.7.1 (edcfbbe) compiled by 'albert@albert-system' on 2024-07-22

   xtb is free software: you can redistribute it and/or modify it under
   the terms of the GNU Lesser General Public License as published by
   the Free Software Foundation, either version 3 of the License, or
   (at your option) any later version.
   
   xtb is distributed in the hope that it will be useful,
   but WITHOUT ANY WARRANTY; without even the implied warranty of
   MERCHANTABILITY or FITNESS FOR A PARTICULAR PURPOSE.  See the
   GNU Lesser General Public License for more details.
   
   Cite this work as:
   * C. Bannwarth, E. Caldeweyher, S. Ehlert, A. Hansen, P. Pracht,
     J. Seibert, S. Spicher, S. Grimme, WIREs Comput. Mol. Sci., 2020, 11,
     e01493. DOI: 10.1002/wcms.1493
   
   for GFN2-xTB:
   * C. Bannwarth, S. Ehlert and S. Grimme., J. Chem. Theory Comput., 2019,
     15, 1652-1671. DOI: 10.1021/acs.jctc.8b01176
   for GFN1-xTB:
   * S. Grimme, C. Bannwarth, P. Shushkov, J. Chem. Theory Comput., 2017,
     13, 1989-2009. DOI: 10.1021/acs.jctc.7b00118
   for GFN0-xTB:
   * P. Pracht, E. Caldeweyher, S. Ehlert, S. Grimme, ChemRxiv, 2019, preprint.
     DOI: 10.26434/chemrxiv.8326202.v1
   for GFN-FF:
   * S. Spicher and S. Grimme, Angew. Chem. Int. Ed., 2020, 59, 15665-15673.
     DOI: 10.1002/anie.202004239
   
   for ALPB and GBSA implicit solvation:
   * S. Ehlert, M. Stahn, S. Spicher, S. Grimme, J. Chem. Theory Comput.,
     2021, 17, 4250-4261. DOI: 10.1021/acs.jctc.1c00471
   
   for ddCOSMO and CPCM-X implicit solvation:
   * M. Stahn, S. Ehlert, S. Grimme, J. Phys. Chem. A,
     2023, XX, XXXX-XXXX. DOI: 10.1021/acs.jpca.3c04382
   
   for DFT-D4:
   * E. Caldeweyher, C. Bannwarth and S. Grimme, J. Chem. Phys., 2017,
     147, 034112. DOI: 10.1063/1.4993215
   * E. Caldeweyher, S. Ehlert, A. Hansen, H. Neugebauer, S. Spicher,
     C. Bannwarth and S. Grimme, J. Chem. Phys., 2019, 150, 154122.
     DOI: 10.1063/1.5090222
   * E. Caldeweyher, J.-M. Mewes, S. Ehlert and S. Grimme, Phys. Chem. Chem. Phys.
     2020, 22, 8499-8512. DOI: 10.1039/D0CP00502A
   
   for sTDA-xTB:
   * S. Grimme and C. Bannwarth, J. Chem. Phys., 2016, 145, 054103.
     DOI: 10.1063/1.4959605
   
   in the mass-spec context:
   * V. Asgeirsson, C. Bauer and S. Grimme, Chem. Sci., 2017, 8, 4879.
     DOI: 10.1039/c7sc00601b
   * J. Koopman and S. Grimme, ACS Omega 2019, 4, 12, 15120-15133.
     DOI: 10.1021/acsomega.9b02011
   
   for metadynamics refer to:
   * S. Grimme, J. Chem. Theory Comput., 2019, 155, 2847-2862
     DOI: 10.1021/acs.jctc.9b00143
   
   for SPH calculations refer to:
   * S. Spicher and S. Grimme, J. Chem. Theory Comput., 2021, 17, 1701-1714
     DOI: 10.1021/acs.jctc.0c01306
   
   for ONIOM refer to:
   * C. Plett, A. Katbashev, S. Ehlert, S. Grimme, M. Bursch,
     Phys. Chem. Chem. Phys., 2023, 25, 17860-17868. DOI: 10.1039/D3CP02178E
   
   for DIPRO refer to:
   * J. Kohn, N. Gildemeister, S. Grimme, D. Fazzi, A. Hansen,
     J. Chem. Phys., 2023, just accepted.
   
   for PTB refer to:
   * S. Grimme, M. Mueller, A. Hansen, J. Chem. Phys., 2023, 158, 124111.
     DOI: 10.1063/5.0137838
   
   with help from (in alphabetical order)
   P. Atkinson, C. Bannwarth, F. Bohle, G. Brandenburg, E. Caldeweyher
   M. Checinski, S. Dohm, S. Ehlert, S. Ehrlich, I. Gerasimov, C. Hölzer
   A. Katbashev, J. Kohn, J. Koopman, C. Lavigne, S. Lehtola, F. März, M. Müller,
   F. Musil, H. Neugebauer, J. Pisarek, C. Plett, P. Pracht, F. Pultar,
   J. Seibert, P. Shushkov, S. Spicher, M. Stahn, M. Steiner, T. Strunk,
   J. Stückrath, T. Rose, and J. Unsleber
   
 * started run on 2025/04/03 at 21:45:03.357     
   ID    Z sym.   atoms
    1    6 C      1-5, 7, 8
    2    7 N      6
    3    1 H      9-17

           -------------------------------------------------
          |                Calculation Setup                |
           -------------------------------------------------

          program call               : /srv/scratch/z5358697/.xtb/bin/xtb solv.coord --gfn2 --sp --chrg 0 --norestart --parallel 1 --alpb water reference -I xtb_sp-xcontrol-inp
          hostname                   : k158
          coordinate file            : solv.coord
          omp threads                :                     1


           -------------------------------------------------
          |                 G F N 2 - x T B                 |
           -------------------------------------------------

        Reference                      10.1021/acs.jctc.8b01176
      * Hamiltonian:
        H0-scaling (s, p, d)           1.850000    2.230000    2.230000
        zeta-weighting                 0.500000
      * Dispersion:
        s8                             2.700000
        a1                             0.520000
        a2                             5.000000
        s9                             5.000000
      * Repulsion:
        kExp                           1.500000    1.000000
        rExp                           1.000000
      * Coulomb:
        alpha                          2.000000
        third order                    shell-resolved
        anisotropic                    true
        a3                             3.000000
        a5                             4.000000
        cn-shift                       1.200000
        cn-exp                         4.000000
        max-rad                        5.000000

      * Solvation model:               ALPB
        Solvent                        water
        Parameter file                 internal GFN2-xTB/ALPB
        Dielectric constant                8.0200E+01
        Reference state                gsolv=reference [X=1]
        Free energy shift                  2.8945E-03 Eh       1.8164E+00 kcal/mol
        Temperature                        2.9815E+02 K
        Density                            1.0000E+00 kg/L
        Solvent mass                       1.8000E+01 g/mol
        Interaction kernel             P16
        Born radius scaling (c1)           1.4744E+00
        Born radii integrator          GBOBC
        Born offset                        0.0000E+00 a0       0.0000E+00 AA
        H-bond correction              true
        Ion screening                  false
        Surface tension                    1.0000E-05 Eh       1.5569E+01 dyn/cm
        Grid points                               974 per atom

          ...................................................
          :                      SETUP                      :
          :.................................................:
          :  # basis functions                  41          :
          :  # atomic orbitals                  41          :
          :  # shells                           25          :
          :  # electrons                        42          :
          :  max. iterations                   250          :
          :  Hamiltonian                  GFN2-xTB          :
          :  restarted?                      false          :
          :  GBSA solvation                   true          :
          :  PC potential                    false          :
          :  electronic temp.          300.0000000     K    :
          :  accuracy                    1.0000000          :
          :  -> integral cutoff          0.2500000E+02      :
          :  -> integral neglect         0.1000000E-07      :
          :  -> SCF convergence          0.1000000E-05 Eh   :
          :  -> wf. convergence          0.1000000E-03 e    :
          :  Broyden damping             0.4000000          :
          :  net charge                          0          :
          :  unpaired electrons                  0          :
          ...................................................

 iter      E             dE          RMSdq      gap      omega  full diag
   1    -22.8685437 -0.228685E+02  0.398E+00    3.82       0.0  T
   2    -22.8761121 -0.756846E-02  0.235E+00    3.57       1.0  T
   3    -22.8735892  0.252292E-02  0.650E-01    3.42       1.0  T
   4    -22.8774785 -0.388927E-02  0.185E-01    3.34       1.0  T
   5    -22.8776672 -0.188705E-03  0.640E-02    3.34       1.0  T
   6    -22.8776766 -0.941521E-05  0.292E-02    3.35       1.0  T
   7    -22.8776807 -0.407970E-05  0.125E-02    3.35       1.9  T
   8    -22.8776809 -0.202475E-06  0.336E-03    3.35       7.2  T
   9    -22.8776809 -0.523104E-07  0.176E-03    3.35      13.8  T
  10    -22.8776809 -0.649590E-08  0.969E-04    3.35      25.0  T
  11    -22.8776809 -0.440406E-08  0.198E-04    3.35     122.5  T

   *** convergence criteria satisfied after 11 iterations ***

         #    Occupation            Energy/Eh            Energy/eV
      -------------------------------------------------------------
         1        2.0000           -0.6564885             -17.8640
       ...           ...                  ...                  ...
        15        2.0000           -0.4681973             -12.7403
        16        2.0000           -0.4625946             -12.5878
        17        2.0000           -0.4497979             -12.2396
        18        2.0000           -0.4286142             -11.6632
        19        2.0000           -0.4221980             -11.4886
        20        2.0000           -0.3944229             -10.7328
        21        2.0000           -0.3628287              -9.8731 (HOMO)
        22                         -0.2397545              -6.5241 (LUMO)
        23                         -0.2255983              -6.1388
        24                         -0.1049223              -2.8551
        25                          0.1032672               2.8100
        26                          0.1116161               3.0372
       ...                                ...                  ...
        41                          0.6331005              17.2275
      -------------------------------------------------------------
                  HL-Gap            0.1230742 Eh            3.3490 eV
             Fermi-level           -0.3012916 Eh           -8.1986 eV

 SCC (total)                   0 d,  0 h,  0 min,  0.025 sec
 SCC setup                      ...        0 min,  0.001 sec (  3.794%)
 Dispersion                     ...        0 min,  0.000 sec (  0.408%)
 classical contributions        ...        0 min,  0.000 sec (  0.079%)
 integral evaluation            ...        0 min,  0.002 sec (  9.537%)
 iterations                     ...        0 min,  0.018 sec ( 70.374%)
 molecular gradient             ...        0 min,  0.004 sec ( 15.205%)
 printout                       ...        0 min,  0.000 sec (  0.523%)

         :::::::::::::::::::::::::::::::::::::::::::::::::::::
         ::                     SUMMARY                     ::
         :::::::::::::::::::::::::::::::::::::::::::::::::::::
         :: total energy             -22.495476622122 Eh    ::
         :: total w/o Gsasa/hb       -22.494508399510 Eh    ::
         :: gradient norm              0.000197788443 Eh/a0 ::
         :: HOMO-LUMO gap              3.349018928639 eV    ::
         ::.................................................::
         :: SCC energy               -22.877639882486 Eh    ::
         :: -> isotropic ES            0.013897025814 Eh    ::
         :: -> anisotropic ES          0.003368363480 Eh    ::
         :: -> anisotropic XC          0.018617107929 Eh    ::
         :: -> dispersion             -0.012565309519 Eh    ::
         :: -> Gsolv                  -0.003419100796 Eh    ::
         ::    -> Gelec               -0.002450878184 Eh    ::
         ::    -> Gsasa               -0.002902942387 Eh    ::
         ::    -> Ghb                 -0.000959829386 Eh    ::
         ::    -> Gshift               0.002894549160 Eh    ::
         :: repulsion energy           0.382163260363 Eh    ::
         :: add. restraining           0.000000000000 Eh    ::
         :: total charge               0.000000000000 e     ::
         :::::::::::::::::::::::::::::::::::::::::::::::::::::

           -------------------------------------------------
          |                Property Printout                |
           -------------------------------------------------

    * Orbital Energies and Occupations

         #    Occupation            Energy/Eh            Energy/eV
      -------------------------------------------------------------
         1        2.0000           -0.6564885             -17.8640
       ...           ...                  ...                  ...
         9        2.0000           -0.5189130             -14.1203
        10        2.0000           -0.5108580             -13.9012
        11        2.0000           -0.4921744             -13.3927
        12        2.0000           -0.4793410             -13.0435
        13        2.0000           -0.4735657             -12.8864
        14        2.0000           -0.4686990             -12.7539
        15        2.0000           -0.4681973             -12.7403
        16        2.0000           -0.4625946             -12.5878
        17        2.0000           -0.4497979             -12.2396
        18        2.0000           -0.4286142             -11.6632
        19        2.0000           -0.4221980             -11.4886
        20        2.0000           -0.3944229             -10.7328
        21        2.0000           -0.3628287              -9.8731 (HOMO)
        22                         -0.2397545              -6.5241 (LUMO)
        23                         -0.2255983              -6.1388
        24                         -0.1049223              -2.8551
        25                          0.1032672               2.8100
        26                          0.1116161               3.0372
        27                          0.1437555               3.9118
        28                          0.1489080               4.0520
        29                          0.1651660               4.4944
        30                          0.1791391               4.8746
        31                          0.2002699               5.4496
        32                          0.2252210               6.1286
       ...                                ...                  ...
        41                          0.6331005              17.2275
      -------------------------------------------------------------
                  HL-Gap            0.1230742 Eh            3.3490 eV
             Fermi-level           -0.3012916 Eh           -8.1986 eV

     #   Z          covCN         q      C6AA      α(0)
     1   6 C        3.758    -0.125    22.955     6.831
     2   6 C        2.962    -0.003    28.091     8.693
     3   6 C        2.935    -0.030    28.759     8.795
     4   6 C        2.911    -0.053    29.326     8.880
     5   6 C        2.901     0.048    26.925     8.508
     6   7 N        1.843    -0.271    27.883     7.826
     7   6 C        2.950     0.091    25.969     8.358
     8   6 C        3.761    -0.132    23.081     6.849
     9   1 H        0.925     0.058     2.227     2.333
    10   1 H        0.925     0.058     2.224     2.332
    11   1 H        0.925     0.059     2.215     2.328
    12   1 H        0.926     0.041     2.439     2.442
    13   1 H        0.926     0.037     2.494     2.469
    14   1 H        0.925     0.030     2.582     2.513
    15   1 H        0.925     0.067     2.118     2.276
    16   1 H        0.925     0.063     2.165     2.301
    17   1 H        0.925     0.063     2.160     2.299

 Mol. C6AA /au·bohr⁶  :       3001.808248
 Mol. C8AA /au·bohr⁸  :      70334.212836
 Mol. α(0) /au        :         86.032219


Wiberg/Mayer (AO) data.
largest (>0.10) Wiberg bond orders for each atom

 ---------------------------------------------------------------------------
     #   Z sym  total        # sym  WBO       # sym  WBO       # sym  WBO
 ---------------------------------------------------------------------------
     1   6 C    3.993 --     2 C    1.027     9 H    0.982    10 H    0.970
                            11 H    0.969
     2   6 C    3.988 --     3 C    1.423     7 C    1.360     1 C    1.027
                             5 C    0.112
     3   6 C    3.991 --     4 C    1.440     2 C    1.423    12 H    0.968
     4   6 C    3.992 --     3 C    1.440     5 C    1.427    13 H    0.970
                             7 C    0.106
     5   6 C    3.984 --     6 N    1.435     4 C    1.427    14 H    0.964
                             2 C    0.112
     6   7 N    3.050 --     5 C    1.435     7 C    1.409
     7   6 C    3.977 --     6 N    1.409     2 C    1.360     8 C    1.025
                             4 C    0.106
     8   6 C    3.993 --     7 C    1.025    15 H    0.983    17 H    0.967
                            16 H    0.967
     9   1 H    0.996 --     1 C    0.982
    10   1 H    0.997 --     1 C    0.970
    11   1 H    0.997 --     1 C    0.969
    12   1 H    0.998 --     3 C    0.968
    13   1 H    0.998 --     4 C    0.970
    14   1 H    0.998 --     5 C    0.964
    15   1 H    0.995 --     8 C    0.983
    16   1 H    0.996 --     8 C    0.967
    17   1 H    0.996 --     8 C    0.967
 ---------------------------------------------------------------------------

Topologies differ in total number of bonds
Writing topology from bond orders to xtbtopo.mol

molecular dipole:
                 x           y           z       tot (Debye)
 q only:        0.664      -0.501      -0.002
   full:        0.584      -0.892      -0.003       2.709
molecular quadrupole (traceless):
                xx          xy          yy          xz          yz          zz
 q only:        3.149       1.310      -0.767      -0.012       0.008      -2.382
  q+dip:        4.742       1.828      -0.862      -0.014       0.011      -3.880
   full:        4.064       1.852      -2.459      -0.015       0.013      -1.605


           -------------------------------------------------
          | TOTAL ENERGY              -22.495476622122 Eh   |
          | GRADIENT NORM               0.000197788443 Eh/α |
          | HOMO-LUMO GAP               3.349018928639 eV   |
           -------------------------------------------------

------------------------------------------------------------------------
 * finished run on 2025/04/03 at 21:45:03.415     
------------------------------------------------------------------------
 total:
 * wall-time:     0 d,  0 h,  0 min,  0.057 sec
 *  cpu-time:     0 d,  0 h,  0 min,  0.024 sec
 * ratio c/w:     0.417 speedup
 SCF:
 * wall-time:     0 d,  0 h,  0 min,  0.026 sec
 *  cpu-time:     0 d,  0 h,  0 min,  0.014 sec
 * ratio c/w:     0.532 speedup

