
                                 *****************
                                 * O   R   C   A *
                                 *****************

                                            #,                                       
                                            ###                                      
                                            ####                                     
                                            #####                                    
                                            ######                                   
                                           ########,                                 
                                     ,,################,,,,,                         
                               ,,#################################,,                 
                          ,,##########################################,,             
                       ,#########################################, ''#####,          
                    ,#############################################,,   '####,        
                  ,##################################################,,,,####,       
                ,###########''''           ''''###############################       
              ,#####''   ,,,,##########,,,,          '''####'''          '####       
            ,##' ,,,,###########################,,,                        '##       
           ' ,,###''''                  '''############,,,                           
         ,,##''                                '''############,,,,        ,,,,,,###''
      ,#''                                            '''#######################'''  
     '                                                          ''''####''''         
             ,#######,   #######,   ,#######,      ##                                
            ,#'     '#,  ##    ##  ,#'     '#,    #''#        ,####,   ,####,        
            ##       ##  ##   ,#'  ##            #'  '#       #'       #'  '#        
            ##       ##  #######   ##           ,######,      #####,   #    #        
            '#,     ,#'  ##    ##  '#,     ,#' ,#      #,     #,   #   #,  ,#        
             '#######'   ##     ##  '#######'  #'      '#     '####' # '####'        



                #########################################################
                #                        -***-                          #
                #          Department of theory and spectroscopy        #
                #                                                       #
                #                      Frank Neese                      #
                #                                                       #
                #     Directorship, Architecture, Infrastructure        #
                #                    SHARK, DRIVERS                     #
                #        Core code/Algorithms in most modules           #
                #                                                       #
                #        Max Planck Institute fuer Kohlenforschung      #
                #                Kaiser Wilhelm Platz 1                 #
                #                 D-45470 Muelheim/Ruhr                 #
                #                      Germany                          #
                #                                                       #
                #                  All rights reserved                  #
                #                        -***-                          #
                #########################################################


                         Program Version 6.0.0  -   RELEASE  -


 With contributions from (in alphabetic order):
   Daniel Aravena         : Magnetic Suceptibility
   Michael Atanasov       : Ab Initio Ligand Field Theory (pilot matlab implementation)
   Alexander A. Auer      : GIAO ZORA, VPT2 properties, NMR spectrum
   Ute Becker             : All parallelization in ORCA, NUMFREQ, NUMCALC
   Giovanni Bistoni       : ED, misc. LED, open-shell LED, HFLD
   Martin Brehm           : Molecular dynamics
   Dmytro Bykov           : pre 5.0 version of the SCF Hessian
   Marcos Casanova-Páez   : Triplet and SCS-CIS(D). UHF-(DLPNO)-IP/EA/STEOM-CCSD. UHF-CVS-IP/STEOM-CCSD
   Vijay G. Chilkuri      : MRCI spin determinant printing, contributions to CSF-ICE
   Pauline Colinet        : FMM embedding
   Dipayan Datta          : RHF DLPNO-CCSD density
   Achintya Kumar Dutta   : EOM-CC, STEOM-CC
   Nicolas Foglia         : Exact transition moments, OPA infrastructure, MCD improvements
   Dmitry Ganyushin       : Spin-Orbit,Spin-Spin,Magnetic field MRCI
   Miquel Garcia          : C-PCM and meta-GGA Hessian, CCSD/C-PCM, Gaussian charge scheme
   Tiago L. C. Gouveia    : GS-ROHF, GS-ROCIS
   Yang Guo               : DLPNO-NEVPT2, F12-NEVPT2, CIM, IAO-localization
   Andreas Hansen         : Spin unrestricted coupled pair/coupled cluster methods
   Ingolf Harden          : AUTO-CI MPn and infrastructure 
   Benjamin Helmich-Paris : MC-RPA, TRAH-(SCF,CASSCF), AVAS, COSX integrals, SCF dyn. polar.
   Lee Huntington         : MR-EOM, pCC
   Robert Izsak           : Overlap fitted RIJCOSX, COSX-SCS-MP3, EOM
   Riya Kayal             : Wick's Theorem for AUTO-CI, AUTO-CI UHF-CCSDT
   Emily Kempfer          : AUTO-CI, RHF CISDT and CCSDT
   Christian Kollmar      : KDIIS, OOCD, Brueckner-CCSD(T), CCSD density, CASPT2, CASPT2-K, improved NEVPT2
   Axel Koslowski         : Symmetry handling
   Simone Kossmann        : Meta GGA functionals, TD-DFT gradient, OOMP2, (MP2 Hessian; deprecated post 5.0)
   Lucas Lang             : DCDCAS
   Marvin Lechner         : AUTO-CI (C++ implementation), FIC-MRCC
   Spencer Leger          : CASSCF response
   Dagmar Lenk            : GEPOL surface, SMD, ORCA-2-JSON
   Dimitrios Liakos       : Extrapolation schemes; Compound Job, initial MDCI parallelization
   Dimitrios Manganas     : Further ROCIS development; embedding schemes. LFT, Crystal Embedding
   Dimitrios Pantazis     : SARC Basis sets
   Anastasios Papadopoulos: AUTO-CI, single reference methods and gradients
   Taras Petrenko         : pre 6.0 DFT Hessian and TD-DFT gradient, (ASA, deprecated), ECA, 1-Electron XAS/XES, NRVS
   Peter Pinski           : DLPNO-MP2, DLPNO-MP2 Gradient
   Christoph Reimann      : Effective Core Potentials
   Marius Retegan         : Local ZFS, SOC
   Christoph Riplinger    : Optimizer, TS searches, QM/MM, DLPNO-CCSD(T), (RO)-DLPNO pert. Triples
   Michael Roemelt        : Original ROCIS implementation
   Masaaki Saitow         : Open-shell DLPNO-CCSD energy and density
   Barbara Sandhoefer     : DKH picture change effects
   Kantharuban Sivalingam : CASSCF convergence/infrastructure, NEVPT2 and variants, FIC-MRCI
   Bernardo de Souza      : ESD, SOC TD-DFT
   Georgi Stoychev        : AutoAux, RI-MP2 NMR, DLPNO-MP2 response, X2C
   Van Anh Tran           : RI-MP2 g-tensors
   Willem Van den Heuvel  : Paramagnetic NMR
   Zikuan Wang            : NOTCH, Electric field optimization 
   Frank Wennmohs         : Technical directorship and infrastructure
   Hang Xu                : AUTO-CI-Response properties 


 We gratefully acknowledge several colleagues who have allowed us to
 interface, adapt or use parts of their codes:
   Stefan Grimme, W. Hujo, H. Kruse, P. Pracht,  : VdW corrections, initial TS optimization,
                  C. Bannwarth, S. Ehlert,         DFT functionals, gCP, sTDA/sTD-DF
                  L. Wittmann, M. Mueller
   Ed Valeev, F. Pavosevic, A. Kumar             : LibInt (2-el integral package), F12 methods
   Garnet Chan, S. Sharma, J. Yang, R. Olivares  : DMRG
   Ulf Ekstrom                                   : XCFun DFT Library
   Mihaly Kallay                                 : mrcc  (arbitrary order and MRCC methods)
   Frank Weinhold                                : gennbo (NPA and NBO analysis)
   Simon Mueller                                 : openCOSMO-RS
   Christopher J. Cramer and Donald G. Truhlar   : smd solvation model
   Lars Goerigk                                  : TD-DFT with DH, B97 family of functionals
   V. Asgeirsson, H. Jonsson                     : NEB implementation
   FAccTs GmbH                                   : IRC, NEB, NEB-TS, DLPNO-Multilevel, CI-OPT
                                                   MM, QMMM, 2- and 3-layer-ONIOM, Crystal-QMMM,
                                                   LR-CPCM, SF, NACMEs, symmetry and pop. for TD-DFT,
                                                   nearIR, NL-DFT gradient (VV10), updates on ESD,
                                                   ML-optimized integration grids, MBIS, APM,
                                                   GOAT, DOCKER, SOLVATOR, interface openCOSMO-RS
   S Lehtola, MJT Oliveira, MAL Marques          : LibXC Library
   Liviu Ungur et al                             : ANISO software


 Your calculation uses the libint2 library for the computation of 2-el integrals
 For citations please refer to: http://libint.valeyev.net

 Your ORCA version has been built with support for libXC version: 6.2.2
 For citations please refer to: https://libxc.gitlab.io

 This ORCA versions uses:
   CBLAS   interface :  Fast vector & matrix operations
   LAPACKE interface :  Fast linear algebra routines
   SCALAPACK package :  Parallel linear algebra routines
   Shared memory     :  Shared parallel matrices
   BLAS/LAPACK       :  OpenBLAS 0.3.27  USE64BITINT DYNAMIC_ARCH NO_AFFINITY SkylakeX SINGLE_THREADED
        Core in use  :  SkylakeX
   Copyright (c) 2011-2014, The OpenBLAS Project


Your calculation utilizes the geometrical counterpoise correction gCP
Please cite in your paper:
H.Kruse, S. Grimme J.Chem.Phys., 136, (2012), 154101 
   

Your calculation utilizes the DFT-NL dispersion correction.
Cite in your paper:
Vydrov, O. A.; Van Voorhis, T. J. Chem. Phys. 2010, 133, 244103
Hujo, W.; Grimme, S. J. Chem. Theory Comput. 2011, 7, 3866 
   

Your calculation utilizes the SMD solvation module
Please cite in your paper:
A.V. Marenich, C.J. Cramer, D.G. Truhlar J. Phys. Chem. B, 113, (2009), 6378 

================================================================================

----- Orbital basis set information -----
Your calculation utilizes the basis: def2-TZVP
   F. Weigend and R. Ahlrichs, Phys. Chem. Chem. Phys. 7, 3297 (2005).

----- AuxJ basis set information -----
Your calculation utilizes the auxiliary basis: def2/J
   F. Weigend, Phys. Chem. Chem. Phys. 8, 1057 (2006).

================================================================================
                                        WARNINGS
                       Please study these warnings very carefully!
================================================================================


================================================================================
                                       INPUT FILE
================================================================================
NAME = sp_solv.inp
|  1> ! wb97x-v def2-tzvp def2/J RIJCOSX DEFGRID2 scfconv7 GCP(DFT/TZ) printgap
|  2> %output
|  3>     printlevel normal
|  4> end
|  5> %cpcm
|  6>     smd true
|  7>     smdsolvent "water"
|  8> end
|  9> * xyz 0 1
| 10> C -1.4935758554699765 0.17490370989695353 -1.2499611000604294
| 11> C -0.6441768583289538 0.4253623225784832 -0.00025766349528666985
| 12> C -1.4929853212668047 0.17619950218836122 1.2501176735107058
| 13> C 0.6441831092030147 -0.42536752785646903 -0.00019623359409827638
| 14> C 1.4935900318144475 -0.17503940194491519 -1.2499363259334015
| 15> C 1.492963402451363 -0.1760404730163868 1.2501546677303803
| 16> H -2.437649184226511 0.7271251054363508 -1.1912031963544525
| 17> H -0.9871755367634626 0.4870058721638539 -2.167490164169711
| 18> H -1.7361182706535248 -0.891456468184942 -1.3429347623874157
| 19> H -0.33530133712978094 1.4822902733703678 -0.0008628738429622716
| 20> H -0.986803702646474 0.4908547004320813 2.1669012315727665
| 21> H -2.437823965966235 0.727014342469162 1.1904492422755117
| 22> H -1.7340518120942643 -0.8902988217365657 1.3453314153539364
| 23> H 0.33532219935106206 -1.482299616117622 -0.0006585436279283593
| 24> H 1.7350846651224814 0.8914897228156122 -1.3437099395251213
| 25> H 2.438207007865587 -0.7262661921526564 -1.190573970726812
| 26> H 0.9876820213064639 -0.488359453657548 -2.1673261566201645
| 27> H 0.986400027892279 -0.4897617699424795 2.1670446010380555
| 28> H 1.7347879875582581 0.8903420255385666 1.3447371416484553
| 29> H 2.4374071977625418 -0.7275831427872766 1.1909784266890242
| 30> *
| 31> 
| 32>                          ****END OF INPUT****
================================================================================

                       ****************************
                       * Single Point Calculation *
                       ****************************

---------------------------------
CARTESIAN COORDINATES (ANGSTROEM)
---------------------------------
  C     -1.493576    0.174904   -1.249961
  C     -0.644177    0.425362   -0.000258
  C     -1.492985    0.176200    1.250118
  C      0.644183   -0.425368   -0.000196
  C      1.493590   -0.175039   -1.249936
  C      1.492963   -0.176040    1.250155
  H     -2.437649    0.727125   -1.191203
  H     -0.987176    0.487006   -2.167490
  H     -1.736118   -0.891456   -1.342935
  H     -0.335301    1.482290   -0.000863
  H     -0.986804    0.490855    2.166901
  H     -2.437824    0.727014    1.190449
  H     -1.734052   -0.890299    1.345331
  H      0.335322   -1.482300   -0.000659
  H      1.735085    0.891490   -1.343710
  H      2.438207   -0.726266   -1.190574
  H      0.987682   -0.488359   -2.167326
  H      0.986400   -0.489762    2.167045
  H      1.734788    0.890342    1.344737
  H      2.437407   -0.727583    1.190978

----------------------------
CARTESIAN COORDINATES (A.U.)
----------------------------
  NO LB      ZA    FRAG     MASS         X           Y           Z
   0 C     6.0000    0    12.011   -2.822449    0.330520   -2.362084
   1 C     6.0000    0    12.011   -1.217318    0.803818   -0.000487
   2 C     6.0000    0    12.011   -2.821333    0.332969    2.362380
   3 C     6.0000    0    12.011    1.217330   -0.803828   -0.000371
   4 C     6.0000    0    12.011    2.822476   -0.330777   -2.362037
   5 C     6.0000    0    12.011    2.821292   -0.332668    2.362450
   6 H     1.0000    0     1.008   -4.606489    1.374067   -2.251048
   7 H     1.0000    0     1.008   -1.865491    0.920308   -4.095963
   8 H     1.0000    0     1.008   -3.280788   -1.684609   -2.537779
   9 H     1.0000    0     1.008   -0.633628    2.801123   -0.001631
  10 H     1.0000    0     1.008   -1.864789    0.927581    4.094850
  11 H     1.0000    0     1.008   -4.606820    1.373858    2.249623
  12 H     1.0000    0     1.008   -3.276883   -1.682421    2.542308
  13 H     1.0000    0     1.008    0.633667   -2.801140   -0.001244
  14 H     1.0000    0     1.008    3.278835    1.684671   -2.539244
  15 H     1.0000    0     1.008    4.607544   -1.372444   -2.249859
  16 H     1.0000    0     1.008    1.866449   -0.922866   -4.095653
  17 H     1.0000    0     1.008    1.864026   -0.925516    4.095121
  18 H     1.0000    0     1.008    3.278274    1.682503    2.541185
  19 H     1.0000    0     1.008    4.606032   -1.374933    2.250623

--------------------------------
INTERNAL COORDINATES (ANGSTROEM)
--------------------------------
 C      0   0   0     0.000000000000     0.00000000     0.00000000
 C      1   0   0     1.531654939069     0.00000000     0.00000000
 C      2   1   0     1.531664585088   109.39928565     0.00000000
 C      2   1   3     1.543895297011   111.88240197   124.56481274
 C      4   2   1     1.531667910875   111.88136317    56.89027246
 C      4   2   1     1.531655752095   111.88671314   180.05798808
 H      1   2   3     1.095296951063   110.59638262    50.94719412
 H      1   2   3     1.093484625389   112.40378489   171.07273434
 H      1   2   3     1.097540411305   110.52062022   291.78187578
 H      2   1   3     1.101136298122   108.18380413   242.36218242
 H      3   2   1     1.093489742587   112.40120577   189.02581211
 H      3   2   1     1.095297847381   110.59550495   309.14917351
 H      3   2   1     1.097541518381   110.52483219    68.31679456
 H      4   2   1     1.101136101743   107.14794907   298.47365473
 H      5   4   2     1.097541581210   110.52107860    56.27674923
 H      5   4   2     1.095297263259   110.59738843   175.44260466
 H      5   4   2     1.093488212716   112.40386395   295.56853899
 H      6   4   2     1.093487381907   112.40072714    64.41287225
 H      6   4   2     1.097541164403   110.52464652   303.70345740
 H      6   4   2     1.095296866874   110.59503479   184.53577089

---------------------------
INTERNAL COORDINATES (A.U.)
---------------------------
 C      0   0   0     0.000000000000     0.00000000     0.00000000
 C      1   0   0     2.894408366508     0.00000000     0.00000000
 C      2   1   0     2.894426594842   109.39928565     0.00000000
 C      2   1   3     2.917539290800   111.88240197   124.56481274
 C      4   2   1     2.894432879668   111.88136317    56.89027246
 C      4   2   1     2.894409902904   111.88671314   180.05798808
 H      1   2   3     2.069811272829   110.59638262    50.94719412
 H      1   2   3     2.066386473639   112.40378489   171.07273434
 H      1   2   3     2.074050798278   110.52062022   291.78187578
 H      2   1   3     2.080846039570   108.18380413   242.36218242
 H      3   2   1     2.066396143742   112.40120577   189.02581211
 H      3   2   1     2.069812966623   110.59550495   309.14917351
 H      3   2   1     2.074052890348   110.52483219    68.31679456
 H      4   2   1     2.080845668467   107.14794907   298.47365473
 H      5   4   2     2.074053009078   110.52107860    56.27674923
 H      5   4   2     2.069811862793   110.59738843   175.44260466
 H      5   4   2     2.066393252704   112.40386395   295.56853899
 H      6   4   2     2.066391682703   112.40072714    64.41287225
 H      6   4   2     2.074052221427   110.52464652   303.70345740
 H      6   4   2     2.069811113733   110.59503479   184.53577089

---------------------
BASIS SET INFORMATION
---------------------
There are 2 groups of distinct atoms

 Group   1 Type C   : 11s6p2d1f contracted to 5s3p2d1f pattern {62111/411/11/1}
 Group   2 Type H   : 5s1p contracted to 3s1p pattern {311/1}

Atom   0C    basis set group =>   1
Atom   1C    basis set group =>   1
Atom   2C    basis set group =>   1
Atom   3C    basis set group =>   1
Atom   4C    basis set group =>   1
Atom   5C    basis set group =>   1
Atom   6H    basis set group =>   2
Atom   7H    basis set group =>   2
Atom   8H    basis set group =>   2
Atom   9H    basis set group =>   2
Atom  10H    basis set group =>   2
Atom  11H    basis set group =>   2
Atom  12H    basis set group =>   2
Atom  13H    basis set group =>   2
Atom  14H    basis set group =>   2
Atom  15H    basis set group =>   2
Atom  16H    basis set group =>   2
Atom  17H    basis set group =>   2
Atom  18H    basis set group =>   2
Atom  19H    basis set group =>   2
---------------------------------
AUXILIARY/J BASIS SET INFORMATION
---------------------------------
There are 2 groups of distinct atoms

 Group   1 Type C   : 12s5p4d2f1g contracted to 6s4p3d1f1g pattern {711111/2111/211/2/1}
 Group   2 Type H   : 5s2p1d contracted to 3s1p1d pattern {311/2/1}

Atom   0C    basis set group =>   1
Atom   1C    basis set group =>   1
Atom   2C    basis set group =>   1
Atom   3C    basis set group =>   1
Atom   4C    basis set group =>   1
Atom   5C    basis set group =>   1
Atom   6H    basis set group =>   2
Atom   7H    basis set group =>   2
Atom   8H    basis set group =>   2
Atom   9H    basis set group =>   2
Atom  10H    basis set group =>   2
Atom  11H    basis set group =>   2
Atom  12H    basis set group =>   2
Atom  13H    basis set group =>   2
Atom  14H    basis set group =>   2
Atom  15H    basis set group =>   2
Atom  16H    basis set group =>   2
Atom  17H    basis set group =>   2
Atom  18H    basis set group =>   2
Atom  19H    basis set group =>   2

Checking for AutoStart:
The File: sp_solv.gbw exists
Trying to determine its content:
     ... Fine, the file contains calculation information
     ... Fine, the calculation information was read
     ... Fine, the file contains a basis set
     ... Fine, the basis set was read
     ... Fine, the file contains a geometry
     ... Fine, the geometry was read
     ... Fine, the file contains a set of orbitals
     ... Fine, the orbitals can be read
     => possible old guess file was deleted
     => GBW file was renamed to GES file
     => GES file is set as startup file
     => Guess is set to MORead
     ... now leaving AutoStart

------------------------------------------------------------------------------
                             ORCA STARTUP CALCULATIONS
                           -- RI-GTO INTEGRALS CHOSEN --
------------------------------------------------------------------------------
------------------------------------------------------------------------------
                   ___                                                        
                  /   \      - P O W E R E D   B Y -                         
                 /     \                                                     
                 |  |  |   _    _      __       _____    __    __             
                 |  |  |  | |  | |    /  \     |  _  \  |  |  /  |          
                  \  \/   | |  | |   /    \    | | | |  |  | /  /          
                 / \  \   | |__| |  /  /\  \   | |_| |  |  |/  /          
                |  |  |   |  __  | /  /__\  \  |    /   |      \           
                |  |  |   | |  | | |   __   |  |    \   |  |\   \          
                \     /   | |  | | |  |  |  |  | |\  \  |  | \   \       
                 \___/    |_|  |_| |__|  |__|  |_| \__\ |__|  \__/        
                                                                              
                      - O R C A' S   B I G   F R I E N D -                    
                                      &                                       
                       - I N T E G R A L  F E E D E R -                       
                                                                              
 v1 FN, 2020, v2 2021, v3 2022-2024                                           
------------------------------------------------------------------------------


----------------------
SHARK INTEGRAL PACKAGE
----------------------

Number of atoms                             ...     20
Number of basis functions                   ...    270
Number of shells                            ...    122
Maximum angular momentum                    ...      3
Integral batch strategy                     ... SHARK/LIBINT Hybrid
RI-J (if used) integral strategy            ... SPLIT-RIJ (Revised 2003 algorithm where possible)
Printlevel                                  ...      1
Contraction scheme used                     ... SEGMENTED contraction
Prescreening option                         ... SCHWARTZ
   Thresh                                   ... 3.000e-11
   Tcut                                     ... 1.000e-12
   Tpresel                                  ... 1.000e-12 
Coulomb Range Separation                    ... NOT USED
Exchange Range Separation                   ... Long Range
   Mu parameter                             ... 3.000e-01
   Scaling (regular/separated)              ... 1.670e-01 8.330e-01
Multipole approximations                    ... NOT USED
Finite Nucleus Model                        ... NOT USED
CABS basis                                  ... NOT available
Auxiliary Coulomb fitting basis             ... AVAILABLE
   # of basis functions in Aux-J            ...    448
   # of shells in Aux-J                     ...    160
   Maximum angular momentum in Aux-J        ...      4
Auxiliary J/K fitting basis                 ... NOT available
Auxiliary Correlation fitting basis         ... NOT available
Auxiliary 'external' fitting basis          ... NOT available

Checking pre-screening integrals            ... done (  0.0 sec) Dimension = 122
Check shell pair data                       ... done (  0.0 sec)
Shell pair information
Shell pair cut-off parameter TPreSel        ...   1.0e-12
Total number of shell pairs                 ...      7503
Shell pairs after pre-screening             ...      7150
Total number of primitive shell pairs       ...     21084
Primitive shell pairs kept                  ...     15806
          la=0 lb=0:   2447 shell pairs
          la=1 lb=0:   2196 shell pairs
          la=1 lb=1:    508 shell pairs
          la=2 lb=0:    836 shell pairs
          la=2 lb=1:    380 shell pairs
          la=2 lb=2:     78 shell pairs
          la=3 lb=0:    420 shell pairs
          la=3 lb=1:    192 shell pairs
          la=3 lb=2:     72 shell pairs
          la=3 lb=3:     21 shell pairs

Calculating one electron integrals          ... done (  0.0 sec)
Calculating RI/J V-Matrix + Cholesky decomp.... done (  0.1 sec)
Calculating Nuclear repulsion               ... done (  0.0 sec) ENN=    262.863460990794 Eh

Diagonalization of the overlap matrix:
Smallest eigenvalue                        ... 1.616e-04
Time for diagonalization                   ...    0.008 sec
Threshold for overlap eigenvalues          ... 1.000e-07
Number of eigenvalues below threshold      ... 0
Time for construction of square roots      ...    0.021 sec
Total time needed                          ...    0.037 sec

-------------------
DFT GRID GENERATION
-------------------

General Integration Accuracy     IntAcc      ... 4.388
Radial Grid Type                 RadialGrid  ... OptM3 with GC (2021)
Angular Grid (max. ang.)         AngularGrid ... 4 (Lebedev-302)
Angular grid pruning method      GridPruning ... 4 (adaptive)
Weight generation scheme         WeightScheme... mBecke (2022)
Basis function cutoff            BFCut       ... 1.0000e-11
Integration weight cutoff        WCut        ... 1.0000e-14
Partially contracted basis set               ... off
Rotationally invariant grid construction     ... off
Angular grids for H and He will be reduced by one unit

Total number of grid points                  ...    80691
Total number of batches                      ...     1269
Average number of points per batch           ...       63
Average number of grid points per atom       ...     4035

--------------------
COSX GRID GENERATION
--------------------

GRIDX 1
-------
General Integration Accuracy     IntAcc      ... 3.816
Radial Grid Type                 RadialGrid  ... OptM3 with GC (2021)
Angular Grid (max. ang.)         AngularGrid ... 1 (Lebedev-50)
Angular grid pruning method      GridPruning ... 4 (adaptive)
Weight generation scheme         WeightScheme... mBecke (2022)
Basis function cutoff            BFCut       ... 1.0000e-11
Integration weight cutoff        WCut        ... 1.0000e-14
Partially contracted basis set               ... on
Rotationally invariant grid construction     ... off
Angular grids for H and He will be reduced by one unit

Total number of grid points                  ...    10410
Total number of batches                      ...       96
Average number of points per batch           ...      108
Average number of grid points per atom       ...      520
UseSFitting                                  ... on

GRIDX 2
-------
General Integration Accuracy     IntAcc      ... 4.020
Radial Grid Type                 RadialGrid  ... OptM3 with GC (2021)
Angular Grid (max. ang.)         AngularGrid ... 2 (Lebedev-110)
Angular grid pruning method      GridPruning ... 4 (adaptive)
Weight generation scheme         WeightScheme... mBecke (2022)
Basis function cutoff            BFCut       ... 1.0000e-11
Integration weight cutoff        WCut        ... 1.0000e-14
Partially contracted basis set               ... on
Rotationally invariant grid construction     ... off
Angular grids for H and He will be reduced by one unit

Total number of grid points                  ...    21233
Total number of batches                      ...      178
Average number of points per batch           ...      119
Average number of grid points per atom       ...     1062
UseSFitting                                  ... on

GRIDX 3
-------
General Integration Accuracy     IntAcc      ... 4.338
Radial Grid Type                 RadialGrid  ... OptM3 with GC (2021)
Angular Grid (max. ang.)         AngularGrid ... 3 (Lebedev-194)
Angular grid pruning method      GridPruning ... 4 (adaptive)
Weight generation scheme         WeightScheme... mBecke (2022)
Basis function cutoff            BFCut       ... 1.0000e-11
Integration weight cutoff        WCut        ... 1.0000e-14
Partially contracted basis set               ... on
Rotationally invariant grid construction     ... off
Angular grids for H and He will be reduced by one unit

Total number of grid points                  ...    46110
Total number of batches                      ...      372
Average number of points per batch           ...      123
Average number of grid points per atom       ...     2306
UseSFitting                                  ... on
Initializing property integral containers    ... done (  0.0 sec)

SHARK setup successfully completed in   2.5 seconds

Maximum memory used throughout the entire STARTUP-calculation: 42.1 MB
-------------------------------------------------------------------------------
                                 ORCA GUESS
                   Start orbitals & Density for SCF / CASSCF
-------------------------------------------------------------------------------

------------
SCF SETTINGS
------------
Hamiltonian:
 Density Functional     Method          .... DFT(GTOs)
 Exchange Functional    Exchange        .... WB97X-V
 Correlation Functional Correlation     .... WB97X-V
 Gradients option       PostSCFGGA      .... off
 Hybrid DFT is turned on
   Fraction HF Exchange ScalHFX         ....  0.167000
   Scaling of DF-GGA-X  ScalDFX         ....  0.000000
   Scaling of DF-GGA-C  ScalDFC         ....  1.000000
   Scaling of DF-LDA-C  ScalLDAC        ....  1.000000
   Perturbative correction              ....  0.000000
 Long-range corrected/Screened/Range-Separated Hybrid DFT is turned on
   Amount of maximum screened exact exchange              ....  0.833000
   Range separation parameter mu (erf(mu*r12)/r12)        ....  0.300000
   NL short-range parameter             ....  6.000000
   NL long-range parameter              ....  0.010000
 RI-approximation to the Coulomb term is turned on
   Number of AuxJ basis functions       .... 448
   RIJ-COSX (HFX calculated with COS-X)).... on


General Settings:
 Integral files         IntName         .... sp_solv
 Hartree-Fock type      HFTyp           .... RHF
 Total Charge           Charge          ....    0
 Multiplicity           Mult            ....    1
 Number of Electrons    NEL             ....   50
 Basis Dimension        Dim             ....  270
 Nuclear Repulsion      ENuc            ....    262.8634609908 Eh

Convergence Acceleration:
 AO-DIIS                CNVDIIS         .... on
   Start iteration      DIISMaxIt       ....    12
   Startup error        DIISStart       ....  0.200000
   # of expansion vecs  DIISMaxEq       ....     5
   Bias factor          DIISBfac        ....   1.050
   Max. coefficient     DIISMaxC        ....  10.000
 MO-DIIS                CNVKDIIS        .... off
 Trust-Rad. Augm. Hess. CNVTRAH         .... auto
   Auto Start mean grad. ratio tolernc. ....  1.125000
   Auto Start start iteration           ....     1
   Auto Start num. interpolation iter.  ....    10
   Max. Number of Micro iterations      ....    24
   Max. Number of Macro iterations      .... Maxiter - #DIIS iter
   Number of Davidson start vectors     ....     2
   Converg. threshold    (grad. norm)   ....   1.000e-04
   Grad. Scal. Fac. for Micro threshold ....   0.100
   Minimum threshold for Micro iter.    ....   1.000e-02
   NR start threshold (gradient norm)   ....   1.000e-04
   Initial trust radius                 ....   0.400
   Minimum AH scaling param. (alpha)    ....   1.000
   Maximum AH scaling param. (alpha)    .... 1000.000
   Quad. conv. algorithm                .... NR
   White noise on init. David. guess    .... on
   Maximum white noise                  ....   0.010
   Pseudo random numbers                .... off
   Inactive MOs                         .... canonical
   Orbital update algorithm             .... Taylor
   Preconditioner                       .... Diag
   Full preconditioner red. dimension   ....   250
 SOSCF                  CNVSOSCF        .... on
   Start iteration      SOSCFMaxIt      ....   150
   Startup grad/error   SOSCFStart      ....  0.003300
   Hessian update       SOSCFHessUp     .... L-BFGS
 Level Shifting         CNVShift        .... on
   Level shift para.    LevelShift      ....    0.2500
   Turn off err/grad.   ShiftErr        ....    0.0010
 Zerner damping         CNVZerner       .... off
 Static damping         CNVDamp         .... on
   Fraction old density DampFac         ....    0.7000
   Max. Damping (<1)    DampMax         ....    0.9800
   Min. Damping (>=0)   DampMin         ....    0.0000
   Turn off err/grad.   DampErr         ....    0.1000

SCF Procedure:
 Maximum # iterations   MaxIter         ....   125
 SCF integral mode      SCFMode         .... Direct
   Integral package                     .... SHARK and LIBINT hybrid scheme
 Reset frequency        DirectResetFreq ....    20
 Integral Threshold     Thresh          ....  3.000e-11 Eh
 Primitive CutOff       TCut            ....  1.000e-12 Eh

Convergence Tolerance:
 Convergence Check Mode ConvCheckMode   .... Total+1el-Energy
 Convergence forced     ConvForced      .... 0
 Energy Change          TolE            ....  1.000e-07 Eh
 1-El. energy change                    ....  1.000e-04 Eh
 Orbital Gradient       TolG            ....  1.000e-04
 Orbital Rotation angle TolX            ....  1.000e-04
 DIIS Error             TolErr          ....  1.000e-07

---------------------
INITIAL GUESS: MOREAD
---------------------
Guess MOs are being read from file: sp_solv.ges
Input Geometry matches current geometry (good)
Atom 0: N(Shells)= 11 and 9 - projection required
Input basis set needs projection
NBasis(read)= 184
NBasis(calc)= 270
Basis set overlap was calculated
Using GuessMode=FMatrix for the initial guess
C*T matrix was formed
Effective Fockian was calculated
Effective Fockian was diagonalized
Initial density was built
                      ------------------
                      INITIAL GUESS DONE (   0.0 sec)
                      ------------------
             **** ENERGY FILE WAS UPDATED (sp_solv.en.tmp) ****
Finished Guess after   0.3 sec
Maximum memory used throughout the entire GUESS-calculation: 23.0 MB

-------------------------------------------------------------------------------------------
                                      ORCA LEAN-SCF
                              memory conserving SCF solver
-------------------------------------------------------------------------------------------

--------------------
CPCM SOLVATION MODEL
--------------------
CPCM parameters:
  Epsilon                                         ...      78.3550
  Refrac                                          ...       1.3328
  Rsolv                                           ...       1.3000
  Surface type                                    ... GAUSSIAN VDW
  Discretization scheme                           ... Constant charge density
    Threshold for H atoms                         ...       5.0000 (charges/Ang^2)
    Threshold for non-H atoms                     ...       5.0000 (charges/Ang^2)
  Epsilon function type                           ...         CPCM
Solvent:                                          ... WATER
SMD-CDS solvent descriptors:
  Soln                                            ...       1.3328
  Soln25                                          ...       1.3323
  Sola                                            ...       0.0000
  Solb                                            ...       0.0000
  Solg                                            ...       0.0000
  Solc                                            ...       0.0000
  Solh                                            ...       0.0000
Radii:
  Scheme                                          ... Element-dependent radii
  Radius for C  used is    3.4960 Bohr (=   1.8500 Ang.)
  Radius for H  used is    2.2677 Bohr (=   1.2000 Ang.)
Calculating surface                               ...        done! (  0.0s)
Cavity surface points                             ...         1450
Cavity Volume                                     ...     798.2631
Cavity Surface-area                               ...     520.6400
Calculating surface distance matrix               ...        done! (  0.0s)
Performing Cholesky decomposition & store         ...        done! (  0.1s)
Overall time for CPCM initialization              ...                 0.1s

----------------------------------------D-I-I-S--------------------------------------------
Iteration    Energy (Eh)           Delta-E    RMSDP     MaxDP     DIISErr   Damp  Time(sec)
-------------------------------------------------------------------------------------------
               ***  Starting incremental Fock matrix formation  ***
    1    -237.2778185825479227     0.00e+00  7.43e-04  1.81e-02  3.24e-02  0.700  18.4
    2    -237.2807638092801312    -2.95e-03  6.48e-04  1.53e-02  2.26e-02  0.700   9.9
                               ***Turning on AO-DIIS***
    3    -237.2830225214032112    -2.26e-03  5.49e-04  1.25e-02  1.58e-02  0.700   9.9
    4    -237.2847001117398236    -1.68e-03  1.39e-03  3.09e-02  1.11e-02  0.000   9.8
                              *** Initializing SOSCF ***
---------------------------------------S-O-S-C-F--------------------------------------
Iteration    Energy (Eh)           Delta-E    RMSDP     MaxDP     MaxGrad    Time(sec)
--------------------------------------------------------------------------------------
    5    -237.2890343927353456    -4.33e-03  6.94e-05  1.48e-03  5.01e-04    10.2
               *** Restarting incremental Fock matrix formation ***
    6    -237.2890640759859480    -2.97e-05  3.12e-05  6.28e-04  1.14e-04    18.4
    7    -237.2890652372477689    -1.16e-06  1.29e-05  2.64e-04  4.64e-05    14.0
    8    -237.2890653286364113    -9.14e-08  1.24e-06  3.34e-05  1.62e-05    13.2
                 **** Energy Check signals convergence ****

               *****************************************************
               *                     SUCCESS                       *
               *           SCF CONVERGED AFTER   8 CYCLES          *
               *****************************************************


------------------
NL GRID GENERATION
------------------

General Integration Accuracy     IntAcc      ... 4.004
Radial Grid Type                 RadialGrid  ... OptM3 with GC (2021)
Angular Grid (max. ang.)         AngularGrid ... 2 (Lebedev-110)
Angular grid pruning method      GridPruning ... 4 (adaptive)
Weight generation scheme         WeightScheme... mBecke (2022)
Basis function cutoff            BFCut       ... 1.0000e-10
Integration weight cutoff        WCut        ... 1.0000e-14
Partially contracted basis set               ... off
Rotationally invariant grid construction     ... off
Angular grids for H and He will be reduced by one unit

Total number of grid points                  ...    23354
Total number of batches                      ...      377
Average number of points per batch           ...       61
Average number of grid points per atom       ...     1168
Final grid set up in    0.2 sec

-------------------------------------------------------------------------------
                    post-SCF DFT-NL dispersion correction                      
-------------------------------------------------------------------------------

SCF Energy:     -237.289065329 
NL    Energy:      0.188123972 
SC+NL Energy:   -237.100941356 
NL done in  :              2.5 sec
-------------------------------------------------------------------------------
Recomputing exchange energy using gridx3       ... done (   31.501 sec)
Old exchange energy                            :    -12.497997546 Eh
New exchange energy                            :    -12.498039183 Eh
Exchange energy change after final integration :     -0.000041636 Eh
Total energy after final integration           :   -237.100982992 Eh

SMD CDS free energy correction energy :                 3.66818     Kcal/mol
Total Energy after SMD CDS correction =              -237.095137373 Eh
             **** ENERGY FILE WAS UPDATED (sp_solv.en.tmp) ****

----------------
TOTAL SCF ENERGY
----------------

Total Energy       :       -237.09513737329405 Eh           -6451.68669 eV

Components:
Nuclear Repulsion  :        262.86346099079384 Eh            7152.87842 eV
Electronic Energy  :       -500.15015735257117 Eh          -13609.77769 eV
One Electron Energy:       -837.92127198189974 Eh          -22800.99699 eV
Two Electron Energy:        337.77111462932857 Eh            9191.21930 eV
CPCM Dielectric    :         -0.00236896685907 Eh              -0.06446 eV
SMD CDS (Gcds)     :          0.00584561911495 Eh               0.15907 eV

Virial components:
Potential Energy   :       -473.04527673274964 Eh          -12872.21639 eV
Kinetic Energy     :        235.95013935945559 Eh            6420.52971 eV
Virial Ratio       :          2.00485271175066

DFT components:
N(Alpha)           :       24.999987511311 electrons
N(Beta)            :       24.999987511311 electrons
N(Total)           :       49.999975022623 electrons
E(X)               :      -23.535474943195 Eh       
E(C)               :       -1.965726618030 Eh       
NL Energy, E(C,NL) :        0.188123972464 Eh       
E(XC)              :      -25.313077588761 Eh       

CPCM Solvation Model Properties:
Surface-charge          :         -0.05370484490716
Corrected charge        :          0.00000000000000
Outlying charge corr.   :          0.00023379050861 Eh               0.00636 eV
Free-energy (cav+disp)  :          0.00584561911495 Eh               0.15907 eV

---------------
SCF CONVERGENCE
---------------

  Last Energy change         ...    9.1389e-08  Tolerance :   1.0000e-07
  Last MAX-Density change    ...    3.3352e-05  Tolerance :   1.0000e-05
  Last RMS-Density change    ...    1.2357e-06  Tolerance :   1.0000e-06
  Last DIIS Error            ...    5.0142e-04  Tolerance :   1.0000e-07
  Last Orbital Gradient      ...    1.6195e-05  Tolerance :   1.0000e-04
  Last Orbital Rotation      ...    1.4574e-05  Tolerance :   1.0000e-04


----------------
ORBITAL ENERGIES
----------------

  NO   OCC          E(Eh)            E(eV) 
   0   2.0000     -12.037054      -327.5449 
   1   2.0000     -12.035967      -327.5153 
   2   2.0000     -12.021089      -327.1105 
   3   2.0000     -12.020743      -327.1010 
   4   2.0000     -12.020608      -327.0974 
   5   2.0000     -12.020563      -327.0961 
   6   2.0000      -1.317347       -35.8468 
   7   2.0000      -1.242005       -33.7967 
   8   2.0000      -1.171504       -31.8783 
   9   2.0000      -1.154398       -31.4128 
  10   2.0000      -1.082635       -29.4600 
  11   2.0000      -1.002103       -27.2686 
  12   2.0000      -0.886483       -24.1224 
  13   2.0000      -0.878624       -23.9086 
  14   2.0000      -0.853942       -23.2369 
  15   2.0000      -0.845551       -23.0086 
  16   2.0000      -0.807108       -21.9625 
  17   2.0000      -0.805905       -21.9298 
  18   2.0000      -0.794644       -21.6234 
  19   2.0000      -0.790579       -21.5127 
  20   2.0000      -0.779850       -21.2208 
  21   2.0000      -0.759516       -20.6675 
  22   2.0000      -0.757011       -20.5993 
  23   2.0000      -0.750511       -20.4224 
  24   2.0000      -0.721170       -19.6240 
  25   0.0000      -0.024415        -0.6644 
  26   0.0000      -0.020747        -0.5645 
  27   0.0000      -0.019320        -0.5257 
  28   0.0000      -0.004284        -0.1166 
  29   0.0000       0.007726         0.2102 
  30   0.0000       0.019287         0.5248 
  31   0.0000       0.033709         0.9173 
  32   0.0000       0.034078         0.9273 
  33   0.0000       0.047241         1.2855 
  34   0.0000       0.050432         1.3723 
  35   0.0000       0.063449         1.7265 
*Only the first 10 virtual orbitals were printed.

                    ********************************
                    * MULLIKEN POPULATION ANALYSIS *
                    ********************************

-----------------------
MULLIKEN ATOMIC CHARGES
-----------------------
   0 C :   -0.417562
   1 C :    0.000601
   2 C :   -0.417643
   3 C :    0.000670
   4 C :   -0.417640
   5 C :   -0.417593
   6 H :    0.127329
   7 H :    0.134202
   8 H :    0.118124
   9 H :    0.075159
  10 H :    0.134253
  11 H :    0.127331
  12 H :    0.118189
  13 H :    0.075155
  14 H :    0.118155
  15 H :    0.127329
  16 H :    0.134211
  17 H :    0.134242
  18 H :    0.118158
  19 H :    0.127330
Sum of atomic charges:    0.0000000

--------------------------------
MULLIKEN REDUCED ORBITAL CHARGES
--------------------------------
  0 C s       :     3.264913  s :     3.264913
      pz      :     0.988637  p :     3.089908
      px      :     1.038612
      py      :     1.062659
      dz2     :     0.018371  d :     0.059363
      dxz     :     0.010166
      dyz     :     0.008148
      dx2y2   :     0.010876
      dxy     :     0.011802
      f0      :     0.000553  f :     0.003378
      f+1     :     0.001027
      f-1     :     0.000377
      f+2     :     0.000319
      f-2     :     0.000424
      f+3     :     0.000131
      f-3     :     0.000546

  1 C s       :     3.109796  s :     3.109796
      pz      :     0.889146  p :     2.744861
      px      :     0.901842
      py      :     0.953873
      dz2     :     0.036010  d :     0.136977
      dxz     :     0.030879
      dyz     :     0.017970
      dx2y2   :     0.030523
      dxy     :     0.021595
      f0      :     0.001579  f :     0.007765
      f+1     :     0.001388
      f-1     :     0.000751
      f+2     :     0.000895
      f-2     :     0.001347
      f+3     :     0.001086
      f-3     :     0.000720

  2 C s       :     3.264958  s :     3.264958
      pz      :     0.988549  p :     3.089938
      px      :     1.038671
      py      :     1.062718
      dz2     :     0.018337  d :     0.059369
      dxz     :     0.010167
      dyz     :     0.008202
      dx2y2   :     0.010897
      dxy     :     0.011765
      f0      :     0.000554  f :     0.003378
      f+1     :     0.001025
      f-1     :     0.000378
      f+2     :     0.000320
      f-2     :     0.000425
      f+3     :     0.000128
      f-3     :     0.000547

  3 C s       :     3.109737  s :     3.109737
      pz      :     0.889139  p :     2.744845
      px      :     0.901840
      py      :     0.953867
      dz2     :     0.036013  d :     0.136982
      dxz     :     0.030883
      dyz     :     0.017970
      dx2y2   :     0.030525
      dxy     :     0.021591
      f0      :     0.001579  f :     0.007765
      f+1     :     0.001389
      f-1     :     0.000751
      f+2     :     0.000895
      f-2     :     0.001347
      f+3     :     0.001086
      f-3     :     0.000720

  4 C s       :     3.264969  s :     3.264969
      pz      :     0.988625  p :     3.089926
      px      :     1.038628
      py      :     1.062673
      dz2     :     0.018363  d :     0.059367
      dxz     :     0.010161
      dyz     :     0.008165
      dx2y2   :     0.010901
      dxy     :     0.011777
      f0      :     0.000553  f :     0.003378
      f+1     :     0.001026
      f-1     :     0.000378
      f+2     :     0.000320
      f-2     :     0.000424
      f+3     :     0.000129
      f-3     :     0.000547

  5 C s       :     3.264938  s :     3.264938
      pz      :     0.988547  p :     3.089909
      px      :     1.038657
      py      :     1.062705
      dz2     :     0.018342  d :     0.059367
      dxz     :     0.010176
      dyz     :     0.008187
      dx2y2   :     0.010880
      dxy     :     0.011782
      f0      :     0.000554  f :     0.003378
      f+1     :     0.001026
      f-1     :     0.000378
      f+2     :     0.000319
      f-2     :     0.000425
      f+3     :     0.000129
      f-3     :     0.000546

  6 H s       :     0.851778  s :     0.851778
      pz      :     0.004212  p :     0.020894
      px      :     0.010531
      py      :     0.006151

  7 H s       :     0.844518  s :     0.844518
      pz      :     0.010408  p :     0.021279
      px      :     0.006048
      py      :     0.004823

  8 H s       :     0.861264  s :     0.861264
      pz      :     0.004230  p :     0.020612
      px      :     0.004572
      py      :     0.011811

  9 H s       :     0.903794  s :     0.903794
      pz      :     0.004004  p :     0.021047
      px      :     0.004738
      py      :     0.012305

 10 H s       :     0.844471  s :     0.844471
      pz      :     0.010397  p :     0.021276
      px      :     0.006046
      py      :     0.004833

 11 H s       :     0.851774  s :     0.851774
      pz      :     0.004213  p :     0.020895
      px      :     0.010541
      py      :     0.006141

 12 H s       :     0.861200  s :     0.861200
      pz      :     0.004234  p :     0.020611
      px      :     0.004566
      py      :     0.011811

 13 H s       :     0.903798  s :     0.903798
      pz      :     0.004003  p :     0.021047
      px      :     0.004738
      py      :     0.012306

 14 H s       :     0.861233  s :     0.861233
      pz      :     0.004231  p :     0.020612
      px      :     0.004568
      py      :     0.011812

 15 H s       :     0.851776  s :     0.851776
      pz      :     0.004213  p :     0.020895
      px      :     0.010539
      py      :     0.006144

 16 H s       :     0.844511  s :     0.844511
      pz      :     0.010406  p :     0.021278
      px      :     0.006044
      py      :     0.004828

 17 H s       :     0.844481  s :     0.844481
      pz      :     0.010399  p :     0.021277
      px      :     0.006049
      py      :     0.004829

 18 H s       :     0.861231  s :     0.861231
      pz      :     0.004232  p :     0.020612
      px      :     0.004569
      py      :     0.011810

 19 H s       :     0.851776  s :     0.851776
      pz      :     0.004212  p :     0.020894
      px      :     0.010536
      py      :     0.006146


------------------------
MULLIKEN OVERLAP CHARGES
------------------------
B(  0-C ,  1-C ) :   0.6130 B(  0-C ,  2-C ) :  -0.0823 B(  0-C ,  3-C ) :  -0.1116 
B(  0-C ,  6-H ) :   0.8404 B(  0-C ,  7-H ) :   0.8506 B(  0-C ,  8-H ) :   0.8059 
B(  0-C ,  9-H ) :  -0.0885 B(  1-C ,  2-C ) :   0.6126 B(  1-C ,  3-C ) :   0.6995 
B(  1-C ,  4-C ) :  -0.1116 B(  1-C ,  5-C ) :  -0.1115 B(  1-C ,  6-H ) :  -0.0845 
B(  1-C ,  7-H ) :  -0.0809 B(  1-C ,  8-H ) :  -0.0677 B(  1-C ,  9-H ) :   0.8430 
B(  1-C , 10-H ) :  -0.0807 B(  1-C , 11-H ) :  -0.0845 B(  1-C , 12-H ) :  -0.0678 
B(  1-C , 13-H ) :  -0.0676 B(  2-C ,  3-C ) :  -0.1115 B(  2-C ,  9-H ) :  -0.0885 
B(  2-C , 10-H ) :   0.8505 B(  2-C , 11-H ) :   0.8404 B(  2-C , 12-H ) :   0.8061 
B(  3-C ,  4-C ) :   0.6129 B(  3-C ,  5-C ) :   0.6126 B(  3-C ,  9-H ) :  -0.0676 
B(  3-C , 13-H ) :   0.8430 B(  3-C , 14-H ) :  -0.0677 B(  3-C , 15-H ) :  -0.0845 
B(  3-C , 16-H ) :  -0.0808 B(  3-C , 17-H ) :  -0.0808 B(  3-C , 18-H ) :  -0.0678 
B(  3-C , 19-H ) :  -0.0845 B(  4-C ,  5-C ) :  -0.0823 B(  4-C , 13-H ) :  -0.0885 
B(  4-C , 14-H ) :   0.8060 B(  4-C , 15-H ) :   0.8404 B(  4-C , 16-H ) :   0.8506 
B(  5-C , 13-H ) :  -0.0885 B(  5-C , 17-H ) :   0.8506 B(  5-C , 18-H ) :   0.8060 
B(  5-C , 19-H ) :   0.8404 


                     *******************************
                     * LOEWDIN POPULATION ANALYSIS *
                     *******************************

----------------------
LOEWDIN ATOMIC CHARGES
----------------------
   0 C :   -0.288958
   1 C :   -0.289493
   2 C :   -0.288965
   3 C :   -0.289488
   4 C :   -0.288965
   5 C :   -0.288961
   6 H :    0.119615
   7 H :    0.118395
   8 H :    0.121482
   9 H :    0.148414
  10 H :    0.118402
  11 H :    0.119618
  12 H :    0.121489
  13 H :    0.148413
  14 H :    0.121486
  15 H :    0.119616
  16 H :    0.118390
  17 H :    0.118406
  18 H :    0.121487
  19 H :    0.119615

-------------------------------
LOEWDIN REDUCED ORBITAL CHARGES
-------------------------------
  0 C s       :     2.824888  s :     2.824888
      pz      :     1.047065  p :     3.173324
      px      :     1.055590
      py      :     1.070669
      dz2     :     0.084919  d :     0.266284
      dxz     :     0.054785
      dyz     :     0.034234
      dx2y2   :     0.045589
      dxy     :     0.046757
      f0      :     0.003727  f :     0.024462
      f+1     :     0.004652
      f-1     :     0.004535
      f+2     :     0.003071
      f-2     :     0.003994
      f+3     :     0.001178
      f-3     :     0.003305

  1 C s       :     2.732517  s :     2.732517
      pz      :     1.003897  p :     2.981756
      px      :     0.989144
      py      :     0.988714
      dz2     :     0.128330  d :     0.522657
      dxz     :     0.136214
      dyz     :     0.062925
      dx2y2   :     0.106474
      dxy     :     0.088715
      f0      :     0.009986  f :     0.052564
      f+1     :     0.007048
      f-1     :     0.007343
      f+2     :     0.007061
      f-2     :     0.009377
      f+3     :     0.007309
      f-3     :     0.004440

  2 C s       :     2.824891  s :     2.824891
      pz      :     1.047045  p :     3.173330
      px      :     1.055612
      py      :     1.070673
      dz2     :     0.084799  d :     0.266282
      dxz     :     0.054767
      dyz     :     0.034455
      dx2y2   :     0.045672
      dxy     :     0.046589
      f0      :     0.003737  f :     0.024462
      f+1     :     0.004647
      f-1     :     0.004535
      f+2     :     0.003060
      f-2     :     0.004004
      f+3     :     0.001169
      f-3     :     0.003310

  3 C s       :     2.732517  s :     2.732517
      pz      :     1.003896  p :     2.981756
      px      :     0.989143
      py      :     0.988716
      dz2     :     0.128330  d :     0.522652
      dxz     :     0.136211
      dyz     :     0.062925
      dx2y2   :     0.106475
      dxy     :     0.088710
      f0      :     0.009986  f :     0.052564
      f+1     :     0.007048
      f-1     :     0.007343
      f+2     :     0.007061
      f-2     :     0.009377
      f+3     :     0.007309
      f-3     :     0.004440

  4 C s       :     2.824893  s :     2.824893
      pz      :     1.047062  p :     3.173332
      px      :     1.055597
      py      :     1.070674
      dz2     :     0.084886  d :     0.266278
      dxz     :     0.054744
      dyz     :     0.034316
      dx2y2   :     0.045683
      dxy     :     0.046649
      f0      :     0.003730  f :     0.024462
      f+1     :     0.004650
      f-1     :     0.004533
      f+2     :     0.003065
      f-2     :     0.004000
      f+3     :     0.001173
      f-3     :     0.003310

  5 C s       :     2.824888  s :     2.824888
      pz      :     1.047047  p :     3.173323
      px      :     1.055606
      py      :     1.070670
      dz2     :     0.084825  d :     0.266288
      dxz     :     0.054799
      dyz     :     0.034391
      dx2y2   :     0.045606
      dxy     :     0.046667
      f0      :     0.003735  f :     0.024462
      f+1     :     0.004649
      f-1     :     0.004536
      f+2     :     0.003064
      f-2     :     0.003999
      f+3     :     0.001173
      f-3     :     0.003307

  6 H s       :     0.819956  s :     0.819956
      pz      :     0.012788  p :     0.060429
      px      :     0.028969
      py      :     0.018672

  7 H s       :     0.820233  s :     0.820233
      pz      :     0.027907  p :     0.061371
      px      :     0.018420
      py      :     0.015044

  8 H s       :     0.818294  s :     0.818294
      pz      :     0.012869  p :     0.060223
      px      :     0.013888
      py      :     0.033467

  9 H s       :     0.795999  s :     0.795999
      pz      :     0.012211  p :     0.055586
      px      :     0.013535
      py      :     0.029841

 10 H s       :     0.820232  s :     0.820232
      pz      :     0.027881  p :     0.061367
      px      :     0.018414
      py      :     0.015072

 11 H s       :     0.819952  s :     0.819952
      pz      :     0.012789  p :     0.060429
      px      :     0.028995
      py      :     0.018644

 12 H s       :     0.818288  s :     0.818288
      pz      :     0.012874  p :     0.060223
      px      :     0.013875
      py      :     0.033473

 13 H s       :     0.796000  s :     0.796000
      pz      :     0.012211  p :     0.055587
      px      :     0.013535
      py      :     0.029841

 14 H s       :     0.818291  s :     0.818291
      pz      :     0.012871  p :     0.060223
      px      :     0.013878
      py      :     0.033474

 15 H s       :     0.819954  s :     0.819954
      pz      :     0.012789  p :     0.060430
      px      :     0.028988
      py      :     0.018653

 16 H s       :     0.820240  s :     0.820240
      pz      :     0.027902  p :     0.061369
      px      :     0.018410
      py      :     0.015057

 17 H s       :     0.820226  s :     0.820226
      pz      :     0.027885  p :     0.061368
      px      :     0.018422
      py      :     0.015061

 18 H s       :     0.818290  s :     0.818290
      pz      :     0.012873  p :     0.060223
      px      :     0.013881
      py      :     0.033468

 19 H s       :     0.819956  s :     0.819956
      pz      :     0.012788  p :     0.060429
      px      :     0.028982
      py      :     0.018658


---------------------------------
LOEWDIN BOND ORDERS (THRESH 0.050000)
---------------------------------
B(  0-C ,  1-C ) :   1.2112 B(  0-C ,  2-C ) :   0.1532 B(  0-C ,  3-C ) :   0.1335 
B(  0-C ,  6-H ) :   0.9002 B(  0-C ,  7-H ) :   0.9016 B(  0-C ,  8-H ) :   0.8998 
B(  0-C ,  9-H ) :   0.0709 B(  1-C ,  2-C ) :   1.2111 B(  1-C ,  3-C ) :   1.0916 
B(  1-C ,  4-C ) :   0.1335 B(  1-C ,  5-C ) :   0.1335 B(  1-C ,  6-H ) :   0.0768 
B(  1-C ,  7-H ) :   0.0740 B(  1-C ,  8-H ) :   0.0754 B(  1-C ,  9-H ) :   0.7925 
B(  1-C , 10-H ) :   0.0740 B(  1-C , 11-H ) :   0.0768 B(  1-C , 12-H ) :   0.0753 
B(  1-C , 13-H ) :   0.0699 B(  2-C ,  3-C ) :   0.1335 B(  2-C ,  9-H ) :   0.0709 
B(  2-C , 10-H ) :   0.9016 B(  2-C , 11-H ) :   0.9002 B(  2-C , 12-H ) :   0.8998 
B(  3-C ,  4-C ) :   1.2111 B(  3-C ,  5-C ) :   1.2111 B(  3-C ,  9-H ) :   0.0699 
B(  3-C , 13-H ) :   0.7925 B(  3-C , 14-H ) :   0.0754 B(  3-C , 15-H ) :   0.0768 
B(  3-C , 16-H ) :   0.0740 B(  3-C , 17-H ) :   0.0740 B(  3-C , 18-H ) :   0.0754 
B(  3-C , 19-H ) :   0.0768 B(  4-C ,  5-C ) :   0.1532 B(  4-C , 13-H ) :   0.0709 
B(  4-C , 14-H ) :   0.8998 B(  4-C , 15-H ) :   0.9002 B(  4-C , 16-H ) :   0.9016 
B(  5-C , 13-H ) :   0.0709 B(  5-C , 17-H ) :   0.9016 B(  5-C , 18-H ) :   0.8998 
B(  5-C , 19-H ) :   0.9002 

------------------------------------------
LOEWDIN REDUCED ORBITAL POPULATIONS PER MO
-------------------------------------------
THRESHOLD FOR PRINTING IS 0.1%%
                      0         1         2         3         4         5   
                 -12.03705 -12.03597 -12.02109 -12.02074 -12.02061 -12.02056
                   2.00000   2.00000   2.00000   2.00000   2.00000   2.00000
                  --------  --------  --------  --------  --------  --------
 0 C  s               0.0       0.1      24.8      24.8      24.8      25.1
 1 C  s              49.5      49.5       0.0       0.0       0.1       0.2
 1 C  dxz             0.0       0.0       0.1       0.1       0.0       0.0
 2 C  s               0.0       0.1      24.9      25.0      24.8      24.7
 3 C  s              49.6      49.4       0.0       0.0       0.1       0.2
 3 C  dxz             0.0       0.0       0.1       0.1       0.0       0.0
 4 C  s               0.0       0.1      25.0      25.1      24.8      24.5
 5 C  s               0.0       0.1      24.8      24.6      25.1      24.9

                      6         7         8         9        10        11   
                  -1.31735  -1.24201  -1.17150  -1.15440  -1.08263  -1.00210
                   2.00000   2.00000   2.00000   2.00000   2.00000   2.00000
                  --------  --------  --------  --------  --------  --------
 0 C  s               5.9       8.6       9.5      10.3       4.9       1.5
 0 C  pz              2.1       1.1       0.3       0.4       1.3       3.4
 0 C  px              1.2       0.1       0.1       0.1       1.9       1.6
 0 C  py              0.0       0.1       0.0       0.0       0.0       1.5
 0 C  dz2             0.1       0.2       0.1       0.1       0.0       0.1
 0 C  dxz             0.4       0.1       0.0       0.0       0.5       0.3
 0 C  dyz             0.0       0.0       0.0       0.0       0.0       0.3
 0 C  dx2y2           0.1       0.0       0.0       0.0       0.1       0.0
 0 C  dxy             0.0       0.0       0.0       0.0       0.0       0.1
 1 C  s              18.3       7.2       0.0       0.0       4.6       6.0
 1 C  pz              0.0       0.0      11.3       6.1       0.0       0.0
 1 C  px              0.3       7.7       0.0       0.0       8.3       0.2
 1 C  py              1.2       0.1       0.0       0.0       0.1       7.9
 1 C  dz2             0.0       0.7       0.0       0.0       0.9       0.0
 1 C  dxz             0.0       0.0       0.6       2.4       0.0       0.0
 1 C  dyz             0.0       0.0       0.3       0.0       0.0       0.0
 1 C  dx2y2           0.3       0.0       0.0       0.0       0.1       0.1
 1 C  dxy             0.2       0.4       0.0       0.0       0.5       0.4
 1 C  f+1             0.2       0.1       0.0       0.0       0.0       0.0
 2 C  s               5.9       8.6       9.5      10.3       4.9       1.5
 2 C  pz              2.1       1.1       0.3       0.4       1.3       3.4
 2 C  px              1.2       0.1       0.1       0.1       1.9       1.6
 2 C  py              0.0       0.1       0.0       0.0       0.0       1.4
 2 C  dz2             0.1       0.2       0.1       0.1       0.0       0.1
 2 C  dxz             0.4       0.1       0.0       0.0       0.5       0.3
 2 C  dyz             0.0       0.0       0.0       0.0       0.0       0.3
 2 C  dx2y2           0.1       0.0       0.0       0.0       0.1       0.0
 2 C  dxy             0.0       0.0       0.0       0.0       0.0       0.1
 3 C  s              18.3       7.2       0.0       0.0       4.6       6.0
 3 C  pz              0.0       0.0      11.3       6.1       0.0       0.0
 3 C  px              0.3       7.7       0.0       0.0       8.3       0.2
 3 C  py              1.2       0.1       0.0       0.0       0.1       7.9
 3 C  dz2             0.0       0.7       0.0       0.0       0.9       0.0
 3 C  dxz             0.0       0.0       0.6       2.4       0.0       0.0
 3 C  dyz             0.0       0.0       0.3       0.0       0.0       0.0
 3 C  dx2y2           0.3       0.0       0.0       0.0       0.1       0.1
 3 C  dxy             0.2       0.4       0.0       0.0       0.5       0.4
 3 C  f+1             0.2       0.1       0.0       0.0       0.0       0.0
 4 C  s               5.9       8.6       9.5      10.3       4.9       1.5
 4 C  pz              2.1       1.1       0.3       0.4       1.3       3.4
 4 C  px              1.2       0.1       0.1       0.1       1.9       1.6
 4 C  py              0.0       0.1       0.0       0.0       0.0       1.4
 4 C  dz2             0.1       0.2       0.1       0.1       0.0       0.1
 4 C  dxz             0.4       0.1       0.0       0.0       0.5       0.3
 4 C  dyz             0.0       0.0       0.0       0.0       0.0       0.3
 4 C  dx2y2           0.1       0.0       0.0       0.0       0.1       0.0
 4 C  dxy             0.0       0.0       0.0       0.0       0.0       0.1
 5 C  s               5.9       8.6       9.5      10.3       4.9       1.5
 5 C  pz              2.1       1.1       0.3       0.4       1.3       3.4
 5 C  px              1.2       0.1       0.1       0.1       1.9       1.6
 5 C  py              0.0       0.1       0.0       0.0       0.0       1.4
 5 C  dz2             0.1       0.2       0.1       0.1       0.0       0.1
 5 C  dxz             0.4       0.1       0.0       0.0       0.5       0.3
 5 C  dyz             0.0       0.0       0.0       0.0       0.0       0.3
 5 C  dx2y2           0.1       0.0       0.0       0.0       0.1       0.0
 5 C  dxy             0.0       0.0       0.0       0.0       0.0       0.1
 6 H  s               1.0       1.9       2.5       2.9       2.7       1.0
 6 H  px              0.1       0.2       0.2       0.2       0.2       0.0
 7 H  s               1.0       1.6       3.0       3.0       2.2       1.2
 7 H  pz              0.1       0.1       0.2       0.2       0.1       0.0
 8 H  s               1.0       1.7       2.6       3.0       2.2       2.2
 8 H  py              0.1       0.2       0.2       0.3       0.2       0.2
 9 H  s               3.0       1.4       0.0       0.0       1.9       7.5
 9 H  py              0.3       0.1       0.0       0.0       0.2       0.5
10 H  s               1.0       1.6       3.0       3.0       2.2       1.2
10 H  pz              0.1       0.1       0.2       0.2       0.1       0.0
11 H  s               1.0       1.9       2.5       2.9       2.7       1.0
11 H  px              0.1       0.2       0.2       0.2       0.2       0.0
12 H  s               1.0       1.7       2.6       3.0       2.2       2.2
12 H  py              0.1       0.2       0.2       0.3       0.2       0.2
13 H  s               3.0       1.4       0.0       0.0       1.9       7.5
13 H  py              0.3       0.1       0.0       0.0       0.2       0.5
14 H  s               1.0       1.7       2.6       3.0       2.2       2.2
14 H  py              0.1       0.2       0.2       0.3       0.2       0.2
15 H  s               1.0       1.9       2.5       2.9       2.7       1.0
15 H  px              0.1       0.2       0.2       0.2       0.2       0.0
16 H  s               1.0       1.6       3.0       3.0       2.2       1.2
16 H  pz              0.1       0.1       0.2       0.2       0.1       0.0
17 H  s               1.0       1.6       3.0       3.0       2.2       1.2
17 H  pz              0.1       0.1       0.2       0.2       0.1       0.0
18 H  s               1.0       1.7       2.6       3.0       2.2       2.2
18 H  py              0.1       0.2       0.2       0.3       0.2       0.2
19 H  s               1.0       1.9       2.5       2.9       2.7       1.0
19 H  px              0.1       0.2       0.2       0.2       0.2       0.0

                     12        13        14        15        16        17   
                  -0.88648  -0.87862  -0.85394  -0.84555  -0.80711  -0.80590
                   2.00000   2.00000   2.00000   2.00000   2.00000   2.00000
                  --------  --------  --------  --------  --------  --------
 0 C  s               0.2       0.0       0.1       0.0       0.1       0.0
 0 C  pz              6.7       6.1       1.4       4.2       2.2       0.0
 0 C  px              0.3       1.7      10.9       0.8       8.3       4.7
 0 C  py              3.0       3.2       0.2       6.6       2.3       8.6
 0 C  dz2             0.1       0.1       0.0       0.0       0.2       0.2
 0 C  dxz             0.2       0.0       0.1       0.1       0.0       0.0
 0 C  dyz             0.0       0.2       0.0       0.0       0.0       0.1
 0 C  dx2y2           0.0       0.0       0.1       0.1       0.2       0.2
 0 C  dxy             0.0       0.0       0.1       0.0       0.4       0.0
 1 C  s               0.3       0.1       0.0       0.0       0.3       0.0
 1 C  pz              0.0       0.0      13.1       0.0       0.0       5.2
 1 C  px              5.1      10.3       0.0       0.5       0.2       0.0
 1 C  py             10.2       4.7       0.0       7.2       0.1       0.0
 1 C  dz2             0.0       0.1       0.0       0.2       0.9       0.0
 1 C  dxz             0.0       0.0       0.4       0.0       0.0       0.3
 1 C  dyz             0.0       0.0       0.2       0.0       0.0       1.0
 1 C  dx2y2           0.1       0.0       0.0       0.9       0.8       0.0
 1 C  dxy             0.0       0.0       0.0       0.3       0.3       0.0
 1 C  f0              0.0       0.0       0.0       0.0       0.0       0.2
 2 C  s               0.2       0.0       0.1       0.0       0.1       0.0
 2 C  pz              6.7       6.1       1.4       4.1       2.2       0.1
 2 C  px              0.3       1.7      10.9       0.8       8.3       4.7
 2 C  py              3.0       3.2       0.2       6.6       2.3       8.6
 2 C  dz2             0.1       0.1       0.0       0.0       0.2       0.2
 2 C  dxz             0.2       0.0       0.1       0.1       0.0       0.0
 2 C  dyz             0.0       0.2       0.0       0.0       0.0       0.1
 2 C  dx2y2           0.0       0.0       0.1       0.1       0.2       0.2
 2 C  dxy             0.0       0.0       0.1       0.0       0.4       0.0
 3 C  s               0.3       0.1       0.0       0.0       0.3       0.0
 3 C  pz              0.0       0.0      13.1       0.0       0.0       5.2
 3 C  px              5.1      10.3       0.0       0.5       0.2       0.0
 3 C  py             10.2       4.7       0.0       7.2       0.1       0.0
 3 C  dz2             0.0       0.1       0.0       0.2       0.9       0.0
 3 C  dxz             0.0       0.0       0.4       0.0       0.0       0.3
 3 C  dyz             0.0       0.0       0.2       0.0       0.0       1.0
 3 C  dx2y2           0.1       0.0       0.0       0.9       0.8       0.0
 3 C  dxy             0.0       0.0       0.0       0.3       0.3       0.0
 3 C  f0              0.0       0.0       0.0       0.0       0.0       0.2
 4 C  s               0.2       0.0       0.1       0.0       0.1       0.0
 4 C  pz              6.7       6.1       1.4       4.2       2.2       0.0
 4 C  px              0.3       1.7      10.9       0.8       8.3       4.7
 4 C  py              3.0       3.2       0.2       6.6       2.3       8.6
 4 C  dz2             0.1       0.1       0.0       0.0       0.2       0.2
 4 C  dxz             0.2       0.0       0.1       0.1       0.0       0.0
 4 C  dyz             0.0       0.2       0.0       0.0       0.0       0.1
 4 C  dx2y2           0.0       0.0       0.1       0.1       0.2       0.2
 4 C  dxy             0.0       0.0       0.1       0.0       0.4       0.0
 5 C  s               0.2       0.0       0.1       0.0       0.1       0.0
 5 C  pz              6.7       6.1       1.4       4.1       2.2       0.1
 5 C  px              0.3       1.7      10.9       0.8       8.3       4.7
 5 C  py              3.0       3.2       0.2       6.6       2.3       8.6
 5 C  dz2             0.1       0.1       0.0       0.0       0.2       0.2
 5 C  dxz             0.2       0.0       0.1       0.1       0.0       0.0
 5 C  dyz             0.0       0.2       0.0       0.0       0.0       0.1
 5 C  dx2y2           0.0       0.0       0.1       0.1       0.2       0.2
 5 C  dxy             0.0       0.0       0.1       0.0       0.4       0.0
 6 H  s               0.9       1.3       3.4       0.2       6.3       0.1
 6 H  py              0.0       0.0       0.1       0.0       0.0       0.1
 7 H  s               2.9       2.3       0.0       3.7       2.4       1.5
 7 H  pz              0.1       0.0       0.1       0.1       0.1       0.1
 7 H  px              0.1       0.0       0.1       0.0       0.0       0.0
 8 H  s               0.2       1.3       1.2       2.5       0.7       5.7
 8 H  px              0.0       0.0       0.1       0.0       0.1       0.0
 8 H  py              0.0       0.0       0.1       0.1       0.0       0.1
 9 H  s               4.0       0.9       0.0       3.5       0.2       0.0
 9 H  pz              0.0       0.0       0.2       0.0       0.0       0.1
 9 H  px              0.0       0.2       0.0       0.0       0.0       0.0
 9 H  py              0.1       0.0       0.0       0.1       0.0       0.0
10 H  s               2.9       2.3       0.0       3.8       2.4       1.5
10 H  pz              0.1       0.0       0.0       0.1       0.1       0.1
10 H  px              0.1       0.0       0.1       0.0       0.0       0.0
11 H  s               0.9       1.3       3.4       0.1       6.2       0.1
11 H  py              0.0       0.0       0.1       0.0       0.0       0.1
12 H  s               0.2       1.3       1.1       2.5       0.7       5.7
12 H  px              0.0       0.0       0.1       0.0       0.1       0.0
12 H  py              0.0       0.0       0.1       0.1       0.0       0.1
13 H  s               4.0       0.9       0.0       3.5       0.2       0.0
13 H  pz              0.0       0.0       0.2       0.0       0.0       0.1
13 H  px              0.0       0.2       0.0       0.0       0.0       0.0
13 H  py              0.1       0.0       0.0       0.1       0.0       0.0
14 H  s               0.2       1.3       1.2       2.5       0.7       5.7
14 H  px              0.0       0.0       0.1       0.0       0.1       0.0
14 H  py              0.0       0.0       0.1       0.1       0.0       0.1
15 H  s               0.9       1.3       3.4       0.2       6.3       0.1
15 H  py              0.0       0.0       0.1       0.0       0.0       0.1
16 H  s               2.9       2.3       0.0       3.8       2.4       1.5
16 H  pz              0.1       0.0       0.1       0.1       0.1       0.1
16 H  px              0.1       0.0       0.1       0.0       0.0       0.0
17 H  s               2.9       2.3       0.0       3.8       2.4       1.5
17 H  pz              0.1       0.0       0.0       0.1       0.1       0.1
17 H  px              0.1       0.0       0.1       0.0       0.0       0.0
18 H  s               0.2       1.3       1.2       2.5       0.7       5.7
18 H  px              0.0       0.0       0.1       0.0       0.1       0.0
18 H  py              0.0       0.0       0.1       0.1       0.0       0.1
19 H  s               0.9       1.3       3.4       0.1       6.2       0.1
19 H  py              0.0       0.0       0.1       0.0       0.0       0.1

                     18        19        20        21        22        23   
                  -0.79464  -0.79058  -0.77985  -0.75952  -0.75701  -0.75051
                   2.00000   2.00000   2.00000   2.00000   2.00000   2.00000
                  --------  --------  --------  --------  --------  --------
 0 C  s               0.0       0.0       0.1       0.1       0.1       0.1
 0 C  pz              0.1       0.0       9.7       0.1      12.2       0.7
 0 C  px              0.2       8.3       2.0       2.2       0.1       8.2
 0 C  py             13.1       4.9       0.0       6.7       0.0       0.0
 0 C  dz2             0.0       0.1       0.7       0.5       0.6       0.9
 0 C  dxz             0.0       0.0       0.5       0.0       0.3       0.2
 0 C  dyz             0.1       0.0       0.1       0.3       0.1       0.0
 0 C  dx2y2           0.3       0.2       0.0       0.1       0.0       0.2
 0 C  dxy             0.2       0.4       0.0       0.3       0.0       0.2
 1 C  pz              0.0       2.4       4.8       0.0       7.3       0.0
 1 C  px              0.0       0.0       0.0       2.4       0.0      13.8
 1 C  py              0.0       0.0       0.0       4.6       0.0       0.0
 1 C  dz2             0.0       0.0       0.0       1.1       0.0       2.1
 1 C  dxz             0.1       0.1       0.4       0.0       2.3       0.0
 1 C  dyz             1.1       0.5       0.1       0.0       0.0       0.0
 1 C  dxy             0.0       0.0       0.0       1.1       0.0       0.2
 1 C  f0              0.0       0.1       0.2       0.0       0.0       0.0
 1 C  f+2             0.0       0.1       0.1       0.0       0.0       0.0
 1 C  f-2             0.1       0.1       0.0       0.0       0.1       0.0
 1 C  f+3             0.0       0.0       0.0       0.0       0.0       0.1
 2 C  s               0.0       0.0       0.1       0.1       0.1       0.1
 2 C  pz              0.1       0.0       9.7       0.1      12.2       0.7
 2 C  px              0.2       8.3       2.0       2.3       0.1       8.2
 2 C  py             13.1       4.9       0.0       6.7       0.0       0.0
 2 C  dz2             0.0       0.1       0.7       0.6       0.6       0.9
 2 C  dxz             0.0       0.0       0.5       0.0       0.3       0.2
 2 C  dyz             0.1       0.0       0.1       0.3       0.1       0.0
 2 C  dx2y2           0.3       0.2       0.0       0.1       0.0       0.2
 2 C  dxy             0.2       0.4       0.0       0.3       0.0       0.2
 3 C  pz              0.0       2.4       4.8       0.0       7.3       0.0
 3 C  px              0.0       0.0       0.0       2.4       0.0      13.8
 3 C  py              0.0       0.0       0.0       4.6       0.0       0.0
 3 C  dz2             0.0       0.0       0.0       1.1       0.0       2.1
 3 C  dxz             0.1       0.1       0.4       0.0       2.3       0.0
 3 C  dyz             1.1       0.5       0.1       0.0       0.0       0.0
 3 C  dxy             0.0       0.0       0.0       1.1       0.0       0.2
 3 C  f0              0.0       0.1       0.2       0.0       0.0       0.0
 3 C  f+2             0.0       0.1       0.1       0.0       0.0       0.0
 3 C  f-2             0.1       0.1       0.0       0.0       0.1       0.0
 3 C  f+3             0.0       0.0       0.0       0.0       0.0       0.1
 4 C  s               0.0       0.0       0.1       0.1       0.1       0.1
 4 C  pz              0.1       0.0       9.7       0.1      12.2       0.7
 4 C  px              0.2       8.3       2.0       2.2       0.1       8.2
 4 C  py             13.1       4.9       0.0       6.7       0.0       0.0
 4 C  dz2             0.0       0.1       0.7       0.5       0.6       0.9
 4 C  dxz             0.0       0.0       0.5       0.0       0.3       0.2
 4 C  dyz             0.1       0.0       0.1       0.3       0.1       0.0
 4 C  dx2y2           0.3       0.2       0.0       0.1       0.0       0.2
 4 C  dxy             0.2       0.4       0.0       0.3       0.0       0.2
 5 C  s               0.0       0.0       0.1       0.1       0.1       0.1
 5 C  pz              0.1       0.0       9.7       0.1      12.2       0.7
 5 C  px              0.2       8.3       2.0       2.3       0.1       8.2
 5 C  py             13.1       4.9       0.0       6.7       0.0       0.0
 5 C  dz2             0.0       0.1       0.7       0.6       0.6       0.9
 5 C  dxz             0.0       0.0       0.5       0.0       0.3       0.2
 5 C  dyz             0.1       0.0       0.1       0.3       0.1       0.0
 5 C  dx2y2           0.3       0.2       0.0       0.1       0.0       0.2
 5 C  dxy             0.2       0.4       0.0       0.3       0.0       0.2
 6 H  s               2.5       7.1       1.5       0.0       0.3       4.3
 6 H  pz              0.0       0.0       0.1       0.0       0.2       0.0
 6 H  px              0.1       0.1       0.0       0.0       0.0       0.0
[...]
 3 C  pz              0.0       1.1       4.2       0.0       6.4       0.0
 3 C  px              3.5       0.0       0.0       6.9       0.0       2.4
 3 C  py              0.4       0.0       0.0       3.1       0.0       0.5
 3 C  dz2             3.9       0.0       0.0       3.1       0.0       2.3
 3 C  dxz             0.0       1.2       7.8       0.0       6.8       0.0
 3 C  dyz             0.0       0.5       0.7       0.0       0.5       0.0
 3 C  dx2y2           0.7       0.0       0.0       1.5       0.0       0.2
 3 C  dxy             0.1       0.0       0.0       5.9       0.0       0.9
 3 C  f0              0.0      13.8       0.9       0.0       0.7       0.0
 3 C  f+1             5.9       0.0       0.0       5.4       0.0       7.6
 3 C  f-1             0.6       0.0       0.0       0.7       0.0       0.8
 3 C  f+2             0.0       3.0       6.3       0.0       0.2       0.0
 3 C  f-2             0.0       4.3       0.6       0.0       4.2       0.0
 3 C  f+3             0.1       0.0       0.0       0.5       0.0       0.0
 3 C  f-3             1.8       0.0       0.0       5.9       0.0       0.7
 4 C  s               4.3       0.2       4.2       0.2       5.8       3.4
 4 C  pz              0.7       0.0       1.2       0.2       1.5       1.7
 4 C  px              0.1       0.6       0.4       0.1       0.8       1.1
 4 C  py              0.1       0.1       0.1       0.0       0.1       0.0
 4 C  dz2             0.2       1.9       1.3       0.1       0.5       0.9
 4 C  dxz             1.1       0.3       0.7       0.4       1.5       2.0
 4 C  dyz             0.4       0.0       0.1       0.1       0.0       0.2
 4 C  dx2y2           0.1       0.5       0.0       0.1       0.3       0.2
 4 C  dxy             0.2       0.4       0.1       0.1       0.0       0.3
 4 C  f0              0.2       0.3       0.9       0.0       0.1       0.0
 4 C  f+1             2.9       0.6       3.3       0.1       2.9       0.7
 4 C  f-1             1.1       2.6       1.2       0.0       0.0       0.0
 4 C  f+2             0.0       0.8       0.0       0.1       0.7       0.4
 4 C  f-2             0.1       0.2       0.1       0.0       0.0       0.0
 4 C  f-3             1.5       1.5       0.2       0.0       0.5       0.1
 5 C  s               4.3       0.2       4.2       0.2       5.8       3.4
 5 C  pz              0.6       0.0       1.2       0.2       1.5       1.7
 5 C  px              0.1       0.6       0.4       0.1       0.8       1.1
 5 C  py              0.1       0.1       0.1       0.0       0.1       0.0
 5 C  dz2             0.2       1.9       1.3       0.1       0.5       0.9
 5 C  dxz             1.0       0.3       0.7       0.4       1.5       2.0
 5 C  dyz             0.4       0.0       0.1       0.1       0.0       0.2
 5 C  dx2y2           0.1       0.5       0.0       0.1       0.3       0.2
 5 C  dxy             0.2       0.4       0.1       0.1       0.0       0.3
 5 C  f0              0.2       0.3       0.9       0.0       0.1       0.0
 5 C  f+1             2.9       0.6       3.3       0.1       2.9       0.7
 5 C  f-1             1.1       2.6       1.2       0.0       0.0       0.0
 5 C  f+2             0.0       0.8       0.0       0.2       0.7       0.4
 5 C  f-2             0.1       0.2       0.1       0.0       0.0       0.0
 5 C  f-3             1.5       1.5       0.2       0.0       0.5       0.1
 6 H  s               0.5       1.3       0.0       0.1       0.4       0.0
 6 H  px              0.0       0.2       0.0       0.1       0.0       0.0
 7 H  s               0.5       1.2       0.6       0.0       0.3       0.1
 7 H  px              0.0       0.1       0.0       0.0       0.0       0.0
 8 H  s               0.5       0.0       0.2       0.0       0.0       0.1
 9 H  s               1.0       0.0       0.0       0.2       0.0       0.1
 9 H  px              0.1       0.0       0.0       0.0       0.0       0.0
 9 H  py              0.4       0.0       0.0       0.0       0.0       0.0
10 H  s               0.5       1.2       0.6       0.0       0.3       0.1
10 H  px              0.0       0.1       0.0       0.0       0.0       0.0
11 H  s               0.5       1.3       0.0       0.1       0.4       0.0
11 H  px              0.0       0.2       0.0       0.1       0.0       0.0
12 H  s               0.5       0.0       0.2       0.0       0.0       0.1
13 H  s               1.0       0.0       0.0       0.2       0.0       0.1
13 H  px              0.1       0.0       0.0       0.0       0.0       0.0
13 H  py              0.4       0.0       0.0       0.0       0.0       0.0
14 H  s               0.5       0.0       0.2       0.0       0.0       0.1
15 H  s               0.5       1.3       0.0       0.1       0.4       0.0
15 H  px              0.0       0.2       0.0       0.1       0.0       0.0
16 H  s               0.5       1.2       0.6       0.0       0.3       0.1
16 H  px              0.0       0.1       0.0       0.0       0.0       0.0
17 H  s               0.5       1.2       0.6       0.0       0.3       0.1
17 H  px              0.0       0.1       0.0       0.0       0.0       0.0
18 H  s               0.5       0.0       0.2       0.0       0.0       0.1
19 H  s               0.5       1.3       0.0       0.1       0.4       0.0
19 H  px              0.0       0.2       0.0       0.1       0.0       0.0

                    264       265       266       267       268       269   
                  20.75276  20.76792  20.79104  20.84888  21.00941  21.05242
                   0.00000   0.00000   0.00000   0.00000   0.00000   0.00000
                  --------  --------  --------  --------  --------  --------
 0 C  s              24.6      24.5      23.6      24.5       1.1       0.0
 1 C  s               0.1       0.0       2.2       0.0      47.1      49.4
 1 C  pz              0.0       0.1       0.0       0.1       0.0       0.0
 2 C  s              24.6      24.7      23.4      24.6       1.1       0.0
 3 C  s               0.1       0.0       2.2       0.0      47.1      49.4
 3 C  pz              0.0       0.1       0.0       0.1       0.0       0.0
 4 C  s              24.6      24.6      23.5      24.5       1.1       0.0
 5 C  s              24.6      24.6      23.5      24.7       1.1       0.0
 9 H  s               0.0       0.0       0.0       0.0       0.2       0.2
13 H  s               0.0       0.0       0.0       0.0       0.2       0.2



                      *****************************
                      * MAYER POPULATION ANALYSIS *
                      *****************************

  NA   - Mulliken gross atomic population
  ZA   - Total nuclear charge
  QA   - Mulliken gross atomic charge
  VA   - Mayer's total valence
  BVA  - Mayer's bonded valence
  FA   - Mayer's free valence

  ATOM       NA         ZA         QA         VA         BVA        FA
  0 C      6.4176     6.0000    -0.4176     3.9033     3.9033     0.0000
  1 C      5.9994     6.0000     0.0006     3.8004     3.8004    -0.0000
  2 C      6.4176     6.0000    -0.4176     3.9032     3.9032     0.0000
  3 C      5.9993     6.0000     0.0007     3.8003     3.8003    -0.0000
  4 C      6.4176     6.0000    -0.4176     3.9033     3.9033    -0.0000
  5 C      6.4176     6.0000    -0.4176     3.9032     3.9032     0.0000
  6 H      0.8727     1.0000     0.1273     0.9715     0.9715     0.0000
  7 H      0.8658     1.0000     0.1342     0.9650     0.9650     0.0000
  8 H      0.8819     1.0000     0.1181     0.9745     0.9745     0.0000
  9 H      0.9248     1.0000     0.0752     0.9746     0.9746    -0.0000
 10 H      0.8657     1.0000     0.1343     0.9650     0.9650     0.0000
 11 H      0.8727     1.0000     0.1273     0.9715     0.9715     0.0000
 12 H      0.8818     1.0000     0.1182     0.9745     0.9745     0.0000
 13 H      0.9248     1.0000     0.0752     0.9746     0.9746     0.0000
 14 H      0.8818     1.0000     0.1182     0.9745     0.9745     0.0000
 15 H      0.8727     1.0000     0.1273     0.9715     0.9715    -0.0000
 16 H      0.8658     1.0000     0.1342     0.9650     0.9650    -0.0000
 17 H      0.8658     1.0000     0.1342     0.9650     0.9650     0.0000
 18 H      0.8818     1.0000     0.1182     0.9745     0.9745     0.0000
 19 H      0.8727     1.0000     0.1273     0.9715     0.9715     0.0000

  Mayer bond orders larger than 0.100000
B(  0-C ,  1-C ) :   0.9584 B(  0-C ,  6-H ) :   0.9830 B(  0-C ,  7-H ) :   0.9837 
B(  0-C ,  8-H ) :   0.9723 B(  1-C ,  2-C ) :   0.9582 B(  1-C ,  3-C ) :   0.9791 
B(  1-C ,  9-H ) :   0.9641 B(  2-C , 10-H ) :   0.9837 B(  2-C , 11-H ) :   0.9830 
B(  2-C , 12-H ) :   0.9724 B(  3-C ,  4-C ) :   0.9583 B(  3-C ,  5-C ) :   0.9582 
B(  3-C , 13-H ) :   0.9641 B(  4-C , 14-H ) :   0.9723 B(  4-C , 15-H ) :   0.9830 
B(  4-C , 16-H ) :   0.9837 B(  5-C , 17-H ) :   0.9837 B(  5-C , 18-H ) :   0.9724 
B(  5-C , 19-H ) :   0.9830 

-------
TIMINGS
-------

Total SCF time: 0 days 0 hours 2 min 18 sec 

Total time                  ....     138.725 sec
Sum of individual times     ....     135.782 sec  ( 97.9%)

SCF preparation             ....       0.365 sec  (  0.3%)
Fock matrix formation       ....     134.212 sec  ( 96.7%)
  Startup                   ....       0.063 sec  (  0.0% of F)
  Split-RI-J                ....       4.615 sec  (  3.4% of F)
  Chain of spheres X        ....     109.492 sec  ( 81.6% of F)
  XC integration            ....      15.770 sec  ( 11.8% of F)
    Basis function eval.    ....       3.625 sec  ( 23.0% of XC)
    Density eval.           ....       3.284 sec  ( 20.8% of XC)
    XC-Functional eval.     ....       3.435 sec  ( 21.8% of XC)
    XC-Potential eval.      ....       4.701 sec  ( 29.8% of XC)
  CPCM terms                ....       6.344 sec  (  4.7% of F)
Diagonalization             ....       0.000 sec  (  0.0%)
Density matrix formation    ....       0.186 sec  (  0.1%)
Total Energy calculation    ....       0.048 sec  (  0.0%)
Population analysis         ....       0.178 sec  (  0.1%)
Orbital Transformation      ....       0.072 sec  (  0.1%)
Orbital Orthonormalization  ....       0.000 sec  (  0.0%)
DIIS solution               ....       0.340 sec  (  0.2%)
  MO trafo                  ....       0.000 sec  (  0.0 % of DIIS)
  Orb grad                  ....       0.000 sec  (  0.0 % of DIIS)
  Energy W gradient         ....       0.000 sec  (  0.0 % of DIIS)
  DIIS error                ....       0.013 sec  (  3.7 % of DIIS)
  DIIS work                 ....       0.280 sec  ( 82.3 % of DIIS)
  Form Q                    ....       0.000 sec  (  0.0 % of DIIS)
  Form QpQm                 ....       0.000 sec  (  0.0 % of DIIS)
  Exp/Cayley                ....       0.000 sec  (  0.0 % of DIIS)
  Orb update                ....       0.000 sec  (  0.0 % of DIIS)
  Wake-sleep                ....       0.014 sec  (  4.1 % of DIIS)
SOSCF solution              ....       0.157 sec  (  0.1%)
  MO trafo                  ....       0.070 sec  ( 44.9 % of SOSCF)
  Orb grad                  ....       0.002 sec  (  1.3 % of SOSCF)
  Rot update                ....       0.042 sec  ( 27.0 % of SOSCF)
  Step                      ....       0.042 sec  ( 26.8 % of SOSCF)
Grid generation             ....       0.225 sec  (  0.2%)
Finished LeanSCF after 138.8 sec

Maximum memory used throughout the entire LEANSCF-calculation: 36.3 MB
------------------   -----------------
gCP correction             0.014631332
------------------   -----------------

-------------------------   --------------------
FINAL SINGLE POINT ENERGY      -237.080506041294
-------------------------   --------------------


------------------------------------------------------------------------------
                              ORCA PROPERTY CALCULATIONS
------------------------------------------------------------------------------

GBWName                                 ... sp_solv.gbw
Number of atoms                         ...     20
Number of basis functions               ...    270
Max core memory                         ...   1024 MB

Electric properties:
Dipole moment                           ... YES
Quadrupole moment                       ...  NO
Static polarizability (Dipole/Dipole)   ...  NO
Static polarizability (Dipole/Quad.)    ...  NO
Static polarizability (Quad./Quad.)     ...  NO
Static polarizability (Velocity)        ...  NO

Atomic electric properties:
Dipole moment                           ...  NO
Quadrupole moment                       ...  NO
Static polarizability                   ...  NO

Choice of electric origin               ... Center of mass
Position of electric origin             ...    -0.000001     0.000007    -0.000006

General magnetic properties:
Magnetizability                         ...  NO

EPR properties:
g-Tensor (aka g-matrix)                 ...  NO
Zero-Field splitting spin-orbit         ...  NO
Zero-field splitting spin-spin          ...  NO
Hyperfine couplings                     ...  NO (   0 nuclei)
Quadrupole couplings                    ...  NO (   0 nuclei)
Contact density                         ...  NO (   0 nuclei)

NMR properties:
Chemical shifts                         ...  NO (   0 nuclei)
Spin-rotation constants                 ...  NO (   0 nuclei)
Spin-spin couplings                     ...  NO (   0 nuclei,    0 pairs)

Choice of magnetic origin               ... GIAO
Position of magnetic origin             ...     0.000000     0.000000     0.000000

Properties with geometric perturbations:
SCF Hessian                             ...  NO
IR spectrum                             ...  NO
VCD spectrum                            ...  NO
X-ray spectroscopy properties:
SCF XES/XAS/RIXS spectra                ...  NO


-------------
DIPOLE MOMENT
-------------

Method             : SCF
Type of density    : Electron Density
Multiplicity       :   1
Irrep              :   0
Energy             :  -237.0951373732940510 Eh
Relativity type    : 
Basis              : AO
                                X                 Y                 Z
Electronic contribution:      0.000022708      -0.000042663      -0.000703221
Nuclear contribution   :     -0.000022926       0.000042577       0.000679999
                        -----------------------------------------
Total Dipole Moment    :     -0.000000218      -0.000000086      -0.000023222
                        -----------------------------------------
Magnitude (a.u.)       :      0.000023223
Magnitude (Debye)      :      0.000059029



--------------------
Rotational spectrum 
--------------------
 
Rotational constants in cm-1:             0.140607             0.096936             0.062892 
Rotational constants in MHz :          4215.298111          2906.053948          1885.456001 

Dipole components along the rotational axes: 
x,y,z [a.u.] :    -0.000000     0.000023    -0.000000 
x,y,z [Debye]:    -0.000001     0.000059    -0.000000 

 

Dipole moment calculation done in   0.0 sec 

Maximum memory used throughout the entire PROP-calculation: 20.9 MB

--------------------------------
SUGGESTED CITATIONS FOR THIS RUN
--------------------------------

Below you find a list of papers that are relevant to this ORCA run
We neither can nor want to force you to cite these papers, but we appreciate if you do
You receive ORCA, which is the product of decades of hard work by many enthusiastic individuals, for free
The only thing we kindly ask in return is that you cite our papers,
We deeply appreciate it, if you show your appreciation for ORCA by not just citing the generic ORCA reference.

Please note that relegating all ORCA citations to the supporting information does *not* help us.
SI sections are not indexed - citations you put there will not count into any citation statistics
But we need these citations in order to attract the funding resources that allow us to do what we are doing

Therefore, if you are a happy ORCA user, please consider citing a few of the papers listed below in the main body of your paper

In addition to the list printed below, the program has created the file sp_solv.bibtex that contains the list in bibtex format
You can import this file easily into all common literature databanks and citation aid programs


List of essential papers. We consider these as the minimum necessary citations

  1. Neese,F.
     Software update: the ORCA program system, version 5.0
     WIRES Comput. Molec. Sci., 2022 12(1)e1606
     doi.org/10.1002/wcms.1606

List of papers to cite with high priority. The work reported in these papers was absolutely
necessary for this run to complete.
Our perspective: the developers of density functionals and basis sets usually get cited in chemistry papers
Good! But without the algorithms to do something with them, the functionals or basis sets would not do anything.
Hence, in our opinion, the algorithm design and method developments papers are equally worthy of getting cited

  1. Neese,F.
     An improvement of the resolution of the identity approximation for the formation of the Coulomb matrix
     J. Comp. Chem., 2003 24(14)1740-1747
     doi.org/10.1002/jcc.10318
  2. Neese,F.; Wennmohs,F.; Hansen,A.; Becker,U.
     Efficient, approximate and parallel Hartree-Fock and hybrid DFT calculations. A 'chain-of-spheres' algorithm for the Hartree-Fock exchange
     Chem. Phys., 2009 356(1-3)98-109
     doi.org/10.1016/j.chemphys.2008.10.036
  3. Garcia-Rates,M.; Neese,F.
     Effect of the Solute Cavity on the Solvation Energy and its Derivatives within the Framework of the Gaussian Charge Scheme
     J. Comput. Chem., 2020 41 922-939
     doi.org/10.1002/jcc.26139
  4. Helmich-Paris,B.; de Souza,B.; Neese,F.; Izsák,R.
     An improved chain of spheres for exchange algorithm
     J. Chem. Phys., 2021 155 104109
     doi.org/doi: 10.1063/5.0058766.
  5. Neese,F.
     The SHARK Integral Generation and Digestion System
     J. Comp. Chem., 2022  1-16
     doi.org/10.1002/jcc.26942

List of suggested additional citations. These are papers that are important in the 'surrounding' of 
of this run, or papers that preceded the highly important papers. If you like your results we are grateful for a citation.

  1. Izsak,R.; Neese,F.
     An overlap fitted chain of spheres exchange method
     J. Chem. Phys., 2011 135 144105
     doi.org/10.1063/1.3646921
  2. Izsak,R.; Hansen,A.; Neese,F.
     The resolution of identity and chain of spheres approximations for the LPNO-CCSD singles Fock term
     Molec. Phys., 2012 110 2413-2417
     doi.org/10.1080/00268976.2012.687466
  3. Neese,F.
     The ORCA program system
     WIRES Comput. Molec. Sci., 2012 2(1)73-78
     doi.org/10.1002/wcms.81
  4. Izsak,R.; Neese,F.; Klopper,W.
     Robust fitting techniques in the chain of spheres approximation to the Fock exchange: The role of the complementary space
     J. Chem. Phys., 2013 139 
     doi.org/10.1063/1.4819264
  5. Neese,F.
     Software update: the ORCA program system, version 4.0
     WIRES Comput. Molec. Sci., 2018 8(1)1-6
     doi.org/10.1002/wcms.1327
  6. Neese,F.; Wennmohs,F.; Becker,U.; Riplinger,C.
     The ORCA quantum chemistry program package
     J. Chem. Phys., 2020 152 Art. No. L224108
     doi.org/10.1063/5.0004608

List of optional additional citations

  1. Neese,F.
     Approximate second-order SCF convergence for spin unrestricted wavefunctions
     Chem. Phys. Lett., 2000 325(1-3)93-98
     doi.org/10.1016/s0009-2614(00)00662-x

Timings for individual modules:

Sum of individual times          ...      141.846 sec (=   2.364 min)
Startup calculation              ...        2.533 sec (=   0.042 min)   1.8 %
SCF iterations                   ...      139.199 sec (=   2.320 min)  98.1 %
Property calculations            ...        0.113 sec (=   0.002 min)   0.1 %
                             ****ORCA TERMINATED NORMALLY****
TOTAL RUN TIME: 0 days 0 hours 2 minutes 22 seconds 526 msec
