      -----------------------------------------------------------      
     |                   =====================                   |     
     |                           x T B                           |     
     |                   =====================                   |     
     |                         S. Grimme                         |     
     |          Mulliken Center for Theoretical Chemistry        |     
     |                    University of Bonn                     |     
      -----------------------------------------------------------      

   * xtb version 6.7.1 (edcfbbe) compiled by 'albert@albert-system' on 2024-07-22

   xtb is free software: you can redistribute it and/or modify it under
   the terms of the GNU Lesser General Public License as published by
   the Free Software Foundation, either version 3 of the License, or
   (at your option) any later version.
   
   xtb is distributed in the hope that it will be useful,
   but WITHOUT ANY WARRANTY; without even the implied warranty of
   MERCHANTABILITY or FITNESS FOR A PARTICULAR PURPOSE.  See the
   GNU Lesser General Public License for more details.
   
   Cite this work as:
   * C. Bannwarth, E. Caldeweyher, S. Ehlert, A. Hansen, P. Pracht,
     J. Seibert, S. Spicher, S. Grimme, WIREs Comput. Mol. Sci., 2020, 11,
     e01493. DOI: 10.1002/wcms.1493
   
   for GFN2-xTB:
   * C. Bannwarth, S. Ehlert and S. Grimme., J. Chem. Theory Comput., 2019,
     15, 1652-1671. DOI: 10.1021/acs.jctc.8b01176
   for GFN1-xTB:
   * S. Grimme, C. Bannwarth, P. Shushkov, J. Chem. Theory Comput., 2017,
     13, 1989-2009. DOI: 10.1021/acs.jctc.7b00118
   for GFN0-xTB:
   * P. Pracht, E. Caldeweyher, S. Ehlert, S. Grimme, ChemRxiv, 2019, preprint.
     DOI: 10.26434/chemrxiv.8326202.v1
   for GFN-FF:
   * S. Spicher and S. Grimme, Angew. Chem. Int. Ed., 2020, 59, 15665-15673.
     DOI: 10.1002/anie.202004239
   
   for ALPB and GBSA implicit solvation:
   * S. Ehlert, M. Stahn, S. Spicher, S. Grimme, J. Chem. Theory Comput.,
     2021, 17, 4250-4261. DOI: 10.1021/acs.jctc.1c00471
   
   for ddCOSMO and CPCM-X implicit solvation:
   * M. Stahn, S. Ehlert, S. Grimme, J. Phys. Chem. A,
     2023, XX, XXXX-XXXX. DOI: 10.1021/acs.jpca.3c04382
   
   for DFT-D4:
   * E. Caldeweyher, C. Bannwarth and S. Grimme, J. Chem. Phys., 2017,
     147, 034112. DOI: 10.1063/1.4993215
   * E. Caldeweyher, S. Ehlert, A. Hansen, H. Neugebauer, S. Spicher,
     C. Bannwarth and S. Grimme, J. Chem. Phys., 2019, 150, 154122.
     DOI: 10.1063/1.5090222
   * E. Caldeweyher, J.-M. Mewes, S. Ehlert and S. Grimme, Phys. Chem. Chem. Phys.
     2020, 22, 8499-8512. DOI: 10.1039/D0CP00502A
   
   for sTDA-xTB:
   * S. Grimme and C. Bannwarth, J. Chem. Phys., 2016, 145, 054103.
     DOI: 10.1063/1.4959605
   
   in the mass-spec context:
   * V. Asgeirsson, C. Bauer and S. Grimme, Chem. Sci., 2017, 8, 4879.
     DOI: 10.1039/c7sc00601b
   * J. Koopman and S. Grimme, ACS Omega 2019, 4, 12, 15120-15133.
     DOI: 10.1021/acsomega.9b02011
   
   for metadynamics refer to:
   * S. Grimme, J. Chem. Theory Comput., 2019, 155, 2847-2862
     DOI: 10.1021/acs.jctc.9b00143
   
   for SPH calculations refer to:
   * S. Spicher and S. Grimme, J. Chem. Theory Comput., 2021, 17, 1701-1714
     DOI: 10.1021/acs.jctc.0c01306
   
   for ONIOM refer to:
   * C. Plett, A. Katbashev, S. Ehlert, S. Grimme, M. Bursch,
     Phys. Chem. Chem. Phys., 2023, 25, 17860-17868. DOI: 10.1039/D3CP02178E
   
   for DIPRO refer to:
   * J. Kohn, N. Gildemeister, S. Grimme, D. Fazzi, A. Hansen,
     J. Chem. Phys., 2023, just accepted.
   
   for PTB refer to:
   * S. Grimme, M. Mueller, A. Hansen, J. Chem. Phys., 2023, 158, 124111.
     DOI: 10.1063/5.0137838
   
   with help from (in alphabetical order)
   P. Atkinson, C. Bannwarth, F. Bohle, G. Brandenburg, E. Caldeweyher
   M. Checinski, S. Dohm, S. Ehlert, S. Ehrlich, I. Gerasimov, C. Hölzer
   A. Katbashev, J. Kohn, J. Koopman, C. Lavigne, S. Lehtola, F. März, M. Müller,
   F. Musil, H. Neugebauer, J. Pisarek, C. Plett, P. Pracht, F. Pultar,
   J. Seibert, P. Shushkov, S. Spicher, M. Stahn, M. Steiner, T. Strunk,
   J. Stückrath, T. Rose, and J. Unsleber
   
 * started run on 2025/04/04 at 22:14:35.687     
   ID    Z sym.   atoms
    1    6 C      1-7
    2    7 N      8
    3    8 O      9, 10
    4    1 H      11-17

           -------------------------------------------------
          |                Calculation Setup                |
           -------------------------------------------------

          program call               : /srv/scratch/z5358697/.xtb/bin/xtb xtb_opt.coord --opt normal --orca -I xtb_opt-xcontrol-inp
          hostname                   : k148
          coordinate file            : xtb_opt.coord
          omp threads                :                     2

           -------------------------------------------------
          |                   Orca driver                   |
           -------------------------------------------------
orca executable           : /apps/z_install_tree/linux-rocky8-ivybridge/gcc-12.2.0/orca-6.0.0-srtngmq3qlimg2qxbl6avaaiffipurdx/bin/orca
orca input file           : xtb_opt.inp
orca input line           : 
orca parallel             : true
orca number of threads    : 2
                         * ORCA takes the control...
  ------------------------------------------------------------------------

                                 *****************
                                 * O   R   C   A *
                                 *****************

                                            #,                                       
                                            ###                                      
                                            ####                                     
                                            #####                                    
                                            ######                                   
                                           ########,                                 
                                     ,,################,,,,,                         
                               ,,#################################,,                 
                          ,,##########################################,,             
                       ,#########################################, ''#####,          
                    ,#############################################,,   '####,        
                  ,##################################################,,,,####,       
                ,###########''''           ''''###############################       
              ,#####''   ,,,,##########,,,,          '''####'''          '####       
            ,##' ,,,,###########################,,,                        '##       
           ' ,,###''''                  '''############,,,                           
         ,,##''                                '''############,,,,        ,,,,,,###''
      ,#''                                            '''#######################'''  
     '                                                          ''''####''''         
             ,#######,   #######,   ,#######,      ##                                
            ,#'     '#,  ##    ##  ,#'     '#,    #''#        ,####,   ,####,        
            ##       ##  ##   ,#'  ##            #'  '#       #'       #'  '#        
            ##       ##  #######   ##           ,######,      #####,   #    #        
            '#,     ,#'  ##    ##  '#,     ,#' ,#      #,     #,   #   #,  ,#        
             '#######'   ##     ##  '#######'  #'      '#     '####' # '####'        



                #########################################################
                #                        -***-                          #
                #          Department of theory and spectroscopy        #
                #                                                       #
                #                      Frank Neese                      #
                #                                                       #
                #     Directorship, Architecture, Infrastructure        #
                #                    SHARK, DRIVERS                     #
                #        Core code/Algorithms in most modules           #
                #                                                       #
                #        Max Planck Institute fuer Kohlenforschung      #
                #                Kaiser Wilhelm Platz 1                 #
                #                 D-45470 Muelheim/Ruhr                 #
                #                      Germany                          #
                #                                                       #
                #                  All rights reserved                  #
                #                        -***-                          #
                #########################################################


                         Program Version 6.0.0  -   RELEASE  -


 With contributions from (in alphabetic order):
   Daniel Aravena         : Magnetic Suceptibility
   Michael Atanasov       : Ab Initio Ligand Field Theory (pilot matlab implementation)
   Alexander A. Auer      : GIAO ZORA, VPT2 properties, NMR spectrum
   Ute Becker             : All parallelization in ORCA, NUMFREQ, NUMCALC
   Giovanni Bistoni       : ED, misc. LED, open-shell LED, HFLD
   Martin Brehm           : Molecular dynamics
   Dmytro Bykov           : pre 5.0 version of the SCF Hessian
   Marcos Casanova-Páez   : Triplet and SCS-CIS(D). UHF-(DLPNO)-IP/EA/STEOM-CCSD. UHF-CVS-IP/STEOM-CCSD
   Vijay G. Chilkuri      : MRCI spin determinant printing, contributions to CSF-ICE
   Pauline Colinet        : FMM embedding
   Dipayan Datta          : RHF DLPNO-CCSD density
   Achintya Kumar Dutta   : EOM-CC, STEOM-CC
   Nicolas Foglia         : Exact transition moments, OPA infrastructure, MCD improvements
   Dmitry Ganyushin       : Spin-Orbit,Spin-Spin,Magnetic field MRCI
   Miquel Garcia          : C-PCM and meta-GGA Hessian, CCSD/C-PCM, Gaussian charge scheme
   Tiago L. C. Gouveia    : GS-ROHF, GS-ROCIS
   Yang Guo               : DLPNO-NEVPT2, F12-NEVPT2, CIM, IAO-localization
   Andreas Hansen         : Spin unrestricted coupled pair/coupled cluster methods
   Ingolf Harden          : AUTO-CI MPn and infrastructure 
   Benjamin Helmich-Paris : MC-RPA, TRAH-(SCF,CASSCF), AVAS, COSX integrals, SCF dyn. polar.
   Lee Huntington         : MR-EOM, pCC
   Robert Izsak           : Overlap fitted RIJCOSX, COSX-SCS-MP3, EOM
   Riya Kayal             : Wick's Theorem for AUTO-CI, AUTO-CI UHF-CCSDT
   Emily Kempfer          : AUTO-CI, RHF CISDT and CCSDT
   Christian Kollmar      : KDIIS, OOCD, Brueckner-CCSD(T), CCSD density, CASPT2, CASPT2-K, improved NEVPT2
   Axel Koslowski         : Symmetry handling
   Simone Kossmann        : Meta GGA functionals, TD-DFT gradient, OOMP2, (MP2 Hessian; deprecated post 5.0)
   Lucas Lang             : DCDCAS
   Marvin Lechner         : AUTO-CI (C++ implementation), FIC-MRCC
   Spencer Leger          : CASSCF response
   Dagmar Lenk            : GEPOL surface, SMD, ORCA-2-JSON
   Dimitrios Liakos       : Extrapolation schemes; Compound Job, initial MDCI parallelization
   Dimitrios Manganas     : Further ROCIS development; embedding schemes. LFT, Crystal Embedding
   Dimitrios Pantazis     : SARC Basis sets
   Anastasios Papadopoulos: AUTO-CI, single reference methods and gradients
   Taras Petrenko         : pre 6.0 DFT Hessian and TD-DFT gradient, (ASA, deprecated), ECA, 1-Electron XAS/XES, NRVS
   Peter Pinski           : DLPNO-MP2, DLPNO-MP2 Gradient
   Christoph Reimann      : Effective Core Potentials
   Marius Retegan         : Local ZFS, SOC
   Christoph Riplinger    : Optimizer, TS searches, QM/MM, DLPNO-CCSD(T), (RO)-DLPNO pert. Triples
   Michael Roemelt        : Original ROCIS implementation
   Masaaki Saitow         : Open-shell DLPNO-CCSD energy and density
   Barbara Sandhoefer     : DKH picture change effects
   Kantharuban Sivalingam : CASSCF convergence/infrastructure, NEVPT2 and variants, FIC-MRCI
   Bernardo de Souza      : ESD, SOC TD-DFT
   Georgi Stoychev        : AutoAux, RI-MP2 NMR, DLPNO-MP2 response, X2C
   Van Anh Tran           : RI-MP2 g-tensors
   Willem Van den Heuvel  : Paramagnetic NMR
   Zikuan Wang            : NOTCH, Electric field optimization 
   Frank Wennmohs         : Technical directorship and infrastructure
   Hang Xu                : AUTO-CI-Response properties 


 We gratefully acknowledge several colleagues who have allowed us to
 interface, adapt or use parts of their codes:
   Stefan Grimme, W. Hujo, H. Kruse, P. Pracht,  : VdW corrections, initial TS optimization,
                  C. Bannwarth, S. Ehlert,         DFT functionals, gCP, sTDA/sTD-DF
                  L. Wittmann, M. Mueller
   Ed Valeev, F. Pavosevic, A. Kumar             : LibInt (2-el integral package), F12 methods
   Garnet Chan, S. Sharma, J. Yang, R. Olivares  : DMRG
   Ulf Ekstrom                                   : XCFun DFT Library
   Mihaly Kallay                                 : mrcc  (arbitrary order and MRCC methods)
   Frank Weinhold                                : gennbo (NPA and NBO analysis)
   Simon Mueller                                 : openCOSMO-RS
   Christopher J. Cramer and Donald G. Truhlar   : smd solvation model
   Lars Goerigk                                  : TD-DFT with DH, B97 family of functionals
   V. Asgeirsson, H. Jonsson                     : NEB implementation
   FAccTs GmbH                                   : IRC, NEB, NEB-TS, DLPNO-Multilevel, CI-OPT
                                                   MM, QMMM, 2- and 3-layer-ONIOM, Crystal-QMMM,
                                                   LR-CPCM, SF, NACMEs, symmetry and pop. for TD-DFT,
                                                   nearIR, NL-DFT gradient (VV10), updates on ESD,
                                                   ML-optimized integration grids, MBIS, APM,
                                                   GOAT, DOCKER, SOLVATOR, interface openCOSMO-RS
   S Lehtola, MJT Oliveira, MAL Marques          : LibXC Library
   Liviu Ungur et al                             : ANISO software


 Your calculation uses the libint2 library for the computation of 2-el integrals
 For citations please refer to: http://libint.valeyev.net

 Your ORCA version has been built with support for libXC version: 6.2.2
 For citations please refer to: https://libxc.gitlab.io

 This ORCA versions uses:
   CBLAS   interface :  Fast vector & matrix operations
   LAPACKE interface :  Fast linear algebra routines
   SCALAPACK package :  Parallel linear algebra routines
   Shared memory     :  Shared parallel matrices
   BLAS/LAPACK       :  OpenBLAS 0.3.27  USE64BITINT DYNAMIC_ARCH NO_AFFINITY SkylakeX SINGLE_THREADED
        Core in use  :  SkylakeX
   Copyright (c) 2011-2014, The OpenBLAS Project




***************************************
The coordinates will be read from file: xtb_opt.xyz
***************************************


Your calculation utilizes the geometrical counterpoise correction gCP
Please cite in your paper:
H.Kruse, S. Grimme J.Chem.Phys., 136, (2012), 154101 
   

Your calculation utilizes the atom-pairwise dispersion correction
based on EEQ partial charges (D4)


Your calculation utilizes the SMD solvation module
Please cite in your paper:
A.V. Marenich, C.J. Cramer, D.G. Truhlar J. Phys. Chem. B, 113, (2009), 6378 

================================================================================

----- Orbital basis set information -----
Your calculation utilizes the basis: def2-mTZVPP
   Stefan Grimme, Andreas Hansen, Sebastian Ehlert, and Jan-Michael Mewes 
   J. Chem. Phys. 154, 064103 (2021). DOI: 10.1063/5.0040021

----- AuxJ basis set information -----
Your calculation utilizes the auxiliary basis: def2/J
   F. Weigend, Phys. Chem. Chem. Phys. 8, 1057 (2006).

================================================================================
                                        WARNINGS
                       Please study these warnings very carefully!
================================================================================

Using LibXC functional ID 497 : Re-regularized SCAN exchange by Furness et al
[ 1]  J. W. Furness, A. D. Kaplan, J. Ning, J. P. Perdew, and J. Sun.,  J. Phys. Chem. Lett. 11, 8208-8215 (2020)
[ 2]  J. W. Furness, A. D. Kaplan, J. Ning, J. P. Perdew, and J. Sun.,  J. Phys. Chem. Lett. 11, 9248-9248 (2020)
Using LibXC functional ID 498 : Re-regularized SCAN correlation by Furness et al
[ 1]  J. W. Furness, A. D. Kaplan, J. Ning, J. P. Perdew, and J. Sun.,  J. Phys. Chem. Lett. 11, 8208-8215 (2020)
[ 2]  J. W. Furness, A. D. Kaplan, J. Ning, J. P. Perdew, and J. Sun.,  J. Phys. Chem. Lett. 11, 9248-9248 (2020)
Using LibXC functional ID 497 : Re-regularized SCAN exchange by Furness et al
[ 1]  J. W. Furness, A. D. Kaplan, J. Ning, J. P. Perdew, and J. Sun.,  J. Phys. Chem. Lett. 11, 8208-8215 (2020)
[ 2]  J. W. Furness, A. D. Kaplan, J. Ning, J. P. Perdew, and J. Sun.,  J. Phys. Chem. Lett. 11, 9248-9248 (2020)
Using LibXC functional ID 498 : Re-regularized SCAN correlation by Furness et al
[ 1]  J. W. Furness, A. D. Kaplan, J. Ning, J. P. Perdew, and J. Sun.,  J. Phys. Chem. Lett. 11, 8208-8215 (2020)
[ 2]  J. W. Furness, A. D. Kaplan, J. Ning, J. P. Perdew, and J. Sun.,  J. Phys. Chem. Lett. 11, 9248-9248 (2020)

================================================================================
                                       INPUT FILE
================================================================================
NAME = xtb_opt.inp
|  1> ! r2scan-3c def2/J RI DEFGRID2 scfconv7 ENGRAD tightSCF miniprint
|  2> %cpcm
|  3>     smd true
|  4>     smdsolvent "water"
|  5> end
|  6> * xyzfile 0 1 xtb_opt.xyz
|  7> 
|  8>                          ****END OF INPUT****
================================================================================

                     *******************************
                     * Energy+Gradient Calculation *
                     *******************************

---------------------------------
CARTESIAN COORDINATES (ANGSTROEM)
---------------------------------
  C     -0.178405   -2.330365   -0.013895
  C      0.500273   -1.006061   -0.004780
  C      1.892932   -0.959453   -0.004441
  C      2.589383    0.233732    0.002443
  C      1.905040    1.443519    0.008041
  C      0.529756    1.436663    0.007023
  C     -0.176584    0.227666    0.001374
  N     -1.592723    0.321808    0.001611
  O     -2.101841    1.438409   -0.027415
  O     -2.273047   -0.693353    0.030847
  H     -0.807247   -2.445683    0.867801
  H     -0.840570   -2.419335   -0.873878
  H      0.555308   -3.130382   -0.039656
  H      2.437298   -1.890761   -0.009566
  H      3.667793    0.224691    0.003370
  H      2.441053    2.378178    0.013560
  H     -0.034303    2.356371    0.011953

----------------------------
CARTESIAN COORDINATES (A.U.)
----------------------------
  NO LB      ZA    FRAG     MASS         X           Y           Z
   0 C     6.0000    0    12.011   -0.337136   -4.403751   -0.026257
   1 C     6.0000    0    12.011    0.945379   -1.901179   -0.009032
   2 C     6.0000    0    12.011    3.577123   -1.813104   -0.008392
   3 C     6.0000    0    12.011    4.893225    0.441689    0.004617
   4 C     6.0000    0    12.011    3.600003    2.727856    0.015196
   5 C     6.0000    0    12.011    1.001094    2.714900    0.013271
   6 C     6.0000    0    12.011   -0.333696    0.430226    0.002596
   7 N     7.0000    0    14.007   -3.009811    0.608128    0.003044
   8 O     8.0000    0    15.999   -3.971903    2.718200   -0.051806
   9 O     8.0000    0    15.999   -4.295436   -1.310247    0.058292
  10 H     1.0000    0     1.008   -1.525476   -4.621671    1.639906
  11 H     1.0000    0     1.008   -1.588446   -4.571880   -1.651390
  12 H     1.0000    0     1.008    1.049380   -5.915565   -0.074938
  13 H     1.0000    0     1.008    4.605826   -3.573020   -0.018076
  14 H     1.0000    0     1.008    6.931125    0.424605    0.006369
  15 H     1.0000    0     1.008    4.612921    4.494104    0.025626
  16 H     1.0000    0     1.008   -0.064824    4.452895    0.022588

------------------------------------------------------------------------------
                   ___                                                        
                  /   \      - P O W E R E D   B Y -                         
                 /     \                                                     
                 |  |  |   _    _      __       _____    __    __             
                 |  |  |  | |  | |    /  \     |  _  \  |  |  /  |          
                  \  \/   | |  | |   /    \    | | | |  |  | /  /          
                 / \  \   | |__| |  /  /\  \   | |_| |  |  |/  /          
                |  |  |   |  __  | /  /__\  \  |    /   |      \           
                |  |  |   | |  | | |   __   |  |    \   |  |\   \          
                \     /   | |  | | |  |  |  |  | |\  \  |  | \   \       
                 \___/    |_|  |_| |__|  |__|  |_| \__\ |__|  \__/        
                                                                              
                      - O R C A' S   B I G   F R I E N D -                    
                                      &                                       
                       - I N T E G R A L  F E E D E R -                       
                                                                              
 v1 FN, 2020, v2 2021, v3 2022-2024                                           
------------------------------------------------------------------------------


----------------------
SHARK INTEGRAL PACKAGE
----------------------

Number of atoms                             ...     17
Number of basis functions                   ...    240
Number of shells                            ...    114
Maximum angular momentum                    ...      2
Integral batch strategy                     ... SHARK/LIBINT Hybrid
RI-J (if used) integral strategy            ... SPLIT-RIJ (Revised 2003 algorithm where possible)
Printlevel                                  ...      1
Contraction scheme used                     ... SEGMENTED contraction
Prescreening option                         ... SCHWARTZ
   Thresh                                   ... 3.000e-11
   Tcut                                     ... 1.000e-12
   Tpresel                                  ... 1.000e-12 
Coulomb Range Separation                    ... NOT USED
Exchange Range Separation                   ... NOT USED
Multipole approximations                    ... NOT USED
Finite Nucleus Model                        ... NOT USED
CABS basis                                  ... NOT available
Auxiliary Coulomb fitting basis             ... AVAILABLE
   # of basis functions in Aux-J            ...    567
   # of shells in Aux-J                     ...    185
   Maximum angular momentum in Aux-J        ...      4
Auxiliary J/K fitting basis                 ... NOT available
Auxiliary Correlation fitting basis         ... NOT available
Auxiliary 'external' fitting basis          ... NOT available

Checking pre-screening integrals            ... done (  0.0 sec) Dimension = 114
Check shell pair data                       ... done (  0.0 sec)
Shell pair information
Shell pair cut-off parameter TPreSel        ...   1.0e-12
Total number of shell pairs                 ...      6555
Shell pairs after pre-screening             ...      5870
Total number of primitive shell pairs       ...     24112
Primitive shell pairs kept                  ...     15195
          la=0 lb=0:   1778 shell pairs
          la=1 lb=0:   2140 shell pairs
          la=1 lb=1:    658 shell pairs
          la=2 lb=0:    753 shell pairs
          la=2 lb=1:    454 shell pairs
          la=2 lb=2:     87 shell pairs

Calculating one electron integrals          ... done (  0.0 sec)
Calculating RI/J V-Matrix + Cholesky decomp.... done (  0.1 sec)
Calculating Nuclear repulsion               ... done (  0.0 sec) ENN=    509.222229571232 Eh

Diagonalization of the overlap matrix:
Smallest eigenvalue                        ... 2.411e-05
Time for diagonalization                   ...    0.006 sec
Threshold for overlap eigenvalues          ... 1.000e-07
Number of eigenvalues below threshold      ... 0
Time for construction of square roots      ...    0.015 sec
Total time needed                          ...    0.031 sec

-------------------
DFT GRID GENERATION
-------------------

General Integration Accuracy     IntAcc      ... 4.388
Radial Grid Type                 RadialGrid  ... OptM3 with GC (2021)
Angular Grid (max. ang.)         AngularGrid ... 4 (Lebedev-302)
Angular grid pruning method      GridPruning ... 4 (adaptive)
Weight generation scheme         WeightScheme... mBecke (2022)
Basis function cutoff            BFCut       ... 1.0000e-11
Integration weight cutoff        WCut        ... 1.0000e-14
Partially contracted basis set               ... off
Rotationally invariant grid construction     ... off
Angular grids for H and He will be reduced by one unit
Diffuse basis detected: some atoms will have their outermost
                        angular grid increased by 1.

Total number of grid points                  ...    83228
Total number of batches                      ...     1310
Average number of points per batch           ...       63
Average number of grid points per atom       ...     4896
Initializing property integral containers    ... done (  0.0 sec)

SHARK setup successfully completed in   1.2 seconds

Maximum memory used throughout the entire STARTUP-calculation: 39.5 MB
Occupation numbers will be reassigned to an Aufbau configuration
             **** ENERGY FILE WAS UPDATED (xtb_opt.en.tmp) ****
Finished Guess after   0.3 sec
Maximum memory used throughout the entire GUESS-calculation: 17.2 MB
--------------------
CPCM SOLVATION MODEL
--------------------
CPCM parameters:
  Epsilon                                         ...      78.3550
  Refrac                                          ...       1.3328
  Rsolv                                           ...       1.3000
  Surface type                                    ... GAUSSIAN VDW
  Discretization scheme                           ... Constant charge density
    Threshold for H atoms                         ...       5.0000 (charges/Ang^2)
    Threshold for non-H atoms                     ...       5.0000 (charges/Ang^2)
  Epsilon function type                           ...         CPCM
Solvent:                                          ... WATER
SMD-CDS solvent descriptors:
  Soln                                            ...       1.3328
  Soln25                                          ...       1.3323
  Sola                                            ...       0.0000
  Solb                                            ...       0.0000
  Solg                                            ...       0.0000
  Solc                                            ...       0.0000
  Solh                                            ...       0.0000
Radii:
  Scheme                                          ... Element-dependent radii
  Radius for C  used is    3.4960 Bohr (=   1.8500 Ang.)
  Radius for N  used is    3.5716 Bohr (=   1.8900 Ang.)
  Radius for O  used is    2.8724 Bohr (=   1.5200 Ang.)
  Radius for H  used is    2.2677 Bohr (=   1.2000 Ang.)
Calculating surface                               ...        done! (  0.0s)
Cavity surface points                             ...         1304
Cavity Volume                                     ...     899.6032
Cavity Surface-area                               ...     549.1346
Calculating surface distance matrix               ...        done! (  0.0s)
Performing Cholesky decomposition & store         ...        done! (  0.1s)
Overall time for CPCM initialization              ...                 0.1s

----------------------------------------D-I-I-S--------------------------------------------
Iteration    Energy (Eh)           Delta-E    RMSDP     MaxDP     DIISErr   Damp  Time(sec)
-------------------------------------------------------------------------------------------
               ***  Starting incremental Fock matrix formation  ***
                              *** Initializing SOSCF ***
---------------------------------------S-O-S-C-F--------------------------------------
Iteration    Energy (Eh)           Delta-E    RMSDP     MaxDP     MaxGrad    Time(sec)
--------------------------------------------------------------------------------------
    1    -475.9896763292885566     0.00e+00  3.57e-06  9.12e-05  5.87e-06     3.7
               *** Restarting incremental Fock matrix formation ***
    2    -475.9896763279531910     1.34e-09  1.94e-06  6.47e-05  1.92e-05     3.7
                  *** Gradient check signals convergence ***

               *****************************************************
               *                     SUCCESS                       *
               *           SCF CONVERGED AFTER   2 CYCLES          *
               *****************************************************


SMD CDS free energy correction energy :                 5.74050     Kcal/mol
Total Energy after SMD CDS correction =              -475.980528261 Eh
             **** ENERGY FILE WAS UPDATED (xtb_opt.en.tmp) ****

----------------
TOTAL SCF ENERGY
----------------

Total Energy       :       -475.98052826081846 Eh          -12952.08865 eV

Components:
Nuclear Repulsion  :        509.22222957123182 Eh           13856.64132 eV
Electronic Energy  :       -985.19433709211955 Eh          -26808.50083 eV
One Electron Energy:      -1655.71793932973583 Eh          -45054.37565 eV
Two Electron Energy:        670.52360223761627 Eh           18245.87482 eV
CPCM Dielectric    :         -0.01756880706544 Eh              -0.47807 eV
SMD CDS (Gcds)     :          0.00914806713474 Eh               0.24893 eV

Virial components:
Potential Energy   :       -950.27468569415385 Eh          -25858.28881 eV
Kinetic Energy     :        474.29415743333539 Eh           12906.20016 eV
Virial Ratio       :          2.00355553784725

DFT components:
N(Alpha)           :       36.000060216675 electrons
N(Beta)            :       36.000060216675 electrons
N(Total)           :       72.000120433351 electrons
E(X)               :      -62.136395754397 Eh       
E(C)               :       -2.370993317967 Eh       
E(XC)              :      -64.507389072364 Eh       

CPCM Solvation Model Properties:
Surface-charge          :         -0.04213552574722
Corrected charge        :         -0.00000000000000
Outlying charge corr.   :          0.00013724567495 Eh               0.00373 eV
Free-energy (cav+disp)  :          0.00914806713474 Eh               0.24893 eV

---------------
SCF CONVERGENCE
---------------

  Last Energy change         ...   -1.3354e-09  Tolerance :   1.0000e-07
  Last MAX-Density change    ...    6.4702e-05  Tolerance :   1.0000e-07
  Last RMS-Density change    ...    1.9447e-06  Tolerance :   5.0000e-09
  Last DIIS Error            ...    3.3146e-05  Tolerance :   1.0000e-07
  Last Orbital Gradient      ...    1.9239e-05  Tolerance :   1.0000e-04
  Last Orbital Rotation      ...    5.9710e-05  Tolerance :   1.0000e-04


----------------
ORBITAL ENERGIES
----------------

  NO   OCC          E(Eh)            E(eV) 
   0   2.0000     -18.988604      -516.7062 
   1   2.0000     -18.985262      -516.6152 
   2   2.0000     -14.400253      -391.8508 
   3   2.0000     -10.097354      -274.7630 
   4   2.0000     -10.075283      -274.1624 
   5   2.0000     -10.055970      -273.6369 
   6   2.0000     -10.052592      -273.5449 
   7   2.0000     -10.046434      -273.3774 
   8   2.0000     -10.045408      -273.3494 
   9   2.0000     -10.025242      -272.8007 
  10   2.0000      -1.207819       -32.8664 
  11   2.0000      -1.026351       -27.9284 
  12   2.0000      -0.861343       -23.4383 
  13   2.0000      -0.783623       -21.3235 
  14   2.0000      -0.757012       -20.5994 
  15   2.0000      -0.689126       -18.7521 
  16   2.0000      -0.648851       -17.6561 
  17   2.0000      -0.583380       -15.8746 
  18   2.0000      -0.565459       -15.3869 
  19   2.0000      -0.522827       -14.2269 
  20   2.0000      -0.516491       -14.0544 
  21   2.0000      -0.493971       -13.4416 
  22   2.0000      -0.465193       -12.6586 
  23   2.0000      -0.446941       -12.1619 
  24   2.0000      -0.416554       -11.3350 
  25   2.0000      -0.395062       -10.7502 
  26   2.0000      -0.392021       -10.6674 
  27   2.0000      -0.360848        -9.8192 
  28   2.0000      -0.348319        -9.4782 
  29   2.0000      -0.339649        -9.2423 
  30   2.0000      -0.325646        -8.8613 
  31   2.0000      -0.298711        -8.1283 
  32   2.0000      -0.288848        -7.8600 
  33   2.0000      -0.261927        -7.1274 
  34   2.0000      -0.260411        -7.0861 
  35   2.0000      -0.246272        -6.7014 
  36   0.0000      -0.126552        -3.4437 
  37   0.0000      -0.043770        -1.1910 
  38   0.0000      -0.026121        -0.7108 
  39   0.0000       0.083414         2.2698 
  40   0.0000       0.089062         2.4235 
  41   0.0000       0.107250         2.9184 
  42   0.0000       0.110107         2.9962 
  43   0.0000       0.132290         3.5998 
  44   0.0000       0.143248         3.8980 
  45   0.0000       0.155663         4.2358 
  46   0.0000       0.157619         4.2890 
*Only the first 10 virtual orbitals were printed.
Total SCF time: 0 days 0 hours 0 min 7 sec 
Finished LeanSCF after   8.0 sec

Maximum memory used throughout the entire LEANSCF-calculation: 28.4 MB


-------------------------------------------------------------------------------
                          DFT DISPERSION CORRECTION                            
                                                                               
                                DFTD4 V3.4.0                                   
-------------------------------------------------------------------------------
-------------------------   ----------------
Dispersion correction           -0.006026830
-------------------------   ----------------

------------------   -----------------
gCP correction             0.011118533
------------------   -----------------

-------------------------   --------------------
FINAL SINGLE POINT ENERGY      -475.975436558488
-------------------------   --------------------

------------------------------------------------------------------------------
                         ORCA SCF GRADIENT CALCULATION
------------------------------------------------------------------------------

Nuc. rep. gradient        (SHARK) ... done (  0.0 sec)
HCore & Overlap gradient  (SHARK) ... done (  0.3 sec)
Split-RIJ-J gradient      (SHARK) ... done (  2.1 sec)
XC gradient                       ... done (  7.1 sec)
CPCM gradient                     ... done (  1.1 sec)
SMD gradient                      ... done (  0.0 sec)
Dispersion correction             ... done (  0.0 sec)

-------------------
DISPERSION GRADIENT
-------------------

   1   C   :   -0.000024478   -0.000109726   -0.000000629
   2   C   :    0.000005992   -0.000052063   -0.000000195
   3   C   :    0.000086252   -0.000043871   -0.000000262
   4   C   :    0.000108025    0.000023192    0.000000195
   5   C   :    0.000080653    0.000076660    0.000000499
   6   C   :    0.000010198    0.000089141    0.000000379
   7   C   :   -0.000035680    0.000023061    0.000000119
   8   N   :   -0.000099919    0.000028738    0.000000106
   9   O   :   -0.000089123    0.000063326   -0.000000950
  10   O   :   -0.000097756   -0.000020813    0.000001212
  11   H   :   -0.000019160   -0.000040966    0.000011708
  12   H   :   -0.000019545   -0.000040590   -0.000011749
  13   H   :    0.000000395   -0.000049827   -0.000000671
  14   H   :    0.000035990   -0.000029982   -0.000000179
  15   H   :    0.000042748    0.000004560    0.000000059
  16   H   :    0.000027321    0.000035000    0.000000223
  17   H   :   -0.000011913    0.000044158    0.000000136

Difference to translation invariance:
           :    0.0000000000   -0.0000000000   -0.0000000000

Difference to rotation invariance:
           :    0.0000000000    0.0000000000    0.0000000000

Norm of the Dispersion gradient    ...    0.0003269374
RMS gradient                       ...    0.0000457804
MAX gradient                       ...    0.0001097261
gCP correction                   ... done

------------------
CARTESIAN GRADIENT
------------------

   1   C   :    0.000746146    0.001441103   -0.000020901
   2   C   :    0.005907019    0.002881622   -0.000004839
   3   C   :    0.000072803    0.000210722    0.000002753
   4   C   :   -0.000767721   -0.001618913   -0.000013844
   5   C   :   -0.000401720    0.000754516   -0.000032857
   6   C   :    0.006236413   -0.001559426    0.000031350
   7   C   :   -0.026761849   -0.002200456   -0.000080000
   8   N   :    0.011291290   -0.003221603    0.000165818
   9   O   :    0.006528624   -0.014304898    0.000448315
  10   O   :    0.007265233    0.013672727   -0.000593048
  11   H   :    0.001249354    0.002163871   -0.002470577
  12   H   :    0.001256312    0.002077840    0.002512836
  13   H   :   -0.003299364    0.002343250    0.000059573
  14   H   :   -0.001679923    0.004197662    0.000067006
  15   H   :   -0.004734193    0.000328245    0.000006554
  16   H   :   -0.002109853   -0.004208240   -0.000038724
  17   H   :   -0.000798570   -0.002958026   -0.000039414

Difference to translation invariance:
           :   -0.0000000000    0.0000000000    0.0000000000

Difference to rotation invariance:
           :    0.0000055041    0.0000294398   -0.0003927255

Norm of the Cartesian gradient     ...    0.0394091541
RMS gradient                       ...    0.0055183854
MAX gradient                       ...    0.0267618491

-------
TIMINGS
-------

Total SCF gradient time     ....       11.446 sec

Densities                   ....       0.001 sec  (  0.0%)
One electron gradient       ....       0.330 sec  (  2.9%)
RI-J Coulomb gradient       ....       2.135 sec  ( 18.7%)
XC gradient                 ....       7.090 sec  ( 61.9%)
CPCM gradient               ....       1.065 sec  (  9.3%)
   A-Matrix (El+Nuc)        ....       0.060 sec  (  0.5%)
   Potential                ....       1.005 sec  (  8.8%)
SMD gradient                ....       0.017 sec  (  0.2%)

Maximum memory used throughout the entire SCFGRAD-calculation: 37.5 MB

------------------------------------------------------------------------------
                              ORCA PROPERTY CALCULATIONS
------------------------------------------------------------------------------

GBWName                                 ... xtb_opt.gbw
Number of atoms                         ...     17
Number of basis functions               ...    240
Max core memory                         ...   1024 MB

Electric properties:
Dipole moment                           ... YES
Quadrupole moment                       ...  NO
Static polarizability (Dipole/Dipole)   ...  NO
Static polarizability (Dipole/Quad.)    ...  NO
Static polarizability (Quad./Quad.)     ...  NO
Static polarizability (Velocity)        ...  NO

Atomic electric properties:
Dipole moment                           ...  NO
Quadrupole moment                       ...  NO
Static polarizability                   ...  NO

Choice of electric origin               ... Center of mass
Position of electric origin             ...     0.000028    -0.000010    -0.000000

General magnetic properties:
Magnetizability                         ...  NO

EPR properties:
g-Tensor (aka g-matrix)                 ...  NO
Zero-Field splitting spin-orbit         ...  NO
Zero-field splitting spin-spin          ...  NO
Hyperfine couplings                     ...  NO (   0 nuclei)
Quadrupole couplings                    ...  NO (   0 nuclei)
Contact density                         ...  NO (   0 nuclei)

NMR properties:
Chemical shifts                         ...  NO (   0 nuclei)
Spin-rotation constants                 ...  NO (   0 nuclei)
Spin-spin couplings                     ...  NO (   0 nuclei,    0 pairs)

Choice of magnetic origin               ... GIAO
Position of magnetic origin             ...     0.000000     0.000000     0.000000

Properties with geometric perturbations:
SCF Hessian                             ...  NO
IR spectrum                             ...  NO
VCD spectrum                            ...  NO
X-ray spectroscopy properties:
SCF XES/XAS/RIXS spectra                ...  NO


-------------
DIPOLE MOMENT
-------------

Method             : SCF
Type of density    : Electron Density
Multiplicity       :   1
Irrep              :   0
Energy             :  -475.9805282608184598 Eh
Relativity type    : 
Basis              : AO
                                X                 Y                 Z
Electronic contribution:     -4.313655074       4.111699201       0.025761375
Nuclear contribution   :      6.887073931      -4.609496811      -0.024721357
                        -----------------------------------------
Total Dipole Moment    :      2.573418856      -0.497797610       0.001040017
                        -----------------------------------------
Magnitude (a.u.)       :      2.621123452
Magnitude (Debye)      :      6.662366348



--------------------
Rotational spectrum 
--------------------
 
Rotational constants in cm-1:             0.076589             0.043008             0.027683 
Rotational constants in MHz :          2296.094790          1289.342681           829.925294 

Dipole components along the rotational axes: 
x,y,z [a.u.] :     2.573416    -0.497810     0.001040 
x,y,z [Debye]:     6.541105    -1.265333     0.002644 

 

Dipole moment calculation done in   0.0 sec 

Maximum memory used throughout the entire PROP-calculation: 16.1 MB

--------------------------------
SUGGESTED CITATIONS FOR THIS RUN
--------------------------------

Below you find a list of papers that are relevant to this ORCA run
We neither can nor want to force you to cite these papers, but we appreciate if you do
You receive ORCA, which is the product of decades of hard work by many enthusiastic individuals, for free
The only thing we kindly ask in return is that you cite our papers,
We deeply appreciate it, if you show your appreciation for ORCA by not just citing the generic ORCA reference.

Please note that relegating all ORCA citations to the supporting information does *not* help us.
SI sections are not indexed - citations you put there will not count into any citation statistics
But we need these citations in order to attract the funding resources that allow us to do what we are doing

Therefore, if you are a happy ORCA user, please consider citing a few of the papers listed below in the main body of your paper

In addition to the list printed below, the program has created the file xtb_opt.bibtex that contains the list in bibtex format
You can import this file easily into all common literature databanks and citation aid programs


List of essential papers. We consider these as the minimum necessary citations

  1. Neese,F.
     Software update: the ORCA program system, version 5.0
     WIRES Comput. Molec. Sci., 2022 12(1)e1606
     doi.org/10.1002/wcms.1606
  2. Grimme,S.; Hansen,A.; Ehlert,S.; Mewes,J.
     r2SCAN-3c: A 'Swiss army knife' composite electronic-structure method
     J. Chem. Phys., 2021 154 064103
     doi.org/10.1063/5.0040021

List of papers to cite with high priority. The work reported in these papers was absolutely
necessary for this run to complete.
Our perspective: the developers of density functionals and basis sets usually get cited in chemistry papers
Good! But without the algorithms to do something with them, the functionals or basis sets would not do anything.
Hence, in our opinion, the algorithm design and method developments papers are equally worthy of getting cited

  1. Neese,F.
     An improvement of the resolution of the identity approximation for the formation of the Coulomb matrix
     J. Comp. Chem., 2003 24(14)1740-1747
     doi.org/10.1002/jcc.10318
  2. Garcia-Rates,M.; Neese,F.
     Effect of the Solute Cavity on the Solvation Energy and its Derivatives within the Framework of the Gaussian Charge Scheme
     J. Comput. Chem., 2020 41 922-939
     doi.org/10.1002/jcc.26139
  3. Neese,F.
     The SHARK Integral Generation and Digestion System
     J. Comp. Chem., 2022  1-16
     doi.org/10.1002/jcc.26942
  4. Lehtola,S.; Steigemann,C.; Oliveira,M.; Marques,M.
     Recent developments in Libxc - A comprehensive library of functionals for density functional theory
     Software X, 2018 7 
     doi.org/10.1016/j.softx.2017.11.002
  5. Caldeweyher,E.; Bannwarth,C.; Grimme,S.
     Extension of the D3 dispersion coefficient model
     J. Chem. Phys., 2017 147 034112-XXXX
     doi.org/10.1063/1.4993215
  6. Caldeweyher,E.; Ehlert,S.; Hansen,A.; Neugebauer,H.; Spicher,S.; Bannwarth,C.; Grimme,S.
     A generally applicable atomic-charge dependent London dispersion correction
     J. Chem. Phys., 2019 150 154122-XXXX
     doi.org/10.1063/1.5090222
  7. Caldeweyher,E.; Mewes,J.; Ehlert,S.; Grimme,S.
     Extension and evaluation of the D4 London-dispersion model for periodic systems
     Phys. Chem. Chem. Phys., 2020 22(16)8499-8512
     doi.org/10.1039/D0CP00502A

List of suggested additional citations. These are papers that are important in the 'surrounding' of 
of this run, or papers that preceded the highly important papers. If you like your results we are grateful for a citation.

  1. Neese,F.
     The ORCA program system
     WIRES Comput. Molec. Sci., 2012 2(1)73-78
     doi.org/10.1002/wcms.81
  2. Neese,F.
     Software update: the ORCA program system, version 4.0
     WIRES Comput. Molec. Sci., 2018 8(1)1-6
     doi.org/10.1002/wcms.1327
  3. Neese,F.; Wennmohs,F.; Becker,U.; Riplinger,C.
     The ORCA quantum chemistry program package
     J. Chem. Phys., 2020 152 Art. No. L224108
     doi.org/10.1063/5.0004608

List of optional additional citations

  1. Neese,F.
     Approximate second-order SCF convergence for spin unrestricted wavefunctions
     Chem. Phys. Lett., 2000 325(1-3)93-98
     doi.org/10.1016/s0009-2614(00)00662-x

Timings for individual modules:

Sum of individual times          ...       21.190 sec (=   0.353 min)
Startup calculation              ...        1.213 sec (=   0.020 min)   5.7 %
SCF iterations                   ...        8.327 sec (=   0.139 min)  39.3 %
Property calculations            ...        0.106 sec (=   0.002 min)   0.5 %
SCF Gradient evaluation          ...       11.545 sec (=   0.192 min)  54.5 %
                             ****ORCA TERMINATED NORMALLY****
TOTAL RUN TIME: 0 days 0 hours 0 minutes 22 seconds 60 msec
  ------------------------------------------------------------------------
          * successful ORCA run, taking over control again...

         :::::::::::::::::::::::::::::::::::::::::::::::::::::
         ::                  ORCA SUMMARY                   ::
         :::::::::::::::::::::::::::::::::::::::::::::::::::::
         :: total energy            -475.975436558488 Eh    ::
         :: gradient norm              0.039409154129 Eh/a0 ::
         :: HOMO-LUMO gap              0.000000000000 eV    ::
         :::::::::::::::::::::::::::::::::::::::::::::::::::::

      ----------------------------------------------------------- 
     |                       L-ANC optimizer                     |
      ----------------------------------------------------------- 
          low memory version by Sebastian Ehlert

          ...................................................
          :                      SETUP                      :
          :.................................................:
          :   energy convergence        0.5000000E-05 Eh    :
          :   grad. convergence         0.1000000E-02 Eh/a0 :
          :   optimization log               true           :
          :   writing optlog all                1     steps :
          :   Hessian reset                     8     steps :
          :   maximium step len.        1.0000000     a0    :
          :   LBFGS images                      8           :
          ...................................................
 * calculating model hessian...
Using Lindh-Hessian (1995)
 Shifting diagonal of input Hessian by   1.000000000000000E-002
 Lowest  eigenvalues of input Hessian
    0.000000    0.000000    0.000000    0.000000    0.000000    0.000000
    0.014042    0.019623    0.020037    0.021572    0.024776    0.030838
    0.032874    0.035148    0.057525    0.058606    0.069524    0.081845
 Highest eigenvalues
    1.621032    1.871259    1.952403    2.007771    2.223618    2.566044
 

........................................................................
.............................. CYCLE    1 ..............................
........................................................................
                         * ORCA takes the control...
  ------------------------------------------------------------------------

                                 *****************
                                 * O   R   C   A *
                                 *****************

                                            #,                                       
                                            ###                                      
                                            ####                                     
                                            #####                                    
                                            ######                                   
                                           ########,                                 
                                     ,,################,,,,,                         
                               ,,#################################,,                 
                          ,,##########################################,,             
                       ,#########################################, ''#####,          
                    ,#############################################,,   '####,        
                  ,##################################################,,,,####,       
                ,###########''''           ''''###############################       
              ,#####''   ,,,,##########,,,,          '''####'''          '####       
            ,##' ,,,,###########################,,,                        '##       
           ' ,,###''''                  '''############,,,                           
         ,,##''                                '''############,,,,        ,,,,,,###''
      ,#''                                            '''#######################'''  
     '                                                          ''''####''''         
             ,#######,   #######,   ,#######,      ##                                
            ,#'     '#,  ##    ##  ,#'     '#,    #''#        ,####,   ,####,        
            ##       ##  ##   ,#'  ##            #'  '#       #'       #'  '#        
            ##       ##  #######   ##           ,######,      #####,   #    #        
            '#,     ,#'  ##    ##  '#,     ,#' ,#      #,     #,   #   #,  ,#        
             '#######'   ##     ##  '#######'  #'      '#     '####' # '####'        



                #########################################################
                #                        -***-                          #
                #          Department of theory and spectroscopy        #
                #                                                       #
                #                      Frank Neese                      #
                #                                                       #
                #     Directorship, Architecture, Infrastructure        #
                #                    SHARK, DRIVERS                     #
                #        Core code/Algorithms in most modules           #
                #                                                       #
                #        Max Planck Institute fuer Kohlenforschung      #
                #                Kaiser Wilhelm Platz 1                 #
                #                 D-45470 Muelheim/Ruhr                 #
                #                      Germany                          #
                #                                                       #
                #                  All rights reserved                  #
                #                        -***-                          #
                #########################################################


                         Program Version 6.0.0  -   RELEASE  -


 With contributions from (in alphabetic order):
   Daniel Aravena         : Magnetic Suceptibility
   Michael Atanasov       : Ab Initio Ligand Field Theory (pilot matlab implementation)
   Alexander A. Auer      : GIAO ZORA, VPT2 properties, NMR spectrum
   Ute Becker             : All parallelization in ORCA, NUMFREQ, NUMCALC
   Giovanni Bistoni       : ED, misc. LED, open-shell LED, HFLD
   Martin Brehm           : Molecular dynamics
   Dmytro Bykov           : pre 5.0 version of the SCF Hessian
   Marcos Casanova-Páez   : Triplet and SCS-CIS(D). UHF-(DLPNO)-IP/EA/STEOM-CCSD. UHF-CVS-IP/STEOM-CCSD
   Vijay G. Chilkuri      : MRCI spin determinant printing, contributions to CSF-ICE
   Pauline Colinet        : FMM embedding
   Dipayan Datta          : RHF DLPNO-CCSD density
   Achintya Kumar Dutta   : EOM-CC, STEOM-CC
   Nicolas Foglia         : Exact transition moments, OPA infrastructure, MCD improvements
   Dmitry Ganyushin       : Spin-Orbit,Spin-Spin,Magnetic field MRCI
   Miquel Garcia          : C-PCM and meta-GGA Hessian, CCSD/C-PCM, Gaussian charge scheme
   Tiago L. C. Gouveia    : GS-ROHF, GS-ROCIS
   Yang Guo               : DLPNO-NEVPT2, F12-NEVPT2, CIM, IAO-localization
   Andreas Hansen         : Spin unrestricted coupled pair/coupled cluster methods
   Ingolf Harden          : AUTO-CI MPn and infrastructure 
   Benjamin Helmich-Paris : MC-RPA, TRAH-(SCF,CASSCF), AVAS, COSX integrals, SCF dyn. polar.
   Lee Huntington         : MR-EOM, pCC
   Robert Izsak           : Overlap fitted RIJCOSX, COSX-SCS-MP3, EOM
   Riya Kayal             : Wick's Theorem for AUTO-CI, AUTO-CI UHF-CCSDT
   Emily Kempfer          : AUTO-CI, RHF CISDT and CCSDT
   Christian Kollmar      : KDIIS, OOCD, Brueckner-CCSD(T), CCSD density, CASPT2, CASPT2-K, improved NEVPT2
   Axel Koslowski         : Symmetry handling
   Simone Kossmann        : Meta GGA functionals, TD-DFT gradient, OOMP2, (MP2 Hessian; deprecated post 5.0)
   Lucas Lang             : DCDCAS
   Marvin Lechner         : AUTO-CI (C++ implementation), FIC-MRCC
   Spencer Leger          : CASSCF response
   Dagmar Lenk            : GEPOL surface, SMD, ORCA-2-JSON
   Dimitrios Liakos       : Extrapolation schemes; Compound Job, initial MDCI parallelization
   Dimitrios Manganas     : Further ROCIS development; embedding schemes. LFT, Crystal Embedding
   Dimitrios Pantazis     : SARC Basis sets
   Anastasios Papadopoulos: AUTO-CI, single reference methods and gradients
   Taras Petrenko         : pre 6.0 DFT Hessian and TD-DFT gradient, (ASA, deprecated), ECA, 1-Electron XAS/XES, NRVS
   Peter Pinski           : DLPNO-MP2, DLPNO-MP2 Gradient
   Christoph Reimann      : Effective Core Potentials
   Marius Retegan         : Local ZFS, SOC
   Christoph Riplinger    : Optimizer, TS searches, QM/MM, DLPNO-CCSD(T), (RO)-DLPNO pert. Triples
   Michael Roemelt        : Original ROCIS implementation
   Masaaki Saitow         : Open-shell DLPNO-CCSD energy and density
   Barbara Sandhoefer     : DKH picture change effects
   Kantharuban Sivalingam : CASSCF convergence/infrastructure, NEVPT2 and variants, FIC-MRCI
   Bernardo de Souza      : ESD, SOC TD-DFT
   Georgi Stoychev        : AutoAux, RI-MP2 NMR, DLPNO-MP2 response, X2C
   Van Anh Tran           : RI-MP2 g-tensors
   Willem Van den Heuvel  : Paramagnetic NMR
   Zikuan Wang            : NOTCH, Electric field optimization 
   Frank Wennmohs         : Technical directorship and infrastructure
   Hang Xu                : AUTO-CI-Response properties 


 We gratefully acknowledge several colleagues who have allowed us to
 interface, adapt or use parts of their codes:
   Stefan Grimme, W. Hujo, H. Kruse, P. Pracht,  : VdW corrections, initial TS optimization,
                  C. Bannwarth, S. Ehlert,         DFT functionals, gCP, sTDA/sTD-DF
                  L. Wittmann, M. Mueller
   Ed Valeev, F. Pavosevic, A. Kumar             : LibInt (2-el integral package), F12 methods
   Garnet Chan, S. Sharma, J. Yang, R. Olivares  : DMRG
   Ulf Ekstrom                                   : XCFun DFT Library
   Mihaly Kallay                                 : mrcc  (arbitrary order and MRCC methods)
   Frank Weinhold                                : gennbo (NPA and NBO analysis)
   Simon Mueller                                 : openCOSMO-RS
   Christopher J. Cramer and Donald G. Truhlar   : smd solvation model
   Lars Goerigk                                  : TD-DFT with DH, B97 family of functionals
   V. Asgeirsson, H. Jonsson                     : NEB implementation
   FAccTs GmbH                                   : IRC, NEB, NEB-TS, DLPNO-Multilevel, CI-OPT
                                                   MM, QMMM, 2- and 3-layer-ONIOM, Crystal-QMMM,
                                                   LR-CPCM, SF, NACMEs, symmetry and pop. for TD-DFT,
                                                   nearIR, NL-DFT gradient (VV10), updates on ESD,
                                                   ML-optimized integration grids, MBIS, APM,
                                                   GOAT, DOCKER, SOLVATOR, interface openCOSMO-RS
   S Lehtola, MJT Oliveira, MAL Marques          : LibXC Library
   Liviu Ungur et al                             : ANISO software


 Your calculation uses the libint2 library for the computation of 2-el integrals
 For citations please refer to: http://libint.valeyev.net

 Your ORCA version has been built with support for libXC version: 6.2.2
 For citations please refer to: https://libxc.gitlab.io

 This ORCA versions uses:
   CBLAS   interface :  Fast vector & matrix operations
   LAPACKE interface :  Fast linear algebra routines
   SCALAPACK package :  Parallel linear algebra routines
   Shared memory     :  Shared parallel matrices
   BLAS/LAPACK       :  OpenBLAS 0.3.27  USE64BITINT DYNAMIC_ARCH NO_AFFINITY SkylakeX SINGLE_THREADED
        Core in use  :  SkylakeX
   Copyright (c) 2011-2014, The OpenBLAS Project




***************************************
The coordinates will be read from file: xtb_opt.xyz
***************************************


Your calculation utilizes the geometrical counterpoise correction gCP
Please cite in your paper:
H.Kruse, S. Grimme J.Chem.Phys., 136, (2012), 154101 
   

Your calculation utilizes the atom-pairwise dispersion correction
based on EEQ partial charges (D4)


Your calculation utilizes the SMD solvation module
Please cite in your paper:
A.V. Marenich, C.J. Cramer, D.G. Truhlar J. Phys. Chem. B, 113, (2009), 6378 

================================================================================

----- Orbital basis set information -----
Your calculation utilizes the basis: def2-mTZVPP
   Stefan Grimme, Andreas Hansen, Sebastian Ehlert, and Jan-Michael Mewes 
   J. Chem. Phys. 154, 064103 (2021). DOI: 10.1063/5.0040021

----- AuxJ basis set information -----
Your calculation utilizes the auxiliary basis: def2/J
   F. Weigend, Phys. Chem. Chem. Phys. 8, 1057 (2006).

================================================================================
                                        WARNINGS
                       Please study these warnings very carefully!
================================================================================

WARNING: Old DensityContainer found on disk!
         Will remove this file - 
         If you want to keep old densities, please start your calculation with a different basename. 

Using LibXC functional ID 497 : Re-regularized SCAN exchange by Furness et al
[ 1]  J. W. Furness, A. D. Kaplan, J. Ning, J. P. Perdew, and J. Sun.,  J. Phys. Chem. Lett. 11, 8208-8215 (2020)
[ 2]  J. W. Furness, A. D. Kaplan, J. Ning, J. P. Perdew, and J. Sun.,  J. Phys. Chem. Lett. 11, 9248-9248 (2020)
Using LibXC functional ID 498 : Re-regularized SCAN correlation by Furness et al
[ 1]  J. W. Furness, A. D. Kaplan, J. Ning, J. P. Perdew, and J. Sun.,  J. Phys. Chem. Lett. 11, 8208-8215 (2020)
[ 2]  J. W. Furness, A. D. Kaplan, J. Ning, J. P. Perdew, and J. Sun.,  J. Phys. Chem. Lett. 11, 9248-9248 (2020)
Using LibXC functional ID 497 : Re-regularized SCAN exchange by Furness et al
[ 1]  J. W. Furness, A. D. Kaplan, J. Ning, J. P. Perdew, and J. Sun.,  J. Phys. Chem. Lett. 11, 8208-8215 (2020)
[ 2]  J. W. Furness, A. D. Kaplan, J. Ning, J. P. Perdew, and J. Sun.,  J. Phys. Chem. Lett. 11, 9248-9248 (2020)
Using LibXC functional ID 498 : Re-regularized SCAN correlation by Furness et al
[ 1]  J. W. Furness, A. D. Kaplan, J. Ning, J. P. Perdew, and J. Sun.,  J. Phys. Chem. Lett. 11, 8208-8215 (2020)
[ 2]  J. W. Furness, A. D. Kaplan, J. Ning, J. P. Perdew, and J. Sun.,  J. Phys. Chem. Lett. 11, 9248-9248 (2020)

================================================================================
                                       INPUT FILE
================================================================================
NAME = xtb_opt.inp
|  1> ! r2scan-3c def2/J RI DEFGRID2 scfconv7 ENGRAD tightSCF miniprint
|  2> %cpcm
|  3>     smd true
|  4>     smdsolvent "water"
|  5> end
|  6> * xyzfile 0 1 xtb_opt.xyz
|  7> 
|  8>                          ****END OF INPUT****
================================================================================

                     *******************************
                     * Energy+Gradient Calculation *
                     *******************************

---------------------------------
CARTESIAN COORDINATES (ANGSTROEM)
---------------------------------
  C     -0.174840   -2.345288   -0.014148
  C      0.491284   -1.007483   -0.004313
  C      1.888475   -0.961499   -0.004255
  C      2.591697    0.233388    0.002615
  C      1.910584    1.448925    0.008258
  C      0.531813    1.448911    0.006623
  C     -0.174331    0.238257    0.001314
  N     -1.611168    0.337447    0.001554
  O     -2.124315    1.460583   -0.029447
  O     -2.292273   -0.686562    0.034836
  H     -0.802452   -2.478425    0.870393
  H     -0.834148   -2.452138   -0.878850
  H      0.578052   -3.133646   -0.039265
  H      2.431909   -1.899259   -0.010206
  H      3.675404    0.219348    0.003294
  H      2.451749    2.386578    0.013984
  H     -0.023323    2.376506    0.012006

----------------------------
CARTESIAN COORDINATES (A.U.)
----------------------------
  NO LB      ZA    FRAG     MASS         X           Y           Z
   0 C     6.0000    0    12.011   -0.330399   -4.431951   -0.026735
   1 C     6.0000    0    12.011    0.928391   -1.903867   -0.008150
   2 C     6.0000    0    12.011    3.568700   -1.816970   -0.008040
   3 C     6.0000    0    12.011    4.897598    0.441039    0.004942
   4 C     6.0000    0    12.011    3.610481    2.738072    0.015604
   5 C     6.0000    0    12.011    1.004982    2.738045    0.012516
   6 C     6.0000    0    12.011   -0.329437    0.450241    0.002484
   7 N     7.0000    0    14.007   -3.044667    0.637683    0.002937
   8 O     8.0000    0    15.999   -4.014373    2.760103   -0.055646
   9 O     8.0000    0    15.999   -4.331768   -1.297414    0.065831
  10 H     1.0000    0     1.008   -1.516415   -4.683545    1.644804
  11 H     1.0000    0     1.008   -1.576311   -4.633869   -1.660787
  12 H     1.0000    0     1.008    1.092359   -5.921733   -0.074200
  13 H     1.0000    0     1.008    4.595642   -3.589079   -0.019286
  14 H     1.0000    0     1.008    6.945507    0.414508    0.006224
  15 H     1.0000    0     1.008    4.633134    4.509978    0.026426
  16 H     1.0000    0     1.008   -0.044073    4.490946    0.022688

------------------------------------------------------------------------------
                   ___                                                        
                  /   \      - P O W E R E D   B Y -                         
                 /     \                                                     
                 |  |  |   _    _      __       _____    __    __             
                 |  |  |  | |  | |    /  \     |  _  \  |  |  /  |          
                  \  \/   | |  | |   /    \    | | | |  |  | /  /          
                 / \  \   | |__| |  /  /\  \   | |_| |  |  |/  /          
                |  |  |   |  __  | /  /__\  \  |    /   |      \           
                |  |  |   | |  | | |   __   |  |    \   |  |\   \          
                \     /   | |  | | |  |  |  |  | |\  \  |  | \   \       
                 \___/    |_|  |_| |__|  |__|  |_| \__\ |__|  \__/        
                                                                              
                      - O R C A' S   B I G   F R I E N D -                    
                                      &                                       
                       - I N T E G R A L  F E E D E R -                       
                                                                              
 v1 FN, 2020, v2 2021, v3 2022-2024                                           
------------------------------------------------------------------------------


----------------------
SHARK INTEGRAL PACKAGE
----------------------

Number of atoms                             ...     17
Number of basis functions                   ...    240
Number of shells                            ...    114
Maximum angular momentum                    ...      2
Integral batch strategy                     ... SHARK/LIBINT Hybrid
RI-J (if used) integral strategy            ... SPLIT-RIJ (Revised 2003 algorithm where possible)
Printlevel                                  ...      1
Contraction scheme used                     ... SEGMENTED contraction
Prescreening option                         ... SCHWARTZ
   Thresh                                   ... 3.000e-11
   Tcut                                     ... 1.000e-12
   Tpresel                                  ... 1.000e-12 
Coulomb Range Separation                    ... NOT USED
Exchange Range Separation                   ... NOT USED
Multipole approximations                    ... NOT USED
Finite Nucleus Model                        ... NOT USED
CABS basis                                  ... NOT available
Auxiliary Coulomb fitting basis             ... AVAILABLE
   # of basis functions in Aux-J            ...    567
   # of shells in Aux-J                     ...    185
   Maximum angular momentum in Aux-J        ...      4
Auxiliary J/K fitting basis                 ... NOT available
Auxiliary Correlation fitting basis         ... NOT available
Auxiliary 'external' fitting basis          ... NOT available

Checking pre-screening integrals            ... done (  0.0 sec) Dimension = 114
Check shell pair data                       ... done (  0.0 sec)
Shell pair information
Shell pair cut-off parameter TPreSel        ...   1.0e-12
Total number of shell pairs                 ...      6555
Shell pairs after pre-screening             ...      5864
Total number of primitive shell pairs       ...     24112
Primitive shell pairs kept                  ...     15167
          la=0 lb=0:   1778 shell pairs
          la=1 lb=0:   2137 shell pairs
          la=1 lb=1:    657 shell pairs
          la=2 lb=0:    752 shell pairs
          la=2 lb=1:    453 shell pairs
          la=2 lb=2:     87 shell pairs

Calculating one electron integrals          ... done (  0.0 sec)
Calculating RI/J V-Matrix + Cholesky decomp.... done (  0.1 sec)
Calculating Nuclear repulsion               ... done (  0.0 sec) ENN=    506.377317650295 Eh

Diagonalization of the overlap matrix:
Smallest eigenvalue                        ... 2.481e-05
Time for diagonalization                   ...    0.006 sec
Threshold for overlap eigenvalues          ... 1.000e-07
Number of eigenvalues below threshold      ... 0
Time for construction of square roots      ...    0.014 sec
Total time needed                          ...    0.029 sec

-------------------
DFT GRID GENERATION
-------------------

General Integration Accuracy     IntAcc      ... 4.388
Radial Grid Type                 RadialGrid  ... OptM3 with GC (2021)
Angular Grid (max. ang.)         AngularGrid ... 4 (Lebedev-302)
Angular grid pruning method      GridPruning ... 4 (adaptive)
Weight generation scheme         WeightScheme... mBecke (2022)
Basis function cutoff            BFCut       ... 1.0000e-11
Integration weight cutoff        WCut        ... 1.0000e-14
Partially contracted basis set               ... off
Rotationally invariant grid construction     ... off
Angular grids for H and He will be reduced by one unit
Diffuse basis detected: some atoms will have their outermost
                        angular grid increased by 1.

Total number of grid points                  ...    83253
Total number of batches                      ...     1310
Average number of points per batch           ...       63
Average number of grid points per atom       ...     4897
Initializing property integral containers    ... done (  0.0 sec)

SHARK setup successfully completed in   1.2 seconds

Maximum memory used throughout the entire STARTUP-calculation: 39.4 MB
Occupation numbers will be reassigned to an Aufbau configuration
             **** ENERGY FILE WAS UPDATED (xtb_opt.en.tmp) ****
Finished Guess after   0.3 sec
Maximum memory used throughout the entire GUESS-calculation: 17.2 MB
--------------------
CPCM SOLVATION MODEL
--------------------
CPCM parameters:
  Epsilon                                         ...      78.3550
  Refrac                                          ...       1.3328
  Rsolv                                           ...       1.3000
  Surface type                                    ... GAUSSIAN VDW
  Discretization scheme                           ... Constant charge density
    Threshold for H atoms                         ...       5.0000 (charges/Ang^2)
    Threshold for non-H atoms                     ...       5.0000 (charges/Ang^2)
  Epsilon function type                           ...         CPCM
Solvent:                                          ... WATER
SMD-CDS solvent descriptors:
  Soln                                            ...       1.3328
  Soln25                                          ...       1.3323
  Sola                                            ...       0.0000
  Solb                                            ...       0.0000
  Solg                                            ...       0.0000
  Solc                                            ...       0.0000
  Solh                                            ...       0.0000
Radii:
  Scheme                                          ... Element-dependent radii
  Radius for C  used is    3.4960 Bohr (=   1.8500 Ang.)
  Radius for N  used is    3.5716 Bohr (=   1.8900 Ang.)
  Radius for O  used is    2.8724 Bohr (=   1.5200 Ang.)
  Radius for H  used is    2.2677 Bohr (=   1.2000 Ang.)
Calculating surface                               ...        done! (  0.0s)
Cavity surface points                             ...         1305
Cavity Volume                                     ...     904.4990
Cavity Surface-area                               ...     552.8503
Calculating surface distance matrix               ...        done! (  0.0s)
Performing Cholesky decomposition & store         ...        done! (  0.1s)
Overall time for CPCM initialization              ...                 0.1s

----------------------------------------D-I-I-S--------------------------------------------
Iteration    Energy (Eh)           Delta-E    RMSDP     MaxDP     DIISErr   Damp  Time(sec)
-------------------------------------------------------------------------------------------
               ***  Starting incremental Fock matrix formation  ***
    1    -475.9908188242956157     0.00e+00  1.29e-04  3.11e-03  8.52e-03  0.700   3.8
    2    -475.9909705248858245    -1.52e-04  1.11e-04  2.86e-03  5.56e-03  0.700   3.1
                               ***Turning on AO-DIIS***
    3    -475.9910747975432059    -1.04e-04  8.03e-05  1.89e-03  3.97e-03  0.700   3.0
                              *** Initializing SOSCF ***
---------------------------------------S-O-S-C-F--------------------------------------
Iteration    Energy (Eh)           Delta-E    RMSDP     MaxDP     MaxGrad    Time(sec)
--------------------------------------------------------------------------------------
    4    -475.9911461664942181    -7.14e-05  1.93e-04  4.71e-03  2.81e-03     3.0
               *** Restarting incremental Fock matrix formation ***
    5    -475.9913168435595026    -1.71e-04  2.40e-05  5.26e-04  2.36e-04     3.7
    6    -475.9913157815668683     1.06e-06  1.39e-05  3.35e-04  4.21e-04     2.9
    7    -475.9913177824074637    -2.00e-06  1.02e-05  2.72e-04  7.55e-05     2.9
    8    -475.9913176799649364     1.02e-07  6.09e-06  1.53e-04  9.87e-05     2.8
    9    -475.9913178855678098    -2.06e-07  1.82e-06  4.21e-05  1.12e-05     2.8
                  *** Gradient check signals convergence ***

               *****************************************************
               *                     SUCCESS                       *
               *           SCF CONVERGED AFTER   9 CYCLES          *
               *****************************************************


SMD CDS free energy correction energy :                 5.76909     Kcal/mol
Total Energy after SMD CDS correction =              -475.982124260 Eh
             **** ENERGY FILE WAS UPDATED (xtb_opt.en.tmp) ****

----------------
TOTAL SCF ENERGY
----------------

Total Energy       :       -475.98212426008615 Eh          -12952.13207 eV

Components:
Nuclear Repulsion  :        506.37731765029548 Eh           13779.22734 eV
Electronic Energy  :       -982.35092667755464 Eh          -26731.12770 eV
One Electron Energy:      -1650.10684076591019 Eh          -44901.68990 eV
Two Electron Energy:        667.75591408835555 Eh           18170.56220 eV
CPCM Dielectric    :         -0.01770885830868 Eh              -0.48188 eV
SMD CDS (Gcds)     :          0.00919362548165 Eh               0.25017 eV

Virial components:
Potential Energy   :       -950.06071937955824 Eh          -25852.46649 eV
Kinetic Energy     :        474.07859511947208 Eh           12900.33441 eV
Virial Ratio       :          2.00401521848953

DFT components:
N(Alpha)           :       36.000052210681 electrons
N(Beta)            :       36.000052210681 electrons
N(Total)           :       72.000104421362 electrons
E(X)               :      -62.085104931164 Eh       
E(C)               :       -2.367914494372 Eh       
E(XC)              :      -64.453019425536 Eh       

CPCM Solvation Model Properties:
Surface-charge          :         -0.04233213858610
Corrected charge        :         -0.00000000000000
Outlying charge corr.   :          0.00013814533535 Eh               0.00376 eV
Free-energy (cav+disp)  :          0.00919362548165 Eh               0.25017 eV

---------------
SCF CONVERGENCE
---------------

  Last Energy change         ...    2.0560e-07  Tolerance :   1.0000e-07
  Last MAX-Density change    ...    4.2069e-05  Tolerance :   1.0000e-07
  Last RMS-Density change    ...    1.8215e-06  Tolerance :   5.0000e-09
  Last DIIS Error            ...    2.8065e-03  Tolerance :   1.0000e-07
  Last Orbital Gradient      ...    1.1236e-05  Tolerance :   1.0000e-04
  Last Orbital Rotation      ...    4.6291e-05  Tolerance :   1.0000e-04


----------------
ORBITAL ENERGIES
----------------

  NO   OCC          E(Eh)            E(eV) 
   0   2.0000     -18.990807      -516.7661 
   1   2.0000     -18.988047      -516.6910 
   2   2.0000     -14.401004      -391.8712 
   3   2.0000     -10.100861      -274.8584 
   4   2.0000     -10.077409      -274.2202 
   5   2.0000     -10.057666      -273.6830 
   6   2.0000     -10.054223      -273.5893 
   7   2.0000     -10.048322      -273.4288 
   8   2.0000     -10.047399      -273.4036 
   9   2.0000     -10.027901      -272.8731 
  10   2.0000      -1.200655       -32.6715 
  11   2.0000      -1.022396       -27.8208 
  12   2.0000      -0.858452       -23.3597 
  13   2.0000      -0.779116       -21.2008 
  14   2.0000      -0.756103       -20.5746 
  15   2.0000      -0.687419       -18.7056 
  16   2.0000      -0.647723       -17.6254 
  17   2.0000      -0.582830       -15.8596 
  18   2.0000      -0.565461       -15.3870 
  19   2.0000      -0.521818       -14.1994 
  20   2.0000      -0.511678       -13.9235 
  21   2.0000      -0.493250       -13.4220 
  22   2.0000      -0.463847       -12.6219 
  23   2.0000      -0.446284       -12.1440 
  24   2.0000      -0.416545       -11.3348 
  25   2.0000      -0.394086       -10.7236 
  26   2.0000      -0.391818       -10.6619 
  27   2.0000      -0.360028        -9.7969 
  28   2.0000      -0.347842        -9.4653 
  29   2.0000      -0.338936        -9.2229 
  30   2.0000      -0.326781        -8.8922 
  31   2.0000      -0.299023        -8.1368 
  32   2.0000      -0.288639        -7.8543 
  33   2.0000      -0.263054        -7.1581 
  34   2.0000      -0.260692        -7.0938 
  35   2.0000      -0.246411        -6.7052 
  36   0.0000      -0.128268        -3.4903 
  37   0.0000      -0.045164        -1.2290 
  38   0.0000      -0.029026        -0.7898 
  39   0.0000       0.082757         2.2519 
  40   0.0000       0.084890         2.3100 
  41   0.0000       0.105731         2.8771 
  42   0.0000       0.107578         2.9274 
  43   0.0000       0.129872         3.5340 
  44   0.0000       0.141928         3.8621 
  45   0.0000       0.153732         4.1833 
  46   0.0000       0.156107         4.2479 
*Only the first 10 virtual orbitals were printed.
Total SCF time: 0 days 0 hours 0 min 28 sec 
Finished LeanSCF after  28.7 sec

Maximum memory used throughout the entire LEANSCF-calculation: 28.4 MB


-------------------------------------------------------------------------------
                          DFT DISPERSION CORRECTION                            
                                                                               
                                DFTD4 V3.4.0                                   
-------------------------------------------------------------------------------
-------------------------   ----------------
Dispersion correction           -0.005997447
-------------------------   ----------------

------------------   -----------------
gCP correction             0.010980821
------------------   -----------------

-------------------------   --------------------
FINAL SINGLE POINT ENERGY      -475.977140885151
-------------------------   --------------------

------------------------------------------------------------------------------
                         ORCA SCF GRADIENT CALCULATION
------------------------------------------------------------------------------

[...]
Outlying charge corr.   :          0.00013852167144 Eh               0.00377 eV
Free-energy (cav+disp)  :          0.00921992707237 Eh               0.25089 eV

---------------
SCF CONVERGENCE
---------------

  Last Energy change         ...    3.2502e-07  Tolerance :   1.0000e-07
  Last MAX-Density change    ...    2.4176e-05  Tolerance :   1.0000e-07
  Last RMS-Density change    ...    1.1909e-06  Tolerance :   5.0000e-09
  Last DIIS Error            ...    7.6646e-05  Tolerance :   1.0000e-07
  Last Orbital Gradient      ...    1.1485e-05  Tolerance :   1.0000e-04
  Last Orbital Rotation      ...    3.9681e-05  Tolerance :   1.0000e-04


----------------
ORBITAL ENERGIES
----------------

  NO   OCC          E(Eh)            E(eV) 
   0   2.0000     -18.992431      -516.8103 
   1   2.0000     -18.990553      -516.7592 
   2   2.0000     -14.401666      -391.8893 
   3   2.0000     -10.101627      -274.8792 
   4   2.0000     -10.077302      -274.2173 
   5   2.0000     -10.057892      -273.6892 
   6   2.0000     -10.053741      -273.5762 
   7   2.0000     -10.048836      -273.4427 
   8   2.0000     -10.047744      -273.4130 
   9   2.0000     -10.028924      -272.9009 
  10   2.0000      -1.200180       -32.6585 
  11   2.0000      -1.024219       -27.8704 
  12   2.0000      -0.856662       -23.3110 
  13   2.0000      -0.774299       -21.0697 
  14   2.0000      -0.755267       -20.5519 
  15   2.0000      -0.685269       -18.6471 
  16   2.0000      -0.646942       -17.6042 
  17   2.0000      -0.582897       -15.8614 
  18   2.0000      -0.565580       -15.3902 
  19   2.0000      -0.521505       -14.1909 
  20   2.0000      -0.510538       -13.8925 
  21   2.0000      -0.493483       -13.4284 
  22   2.0000      -0.462993       -12.5987 
  23   2.0000      -0.446282       -12.1439 
  24   2.0000      -0.416574       -11.3355 
  25   2.0000      -0.393919       -10.7191 
  26   2.0000      -0.391476       -10.6526 
  27   2.0000      -0.359019        -9.7694 
  28   2.0000      -0.347881        -9.4663 
  29   2.0000      -0.338627        -9.2145 
  30   2.0000      -0.327609        -8.9147 
  31   2.0000      -0.300488        -8.1767 
  32   2.0000      -0.287786        -7.8310 
  33   2.0000      -0.265227        -7.2172 
  34   2.0000      -0.260395        -7.0857 
  35   2.0000      -0.246127        -6.6974 
  36   0.0000      -0.127153        -3.4600 
  37   0.0000      -0.045906        -1.2492 
  38   0.0000      -0.030124        -0.8197 
  39   0.0000       0.078239         2.1290 
  40   0.0000       0.084680         2.3043 
  41   0.0000       0.105293         2.8652 
  42   0.0000       0.106987         2.9113 
  43   0.0000       0.128109         3.4860 
  44   0.0000       0.141612         3.8535 
  45   0.0000       0.153028         4.1641 
  46   0.0000       0.155021         4.2183 
*Only the first 10 virtual orbitals were printed.
Total SCF time: 0 days 0 hours 0 min 13 sec 
Finished LeanSCF after  13.9 sec

Maximum memory used throughout the entire LEANSCF-calculation: 28.4 MB


-------------------------------------------------------------------------------
                          DFT DISPERSION CORRECTION                            
                                                                               
                                DFTD4 V3.4.0                                   
-------------------------------------------------------------------------------
-------------------------   ----------------
Dispersion correction           -0.005983473
-------------------------   ----------------

------------------   -----------------
gCP correction             0.010881713
------------------   -----------------

-------------------------   --------------------
FINAL SINGLE POINT ENERGY      -475.977541571992
-------------------------   --------------------

------------------------------------------------------------------------------
                         ORCA SCF GRADIENT CALCULATION
------------------------------------------------------------------------------

Nuc. rep. gradient        (SHARK) ... done (  0.0 sec)
HCore & Overlap gradient  (SHARK) ... done (  0.3 sec)
Split-RIJ-J gradient      (SHARK) ... done (  2.0 sec)
XC gradient                       ... done (  6.8 sec)
CPCM gradient                     ... done (  1.0 sec)
SMD gradient                      ... done (  0.0 sec)
Dispersion correction             ... done (  0.0 sec)

-------------------
DISPERSION GRADIENT
-------------------

   1   C   :   -0.000023166   -0.000110865   -0.000000758
   2   C   :    0.000005846   -0.000052966   -0.000000160
   3   C   :    0.000085514   -0.000044057   -0.000000302
   4   C   :    0.000106736    0.000023000    0.000000217
   5   C   :    0.000080278    0.000076033    0.000000555
   6   C   :    0.000010732    0.000089388    0.000000351
   7   C   :   -0.000035638    0.000024913    0.000000148
   8   N   :   -0.000100977    0.000030565    0.000000156
   9   O   :   -0.000088083    0.000061660   -0.000001425
  10   O   :   -0.000098119   -0.000019154    0.000001907
  11   H   :   -0.000018334   -0.000041410    0.000011595
  12   H   :   -0.000018630   -0.000041190   -0.000011784
  13   H   :    0.000000224   -0.000049123   -0.000000705
  14   H   :    0.000035299   -0.000029870   -0.000000205
  15   H   :    0.000042597    0.000004354    0.000000062
  16   H   :    0.000026944    0.000034576    0.000000248
  17   H   :   -0.000011224    0.000044146    0.000000102

Difference to translation invariance:
           :   -0.0000000000   -0.0000000000    0.0000000000

Difference to rotation invariance:
           :    0.0000000000    0.0000000000   -0.0000000000

Norm of the Dispersion gradient    ...    0.0003263531
RMS gradient                       ...    0.0000456986
MAX gradient                       ...    0.0001108652
gCP correction                   ... done

------------------
CARTESIAN GRADIENT
------------------

   1   C   :   -0.000005205    0.000001966   -0.000015373
   2   C   :   -0.000014528    0.000033354    0.000035955
   3   C   :   -0.000013151   -0.000024993   -0.000006938
   4   C   :   -0.000006242    0.000002153   -0.000000096
   5   C   :    0.000004610    0.000016977   -0.000003585
   6   C   :   -0.000021687   -0.000024762   -0.000039781
   7   C   :   -0.000010538   -0.000020893    0.000018474
   8   N   :   -0.000000644    0.000044350   -0.000083748
   9   O   :    0.000033787   -0.000026214    0.000125705
  10   O   :    0.000011281   -0.000000625   -0.000060420
  11   H   :   -0.000011914    0.000019479   -0.000003645
  12   H   :    0.000028061    0.000003077    0.000019549
  13   H   :   -0.000008166    0.000007835    0.000022925
  14   H   :   -0.000002112    0.000004667    0.000002733
  15   H   :    0.000000040   -0.000012809   -0.000001458
  16   H   :    0.000004844   -0.000015826   -0.000007813
  17   H   :    0.000011564   -0.000007736   -0.000002483

Difference to translation invariance:
           :   -0.0000000000    0.0000000000   -0.0000000000

Difference to rotation invariance:
           :   -0.0000200339   -0.0000002082   -0.0003536944

Norm of the Cartesian gradient     ...    0.0002028347
RMS gradient                       ...    0.0000284025
MAX gradient                       ...    0.0001257047

-------
TIMINGS
-------

Total SCF gradient time     ....       10.947 sec

Densities                   ....       0.001 sec  (  0.0%)
One electron gradient       ....       0.334 sec  (  3.0%)
RI-J Coulomb gradient       ....       2.041 sec  ( 18.6%)
XC gradient                 ....       6.780 sec  ( 61.9%)
CPCM gradient               ....       0.980 sec  (  9.0%)
   A-Matrix (El+Nuc)        ....       0.060 sec  (  0.5%)
   Potential                ....       0.920 sec  (  8.4%)
SMD gradient                ....       0.011 sec  (  0.1%)

Maximum memory used throughout the entire SCFGRAD-calculation: 37.5 MB

------------------------------------------------------------------------------
                              ORCA PROPERTY CALCULATIONS
------------------------------------------------------------------------------

GBWName                                 ... xtb_opt.gbw
Number of atoms                         ...     17
Number of basis functions               ...    240
Max core memory                         ...   1024 MB

Electric properties:
Dipole moment                           ... YES
Quadrupole moment                       ...  NO
Static polarizability (Dipole/Dipole)   ...  NO
Static polarizability (Dipole/Quad.)    ...  NO
Static polarizability (Quad./Quad.)     ...  NO
Static polarizability (Velocity)        ...  NO

Atomic electric properties:
Dipole moment                           ...  NO
Quadrupole moment                       ...  NO
Static polarizability                   ...  NO

Choice of electric origin               ... Center of mass
Position of electric origin             ...    -0.017696     0.016047     0.001369

General magnetic properties:
Magnetizability                         ...  NO

EPR properties:
g-Tensor (aka g-matrix)                 ...  NO
Zero-Field splitting spin-orbit         ...  NO
Zero-field splitting spin-spin          ...  NO
Hyperfine couplings                     ...  NO (   0 nuclei)
Quadrupole couplings                    ...  NO (   0 nuclei)
Contact density                         ...  NO (   0 nuclei)

NMR properties:
Chemical shifts                         ...  NO (   0 nuclei)
Spin-rotation constants                 ...  NO (   0 nuclei)
Spin-spin couplings                     ...  NO (   0 nuclei,    0 pairs)

Choice of magnetic origin               ... GIAO
Position of magnetic origin             ...     0.000000     0.000000     0.000000

Properties with geometric perturbations:
SCF Hessian                             ...  NO
IR spectrum                             ...  NO
VCD spectrum                            ...  NO
X-ray spectroscopy properties:
SCF XES/XAS/RIXS spectra                ...  NO


-------------
DIPOLE MOMENT
-------------

Method             : SCF
Type of density    : Electron Density
Multiplicity       :   1
Irrep              :   0
Energy             :  -475.9824398118086037 Eh
Relativity type    : 
Basis              : AO
                                X                 Y                 Z
Electronic contribution:     -4.498108037       4.258704885       0.034366870
Nuclear contribution   :      7.031433389      -4.745657955      -0.036301561
                        -----------------------------------------
Total Dipole Moment    :      2.533325352      -0.486953070      -0.001934691
                        -----------------------------------------
Magnitude (a.u.)       :      2.579702381
Magnitude (Debye)      :      6.557082353



--------------------
Rotational spectrum 
--------------------
 
Rotational constants in cm-1:             0.075058             0.042361             0.027220 
Rotational constants in MHz :          2250.174380          1269.940213           816.041673 

Dipole components along the rotational axes: 
x,y,z [a.u.] :     2.538577    -0.458788    -0.001882 
x,y,z [Debye]:     6.452551    -1.166147    -0.004785 

 

Dipole moment calculation done in   0.0 sec 

Maximum memory used throughout the entire PROP-calculation: 16.1 MB

--------------------------------
SUGGESTED CITATIONS FOR THIS RUN
--------------------------------

Below you find a list of papers that are relevant to this ORCA run
We neither can nor want to force you to cite these papers, but we appreciate if you do
You receive ORCA, which is the product of decades of hard work by many enthusiastic individuals, for free
The only thing we kindly ask in return is that you cite our papers,
We deeply appreciate it, if you show your appreciation for ORCA by not just citing the generic ORCA reference.

Please note that relegating all ORCA citations to the supporting information does *not* help us.
SI sections are not indexed - citations you put there will not count into any citation statistics
But we need these citations in order to attract the funding resources that allow us to do what we are doing

Therefore, if you are a happy ORCA user, please consider citing a few of the papers listed below in the main body of your paper

In addition to the list printed below, the program has created the file xtb_opt.bibtex that contains the list in bibtex format
You can import this file easily into all common literature databanks and citation aid programs


List of essential papers. We consider these as the minimum necessary citations

  1. Neese,F.
     Software update: the ORCA program system, version 5.0
     WIRES Comput. Molec. Sci., 2022 12(1)e1606
     doi.org/10.1002/wcms.1606
  2. Grimme,S.; Hansen,A.; Ehlert,S.; Mewes,J.
     r2SCAN-3c: A 'Swiss army knife' composite electronic-structure method
     J. Chem. Phys., 2021 154 064103
     doi.org/10.1063/5.0040021

List of papers to cite with high priority. The work reported in these papers was absolutely
necessary for this run to complete.
Our perspective: the developers of density functionals and basis sets usually get cited in chemistry papers
Good! But without the algorithms to do something with them, the functionals or basis sets would not do anything.
Hence, in our opinion, the algorithm design and method developments papers are equally worthy of getting cited

  1. Neese,F.
     An improvement of the resolution of the identity approximation for the formation of the Coulomb matrix
     J. Comp. Chem., 2003 24(14)1740-1747
     doi.org/10.1002/jcc.10318
  2. Garcia-Rates,M.; Neese,F.
     Effect of the Solute Cavity on the Solvation Energy and its Derivatives within the Framework of the Gaussian Charge Scheme
     J. Comput. Chem., 2020 41 922-939
     doi.org/10.1002/jcc.26139
  3. Neese,F.
     The SHARK Integral Generation and Digestion System
     J. Comp. Chem., 2022  1-16
     doi.org/10.1002/jcc.26942
  4. Lehtola,S.; Steigemann,C.; Oliveira,M.; Marques,M.
     Recent developments in Libxc - A comprehensive library of functionals for density functional theory
     Software X, 2018 7 
     doi.org/10.1016/j.softx.2017.11.002
  5. Caldeweyher,E.; Bannwarth,C.; Grimme,S.
     Extension of the D3 dispersion coefficient model
     J. Chem. Phys., 2017 147 034112-XXXX
     doi.org/10.1063/1.4993215
  6. Caldeweyher,E.; Ehlert,S.; Hansen,A.; Neugebauer,H.; Spicher,S.; Bannwarth,C.; Grimme,S.
     A generally applicable atomic-charge dependent London dispersion correction
     J. Chem. Phys., 2019 150 154122-XXXX
     doi.org/10.1063/1.5090222
  7. Caldeweyher,E.; Mewes,J.; Ehlert,S.; Grimme,S.
     Extension and evaluation of the D4 London-dispersion model for periodic systems
     Phys. Chem. Chem. Phys., 2020 22(16)8499-8512
     doi.org/10.1039/D0CP00502A

List of suggested additional citations. These are papers that are important in the 'surrounding' of 
of this run, or papers that preceded the highly important papers. If you like your results we are grateful for a citation.

  1. Neese,F.
     The ORCA program system
     WIRES Comput. Molec. Sci., 2012 2(1)73-78
     doi.org/10.1002/wcms.81
  2. Neese,F.
     Software update: the ORCA program system, version 4.0
     WIRES Comput. Molec. Sci., 2018 8(1)1-6
     doi.org/10.1002/wcms.1327
  3. Neese,F.; Wennmohs,F.; Becker,U.; Riplinger,C.
     The ORCA quantum chemistry program package
     J. Chem. Phys., 2020 152 Art. No. L224108
     doi.org/10.1063/5.0004608

List of optional additional citations

  1. Neese,F.
     Approximate second-order SCF convergence for spin unrestricted wavefunctions
     Chem. Phys. Lett., 2000 325(1-3)93-98
     doi.org/10.1016/s0009-2614(00)00662-x

Timings for individual modules:

Sum of individual times          ...       26.953 sec (=   0.449 min)
Startup calculation              ...        1.294 sec (=   0.022 min)   4.8 %
SCF iterations                   ...       14.502 sec (=   0.242 min)  53.8 %
Property calculations            ...        0.112 sec (=   0.002 min)   0.4 %
SCF Gradient evaluation          ...       11.045 sec (=   0.184 min)  41.0 %
                             ****ORCA TERMINATED NORMALLY****
TOTAL RUN TIME: 0 days 0 hours 0 minutes 27 seconds 999 msec
  ------------------------------------------------------------------------
          * successful ORCA run, taking over control again...

         :::::::::::::::::::::::::::::::::::::::::::::::::::::
         ::                  ORCA SUMMARY                   ::
         :::::::::::::::::::::::::::::::::::::::::::::::::::::
         :: total energy            -475.977541571992 Eh    ::
         :: gradient norm              0.000202834709 Eh/a0 ::
         :: HOMO-LUMO gap              0.000000000000 eV    ::
         :::::::::::::::::::::::::::::::::::::::::::::::::::::

           -------------------------------------------------
          |                Property Printout                |
           -------------------------------------------------
           -------------------------------------------------
          |                Geometry Summary                 |
           -------------------------------------------------

      molecular mass/u    :      137.1362496
   center of mass at/Å    :       -0.0093910       0.0084975       0.0007243
  moments of inertia/u·Å² :        0.2245913E+03   0.3979530E+03   0.6192995E+03
rotational constants/cm⁻¹ :        0.7505915E-01   0.4236086E-01   0.2722049E-01

 * 15 selected distances

     #   Z          #   Z                                           value/Å
     2   6 C        3   6 C                                       1.4005865
     3   6 C        4   6 C                                       1.3882857
     4   6 C        5   6 C                                       1.3933111
     5   6 C        6   6 C                                       1.3828144
     2   6 C        7   6 C                                       1.4100344 (max)
     6   6 C        7   6 C                                       1.3975594
     8   7 N        9   8 O                                       1.2337904
     8   7 N       10   8 O                                       1.2303258
     1   6 C       11   1 H                                       1.0934040
     1   6 C       12   1 H                                       1.0934857
     1   6 C       13   1 H                                       1.0918571
     3   6 C       14   1 H                                       1.0851879
     4   6 C       15   1 H                                       1.0850982
     5   6 C       16   1 H                                       1.0841749
     6   6 C       17   1 H                                       1.0819015 (min)

 * 3 distinct bonds (by element types)

   Z      Z             #   av. dist./Å        max./Å        min./Å
   1 H    6 C           7     1.0878727     1.0934857     1.0819015
   6 C    6 C           6     1.3954319     1.4100344     1.3828144
   7 N    8 O           2     1.2320581     1.2337904     1.2303258


optimized geometry written to: xtbopt.coord


           -------------------------------------------------
          | TOTAL ENERGY             -475.977541571992 Eh   |
          | GRADIENT NORM               0.000202834709 Eh/α |
           -------------------------------------------------

------------------------------------------------------------------------
 * finished run on 2025/04/04 at 22:19:14.112     
------------------------------------------------------------------------
 total:
 * wall-time:     0 d,  0 h,  4 min, 38.425 sec
 *  cpu-time:     0 d,  0 h,  0 min,  0.344 sec
 * ratio c/w:     0.001 speedup
 SCF:
 * wall-time:     0 d,  0 h,  0 min, 22.104 sec
 *  cpu-time:     0 d,  0 h,  0 min,  0.124 sec
 * ratio c/w:     0.006 speedup
 ANC optimizer:
 * wall-time:     0 d,  0 h,  4 min, 16.282 sec
 *  cpu-time:     0 d,  0 h,  0 min,  0.212 sec
 * ratio c/w:     0.001 speedup

